
  ___ ___ ___ _ _ _  
 |   |   |_  | | | | 
 | | | | | . | | | | 
 |__ |  _|___|_____|  22.8.0
 |___|_|             

User:   c.zeng@d0112
Date:   Sat Apr 15 07:24:12 2023
Arch:   x86_64
Pid:    76526
CWD:    /home/c.zeng/projects/hea-corrosion/hea-mlp/data-curation/bulk-mcmc/dft-jobs/224
Python: 3.8.1
gpaw:   /home/c.zeng/usr/installs/gpaw/source/gpaw-22.8.0/gpaw
_gpaw:  /home/c.zeng/usr/installs/gpaw/source/gpaw-22.8.0/
        _gpaw.cpython-38-x86_64-linux-gnu.so
ase:    /home/c.zeng/.local/lib/python3.8/site-packages/ase-3.22.1-py3.8.egg/ase (version 3.22.1)
numpy:  /shared/centos7/python/3.8.1/lib/python3.8/site-packages/numpy (version 1.17.4)
scipy:  /shared/centos7/python/3.8.1/lib/python3.8/site-packages/scipy (version 1.4.1)
libxc:  4.2.3
units:  Angstrom and eV
cores: 30
OpenMP: False
OMP_NUM_THREADS: 1

Input parameters:
  convergence: {energy: 0.0001}
  kpts: [2 2 2]
  maxiter: 666
  mode: {ecut: 350.0,
         name: pw}
  occupations: {fixmagmom: False,
                name: fermi-dirac,
                width: 0.1}
  spinpol: True
  xc: PBE

System changes: positions, numbers, cell, pbc, initial_charges, initial_magmoms 

Initialize ...

species:
  Cr:
    name: Chromium
    id: 33f258bda2ca9f93018e70263a35547b
    Z: 24.0
    valence: 6
    core: 18
    charge: 0.0
    file: /home/c.zeng/usr/data/gpaw-setups-0.9.20000/Cr.PBE.gz
    compensation charges: {type: gauss,
                           rc: 0.35,
                           lmax: 2}
    cutoffs: {filter: 2.14,
              core: 3.04}
    valence states:
      #              energy  rcut
      - 4s(1.00)    -4.007   1.164
      - 4p(0.00)    -0.989   1.217
      - 3d(5.00)    -2.913   1.111
      -  s          23.205   1.164
      -  p          26.223   1.217
      -  d          24.299   1.111
  
    # Using partial waves for Cr as LCAO basis

  Al:
    name: Aluminium
    id: 0292cae29f5d6237e50f6abdd43a7bdd
    Z: 13.0
    valence: 3
    core: 10
    charge: 0.0
    file: /home/c.zeng/usr/data/gpaw-setups-0.9.20000/Al.PBE.gz
    compensation charges: {type: gauss,
                           rc: 0.34,
                           lmax: 2}
    cutoffs: {filter: 1.91,
              core: 2.36}
    valence states:
      #              energy  rcut
      - 3s(2.00)    -7.753   1.085
      - 3p(1.00)    -2.712   1.085
      -  s          19.459   1.085
      -  p          24.499   1.085
      -  d           0.000   1.085
  
    # Using partial waves for Al as LCAO basis

  Co:
    name: Cobalt
    id: 339d20d5b0b93d2de9531a1bee871d91
    Z: 27.0
    valence: 9
    core: 18
    charge: 0.0
    file: /home/c.zeng/usr/data/gpaw-setups-0.9.20000/Co.PBE.gz
    compensation charges: {type: gauss,
                           rc: 0.32,
                           lmax: 2}
    cutoffs: {filter: 1.87,
              core: 2.55}
    valence states:
      #              energy  rcut
      - 4s(2.00)    -5.469   1.005
      - 4p(0.00)    -1.277   1.058
      - 3d(7.00)    -8.205   1.005
      -  s          21.742   1.005
      -  p          25.934   1.058
      -  d          19.007   1.005
  
    # Using partial waves for Co as LCAO basis

  Ni:
    name: Nickel
    id: 0d9f38a9d6e76a2886f07bb4381f212b
    Z: 28.0
    valence: 16
    core: 12
    charge: 0.0
    file: /home/c.zeng/usr/data/gpaw-setups-0.9.20000/Ni.PBE.gz
    compensation charges: {type: gauss,
                           rc: 0.36,
                           lmax: 2}
    cutoffs: {filter: 2.14,
              core: 1.98}
    valence states:
      #              energy  rcut
      - 4s(2.00)    -5.642   1.164
      - 3p(6.00)   -71.394   1.207
      - 4p(0.00)    -1.226   1.207
      - 3d(8.00)    -8.875   1.138
      -  s          21.570   1.164
      -  d          18.337   1.138
  
    # Using partial waves for Ni as LCAO basis

  Fe:
    name: Iron
    id: 37abbd8d6c3c35915a9b583b742da910
    Z: 26.0
    valence: 8
    core: 18
    charge: 0.0
    file: /home/c.zeng/usr/data/gpaw-setups-0.9.20000/Fe.PBE.gz
    compensation charges: {type: gauss,
                           rc: 0.33,
                           lmax: 2}
    cutoffs: {filter: 2.06,
              core: 2.67}
    valence states:
      #              energy  rcut
      - 4s(2.00)    -5.291   1.164
      - 4p(0.00)    -1.326   1.058
      - 3d(6.00)    -7.505   1.058
      -  s          21.920   1.164
      -  p          25.885   1.058
      -  d          19.706   1.058
  
    # Using partial waves for Fe as LCAO basis

Reference energy: -3235165.067515  # eV

Spin-polarized calculation.
Magnetic moment: 121.100000

Convergence criteria:
 Maximum [total energy] change in last 3 cyles: 0.0001 eV / electron
 Maximum integral of absolute [dens]ity change: 0.0001 electrons / valence electron
 Maximum integral of absolute [eigenst]ate change: 4e-08 eV^2 / valence electron
 Maximum number of scf [iter]ations: 666
 (Square brackets indicate name in SCF output, whereas a 'c' in
 the SCF output indicates the quantity has converged.)

Symmetries present (total): 1

  ( 1  0  0)
  ( 0  1  0)
  ( 0  0  1)

8 k-points: 2 x 2 x 2 Monkhorst-Pack grid
4 k-points in the irreducible part of the Brillouin zone
       k-points in crystal coordinates                weights
   0:     0.25000000   -0.25000000   -0.25000000          2/8
   1:     0.25000000   -0.25000000    0.25000000          2/8
   2:     0.25000000    0.25000000   -0.25000000          2/8
   3:     0.25000000    0.25000000    0.25000000          2/8

Wave functions: Plane wave expansion
  Cutoff energy: 350.000 eV
  Number of coefficients (min, max): 19084, 19084
  Pulay-stress correction: 0.000000 eV/Ang^3 (de/decut=0.000000)
  Using FFTW library
  ScaLapack parameters: grid=1x1, blocksize=None
  Wavefunction extrapolation:
    Improved wavefunction reuse through dual PAW basis 

Occupation numbers: Fermi-Dirac:
  width: 0.1000  # eV
 

Eigensolver
   Davidson(niter=2) 

Densities:
  Coarse grid: 48*48*48 grid
  Fine grid: 96*96*96 grid
  Total Charge: 0.000000 

Density mixing:
  Method: difference
  Backend: pulay
  Linear mixing parameter: 0.05
  old densities: 5
  Damping of long wavelength oscillations: 50 

Hamiltonian:
  XC and Coulomb potentials evaluated on a 96*96*96 grid
  Using the PBE Exchange-Correlation functional
  External potential:
    NoExternalPotential
 

XC parameters: PBE with 2 nearest neighbor stencil

Memory estimate:
  Process memory now: 238.55 MiB
  Calculator: 986.43 MiB
    Density: 5.59 MiB
      Arrays: 2.05 MiB
      Localized functions: 2.72 MiB
      Mixer: 0.82 MiB
    Hamiltonian: 1.61 MiB
      Arrays: 1.52 MiB
      XC: 0.00 MiB
      Poisson: 0.00 MiB
      vbar: 0.08 MiB
    Wavefunctions: 979.23 MiB
      Arrays psit_nG: 726.83 MiB
      Eigensolver: 242.60 MiB
      Projections: 4.67 MiB
      Projectors: 0.74 MiB
      PW-descriptor: 4.39 MiB

Total number of cores used: 30
Parallelization over k-points: 2
Domain decomposition: 5 x 3 x 1

Number of atoms: 108
Number of atomic orbitals: 933
Number of bands in calculation: 624
Number of valence electrons: 912
Bands to converge: occupied

... initialized

Initializing position-dependent things.

Density initialized from atomic densities
Creating initial wave functions:
  624 bands from LCAO basis set

        .--------Al----------------.  
       /|           Fe             |  
      / |    FeFe     Ni           |  
     / Ni       Ni       Al        |  
    /   |Fe      NiCo       Fe     |  
   /    | NiNi      ACo            |  
  /    Co  FerAlAl    Co Fe  CoAl  |  
 *      Fe     AlCoAl   CrFe     Ni|  
 |      |FeCr   NiFeFe   AlCrCr   Co  
 |      | CoCr   AlCoCoAl CrCrFe   |  
 |     Fe  Al CoCo  NiNi Cr  NiNi  |  
 |      Cr  Cr CrNiCo CoNiCoAl   Fe|  
 |      |CrCo   CoAlAl   CoCrFe   Fe  
 |      .-FeNi-----CrNi-Al--NiFe---.  
 |     Al  Cr CoCr    Al Co  Cr Cr/   
 |    / Co              Ni       Cr   
 |   /           Ali      CrFe  /     
 |  /      Ni       Fe     NiAl/      
 | /                   Fe     /i      
 |/                          /        
 *--------------------------Cr        

Positions:
   0 Cr    10.797848    0.093654    0.085777    ( 0.0000,  0.0000,  0.0000)
   1 Al    10.831824    1.844742    1.870716    ( 0.0000,  0.0000,  2.0000)
   2 Cr     1.786803   10.847372    1.827335    ( 0.0000,  0.0000,  0.0000)
   3 Co     1.769614    1.870531   -0.031264    ( 0.0000,  0.0000,  0.0000)
   4 Al     3.620857   10.822050   10.833629    ( 0.0000,  0.0000,  1.5000)
   5 Ni     3.571246    1.883176    1.708402    ( 0.0000,  0.0000,  0.0000)
   6 Co     5.521103   10.788063    1.666217    ( 0.0000,  0.0000,  0.0000)
   7 Al     5.520831    1.813973   10.830911    ( 0.0000,  0.0000,  1.5000)
   8 Al     7.330846    0.011025   10.815657    ( 0.0000,  0.0000,  2.0000)
   9 Fe     7.282018    1.809483    1.793250    ( 0.0000,  0.0000,  2.1000)
  10 Fe     9.029996    0.022005    1.811918    ( 0.0000,  0.0000,  1.5000)
  11 Fe     9.007196    1.868639   10.825714    ( 0.0000,  0.0000,  2.0000)
  12 Ni    10.861310    3.649723    0.014171    ( 0.0000,  0.0000,  2.0000)
  13 Cr    10.867442    5.463468    1.819235    ( 0.0000,  0.0000,  2.1000)
  14 Co     1.756088    3.650267    1.845949    ( 0.0000,  0.0000,  0.0000)
  15 Fe     1.790358    5.439092   10.869084    ( 0.0000,  0.0000,  2.1000)
  16 Ni     3.687842    3.622792   -0.049287    ( 0.0000,  0.0000,  2.0000)
  17 Co     3.667347    5.391145    1.745368    ( 0.0000,  0.0000,  0.0000)
  18 Al     5.497977    3.634415    1.792370    ( 0.0000,  0.0000,  2.0000)
  19 Ni     5.524908    5.448029    0.002551    ( 0.0000,  0.0000,  2.0000)
  20 Co     7.223340    3.611877   10.834270    ( 0.0000,  0.0000,  0.0000)
  21 Al     7.217762    5.474830    1.807776    ( 0.0000,  0.0000,  2.1000)
  22 Cr     9.073442    3.654344    1.775148    ( 0.0000,  0.0000,  0.0000)
  23 Ni     9.008740    5.418608    0.007692    ( 0.0000,  0.0000,  2.0000)
  24 Cr    10.859190    7.178720    0.014480    ( 0.0000,  0.0000,  1.5000)
  25 Fe    -0.018106    8.970948    1.875391    ( 0.0000,  0.0000,  0.0000)
  26 Fe     1.817615    7.224025    1.802546    ( 0.0000,  0.0000,  1.5000)
  27 Cr     1.880729    8.993464   10.874031    ( 0.0000,  0.0000,  0.0000)
  28 Fe     3.684428    7.260447   -0.001356    ( 0.0000,  0.0000,  2.0000)
  29 Co     3.612616    9.025636    1.761807    ( 0.0000,  0.0000,  1.5000)
  30 Cr     5.481440    7.275114    1.811211    ( 0.0000,  0.0000,  1.5000)
  31 Fe     5.461261    9.048153   10.833988    ( 0.0000,  0.0000,  1.5000)
  32 Ni     7.245704    7.257881    0.056891    ( 0.0000,  0.0000,  2.1000)
  33 Co     7.301969    9.004609    1.790315    ( 0.0000,  0.0000,  0.0000)
  34 Ni     9.029343    7.181775    1.815549    ( 0.0000,  0.0000,  2.0000)
  35 Cr     9.030561    9.042010    0.020232    ( 0.0000,  0.0000,  1.5000)
  36 Fe    -0.031046    0.001947    3.645701    ( 0.0000,  0.0000,  2.0000)
  37 Fe    10.825910    1.804351    5.434602    ( 0.0000,  0.0000,  2.1000)
  38 Cr     1.743552   10.849296    5.484376    ( 0.0000,  0.0000,  0.0000)
  39 Al     1.769755    1.791891    3.636068    ( 0.0000,  0.0000,  1.5000)
  40 Al     3.516667   10.719828    3.663227    ( 0.0000,  0.0000,  0.0000)
  41 Co     3.644244    1.785205    5.586728    ( 0.0000,  0.0000,  0.0000)
  42 Al     5.484778   10.815439    5.504022    ( 0.0000,  0.0000,  0.0000)
  43 Cr     5.457934    1.842230    3.658769    ( 0.0000,  0.0000,  0.0000)
  44 Cr     7.360615   10.815439    3.672229    ( 0.0000,  0.0000,  0.0000)
  45 Al     7.266884    1.811614    5.485528    ( 0.0000,  0.0000,  2.1000)
  46 Al     9.077986    0.023590    5.491921    ( 0.0000,  0.0000,  0.0000)
  47 Co     9.066788    1.824226    3.671175    ( 0.0000,  0.0000,  1.5000)
  48 Fe    -0.047135    3.649615    3.617291    ( 0.0000,  0.0000,  2.0000)
  49 Ni    10.809264    5.435993    5.379805    ( 0.0000,  0.0000,  2.0000)
  50 Cr     1.752316    3.624989    5.344676    ( 0.0000,  0.0000,  0.0000)
  51 Cr     1.805786    5.472046    3.619389    ( 0.0000,  0.0000,  2.1000)
  52 Ni     3.649408    3.633491    3.631251    ( 0.0000,  0.0000,  2.1000)
  53 Co     3.657628    5.433797    5.434015    ( 0.0000,  0.0000,  1.5000)
  54 Ni     5.413368    3.672642    5.480309    ( 0.0000,  0.0000,  1.5000)
  55 Al     5.413835    5.465588    3.639666    ( 0.0000,  0.0000,  2.1000)
  56 Ni     7.223449    3.731734    3.720829    ( 0.0000,  0.0000,  0.0000)
  57 Ni     7.220557    5.483180    5.485572    ( 0.0000,  0.0000,  0.0000)
  58 Co     9.069039    3.623673    5.469720    ( 0.0000,  0.0000,  1.5000)
  59 Cr     9.064766    5.503837    3.636731    ( 0.0000,  0.0000,  0.0000)
  60 Fe    -0.007801    7.208303    3.671501    ( 0.0000,  0.0000,  2.1000)
  61 Co    -0.032907    9.095361    5.398690    ( 0.0000,  0.0000,  0.0000)
  62 Co     1.823693    7.248716    5.440766    ( 0.0000,  0.0000,  2.0000)
  63 Al     1.739856    8.989170    3.676437    ( 0.0000,  0.0000,  2.0000)
  64 Cr     3.645353    7.306090    3.692343    ( 0.0000,  0.0000,  0.0000)
  65 Ni     3.652300    9.051545    5.521635    ( 0.0000,  0.0000,  1.5000)
  66 Co     5.474253    7.265362    5.482886    ( 0.0000,  0.0000,  2.1000)
  67 Ni     5.473601    9.034877    3.664390    ( 0.0000,  0.0000,  0.0000)
  68 Ni     7.218436    7.243171    3.634643    ( 0.0000,  0.0000,  1.5000)
  69 Al     7.240823    9.039172    5.472851    ( 0.0000,  0.0000,  1.5000)
  70 Cr     8.972600    7.234071    5.399136    ( 0.0000,  0.0000,  2.0000)
  71 Ni     9.065516    8.978221    3.651180    ( 0.0000,  0.0000,  0.0000)
  72 Al    10.856755    0.017916    7.210891    ( 0.0000,  0.0000,  2.1000)
  73 Cr    10.824681    1.882197    8.982799    ( 0.0000,  0.0000,  0.0000)
  74 Fe     1.860768   10.856646    9.009795    ( 0.0000,  0.0000,  0.0000)
  75 Fe     1.767189    1.801926    7.237202    ( 0.0000,  0.0000,  2.1000)
  76 Ni     3.637144   10.797772    7.275701    ( 0.0000,  0.0000,  2.1000)
  77 Cr     3.668032    1.775833    9.018743    ( 0.0000,  0.0000,  0.0000)
  78 Ni     5.482495   10.845165    9.071409    ( 0.0000,  0.0000,  2.1000)
  79 Co     5.527517    1.773408    7.253489    ( 0.0000,  0.0000,  0.0000)
  80 Co     7.260502    0.005379    7.255185    ( 0.0000,  0.0000,  1.5000)
  81 Fe     7.265112    1.802383    9.014883    ( 0.0000,  0.0000,  2.0000)
  82 Al     9.024788    0.026384    9.025244    ( 0.0000,  0.0000,  1.5000)
  83 Cr     9.016296    1.814658    7.226449    ( 0.0000,  0.0000,  2.0000)
  84 Fe    10.804437    3.613888    7.198159    ( 0.0000,  0.0000,  0.0000)
  85 Al    10.834662    5.395809    9.098938    ( 0.0000,  0.0000,  0.0000)
  86 Fe     1.818746    3.628870    9.065668    ( 0.0000,  0.0000,  0.0000)
  87 Fe     1.809776    5.464294    7.231146    ( 0.0000,  0.0000,  0.0000)
  88 Cr     3.671588    3.637100    7.249553    ( 0.0000,  0.0000,  0.0000)
  89 Al     3.679546    5.412074    9.119606    ( 0.0000,  0.0000,  0.0000)
  90 Co     5.499651    3.591088    9.044978    ( 0.0000,  0.0000,  2.1000)
  91 Fe     5.468306    5.448464    7.223046    ( 0.0000,  0.0000,  1.5000)
  92 Co     7.241888    3.617400    7.225101    ( 0.0000,  0.0000,  0.0000)
  93 Co     7.214631    5.385893    9.048577    ( 0.0000,  0.0000,  2.1000)
  94 Fe     8.994291    3.655975    9.039237    ( 0.0000,  0.0000,  1.5000)
  95 Cr     9.006577    5.423262    7.223296    ( 0.0000,  0.0000,  2.0000)
  96 Ni    -0.070637    7.291956    7.110419    ( 0.0000,  0.0000,  0.0000)
  97 Ni     0.073012    9.104570    9.068375    ( 0.0000,  0.0000,  0.0000)
  98 Ni     1.863247    7.257381    9.054785    ( 0.0000,  0.0000,  2.0000)
  99 Fe     1.858343    9.053708    7.225808    ( 0.0000,  0.0000,  2.1000)
 100 Al     3.683906    7.292456    7.235550    ( 0.0000,  0.0000,  2.0000)
 101 Ni     3.628218    9.069550    9.051262    ( 0.0000,  0.0000,  2.1000)
 102 Co     5.530605    7.331890    9.040129    ( 0.0000,  0.0000,  0.0000)
 103 Al     5.476232    9.097209    7.250467    ( 0.0000,  0.0000,  2.0000)
 104 Cr     7.256827    7.264242    7.208456    ( 0.0000,  0.0000,  2.1000)
 105 Al     7.272548    9.136437    9.056861    ( 0.0000,  0.0000,  1.5000)
 106 Fe     8.936493    7.190875    9.109767    ( 0.0000,  0.0000,  0.0000)
 107 Co     8.994682    9.112169    7.218480    ( 0.0000,  0.0000,  0.0000)

Unit cell:
           periodic     x           y           z      points  spacing
  1. axis:    yes   10.872400    0.000000    0.000000    48     0.2265
  2. axis:    yes    0.000000   10.872400    0.000000    48     0.2265
  3. axis:    yes    0.000000    0.000000   10.872400    48     0.2265

  Lengths:  10.872400  10.872400  10.872400
  Angles:   90.000000  90.000000  90.000000

Effective grid spacing dv^(1/3) = 0.2265

     iter     time        total  log10-change:  magmom
                         energy  eigst   dens
iter:   1 07:28:50  -930.273306                  +120.1381
iter:   2 07:30:58  -863.188322  -0.21  -1.24    +78.9226
iter:   3 07:33:07  -845.055309  -0.74  -1.21    +46.2912
iter:   4 07:35:15  -816.424357  -1.17  -1.28    +41.1110
iter:   5 07:37:24  -809.277960  -1.66  -1.35    +38.7672
iter:   6 07:39:34  -813.704174  -1.64  -1.40    +37.3919
iter:   7 07:41:43  -805.465167  -1.54  -1.42    +36.7440
iter:   8 07:43:52  -805.073940  -1.71  -1.51    +36.8138
iter:   9 07:46:01  -806.155808  -1.75  -1.59    +36.7684
iter:  10 07:48:09  -801.465378  -1.96  -1.61    +37.3236
iter:  11 07:50:19  -801.303461  -2.40  -1.76    +38.2116
iter:  12 07:52:27  -801.405022  -2.46  -1.81    +39.0882
iter:  13 07:54:36  -801.745296  -2.61  -1.86    +40.1272
iter:  14 07:56:44  -802.532253  -2.50  -1.91    +40.9645
iter:  15 07:58:53  -802.218059  -2.67  -1.93    +41.8760
iter:  16 08:01:02  -802.854256  -2.61  -2.01    +42.8088
iter:  17 08:03:11  -802.141975  -2.91  -2.01    +43.5176
iter:  18 08:05:20  -802.464617  -2.98  -2.12    +44.5660
iter:  19 08:07:28  -802.341924  -3.12  -2.16    +44.9554
iter:  20 08:09:37  -802.673412  -2.97  -2.22    +45.8004
iter:  21 08:11:46  -802.603298  -3.19  -2.24    +46.0014
iter:  22 08:13:56  -802.696725  -3.18  -2.30    +46.7765
iter:  23 08:16:05  -802.784707  -3.34  -2.36    +47.3034
iter:  24 08:18:13  -802.923529  -3.57  -2.43    +47.6410
iter:  25 08:20:22  -803.218526  -3.30  -2.44    +48.2322
iter:  26 08:22:31  -803.224073  -3.63  -2.42    +48.5394
iter:  27 08:24:40  -803.427925  -3.35  -2.49    +49.1001
iter:  28 08:26:49  -803.664631  -3.31  -2.53    +49.4987
iter:  29 08:28:57  -803.770188  -3.48  -2.51    +49.9394
iter:  30 08:31:06  -803.823692  -3.73  -2.51    +50.0717
iter:  31 08:33:15  -803.960284  -3.69  -2.53    +50.0542
iter:  32 08:35:23  -804.034292  -4.15  -2.47    +50.1478
iter:  33 08:37:32  -804.141132  -4.03  -2.45    +49.9457
iter:  34 08:39:40  -804.332631  -3.47  -2.41    +50.4380
iter:  35 08:41:49  -804.080336  -3.66  -2.34    +50.4516
iter:  36 08:43:57  -804.232220  -3.36  -2.47    +50.4367
iter:  37 08:46:05  -804.088744  -3.50  -2.40    +50.3098
iter:  38 08:48:14  -804.075348  -3.81  -2.52    +50.1940
iter:  39 08:50:23  -804.077190c -3.97  -2.56    +50.0767
iter:  40 08:52:31  -804.114510c -3.71  -2.59    +50.0281
iter:  41 08:54:40  -804.106158c -3.75  -2.60    +49.9064
iter:  42 08:56:47  -804.145171c -3.77  -2.63    +49.8268
iter:  43 08:58:56  -804.090489c -3.92  -2.63    +49.8857
iter:  44 09:01:04  -804.101554c -3.92  -2.78    +49.7709
iter:  45 09:03:07  -804.090888c -4.06  -2.74    +49.7575
iter:  46 09:05:16  -804.073804c -4.41  -2.83    +49.7239
iter:  47 09:07:25  -804.084628c -4.38  -2.93    +49.6965
iter:  48 09:09:33  -804.077680c -4.65  -2.89    +49.6514
iter:  49 09:11:42  -804.081131c -4.73  -2.98    +49.5700
iter:  50 09:13:50  -804.090991c -4.74  -2.99    +49.5633
iter:  51 09:15:59  -804.091791c -4.67  -3.00    +49.5138
iter:  52 09:18:08  -804.096625c -4.55  -3.04    +49.4450
iter:  53 09:20:17  -804.112396c -4.49  -3.03    +49.4048
iter:  54 09:22:26  -804.098225c -4.64  -3.02    +49.3769
iter:  55 09:24:35  -804.106380c -4.62  -3.18    +49.3327
iter:  56 09:26:43  -804.100373c -4.90  -3.10    +49.2777
iter:  57 09:28:53  -804.104686c -5.00  -3.24    +49.2482
iter:  58 09:31:01  -804.108200c -5.08  -3.30    +49.1953
iter:  59 09:33:10  -804.107150c -5.43  -3.28    +49.1504
iter:  60 09:35:20  -804.112752c -5.27  -3.34    +49.0369
iter:  61 09:37:29  -804.114776c -5.37  -3.37    +49.0178
iter:  62 09:39:38  -804.117031c -5.48  -3.34    +48.9701
iter:  63 09:41:46  -804.121433c -5.23  -3.43    +48.8633
iter:  64 09:43:55  -804.122976c -5.47  -3.42    +48.8480
iter:  65 09:46:04  -804.126736c -5.34  -3.48    +48.7706
iter:  66 09:48:13  -804.127862c -5.30  -3.49    +48.7428
iter:  67 09:50:21  -804.129437c -5.26  -3.47    +48.6701
iter:  68 09:52:30  -804.131803c -5.46  -3.76    +48.6136
iter:  69 09:54:39  -804.132639c -5.89  -3.70    +48.5884
iter:  70 09:56:48  -804.135181c -5.58  -3.84    +48.5166
iter:  71 09:58:57  -804.136288c -6.00  -3.79    +48.4833
iter:  72 10:01:06  -804.143718c -5.00  -3.82    +48.2831
iter:  73 10:03:14  -804.142701c -6.17  -3.62    +48.3413
iter:  74 10:05:23  -804.148669c -4.94  -3.63    +48.0929
iter:  75 10:07:32  -804.151943c -5.12  -3.58    +47.9544
iter:  76 10:09:41  -804.155808c -5.22  -3.58    +47.8452
iter:  77 10:11:49  -804.147031c -4.74  -3.53    +48.1450
iter:  78 10:13:58  -804.154569c -5.17  -3.53    +47.9508
iter:  79 10:16:06  -804.151162c -5.70  -3.53    +48.0483
iter:  80 10:18:15  -804.153901c -5.63  -3.56    +47.9653
iter:  81 10:20:23  -804.154722c -5.25  -3.58    +47.9395
iter:  82 10:22:32  -804.154963c -5.51  -3.40    +47.8545
iter:  83 10:24:40  -804.153517c -5.32  -3.59    +47.8002
iter:  84 10:26:48  -804.155315c -5.42  -3.52    +47.7637
iter:  85 10:28:57  -804.156321c -5.36  -3.57    +47.7318
iter:  86 10:31:05  -804.155849c -5.68  -3.56    +47.7204
iter:  87 10:33:14  -804.156909c -6.07  -3.74    +47.6785
iter:  88 10:35:22  -804.157427c -6.64  -3.77    +47.6639
iter:  89 10:37:30  -804.154609c -5.57  -3.75    +47.7623
iter:  90 10:39:38  -804.152812c -5.53  -3.90    +47.8375
iter:  91 10:41:44  -804.155105c -5.81  -3.81    +47.7441
iter:  92 10:43:54  -804.154752c -6.58  -3.95    +47.7582
iter:  93 10:46:02  -804.155813c -6.30  -4.06c   +47.7231
iter:  94 10:48:10  -804.156602c -6.10  -4.08c   +47.6876
iter:  95 10:50:19  -804.160275c -5.36  -4.05c   +47.5856
iter:  96 10:52:28  -804.154585c -5.15  -3.97    +47.7584
iter:  97 10:54:36  -804.150048c -4.86  -4.09c   +47.9166
iter:  98 10:56:45  -804.150299c -5.99  -3.94    +47.9086
iter:  99 10:58:53  -804.151931c -6.00  -3.96    +47.8550
iter: 100 11:01:02  -804.153659c -5.76  -4.06c   +47.7901
iter: 101 11:03:10  -804.152862c -6.49  -4.10c   +47.8214
iter: 102 11:05:18  -804.154172c -5.89  -4.00    +47.7637
iter: 103 11:07:27  -804.153668c -6.87  -4.14c   +47.7851
iter: 104 11:09:35  -804.154734c -6.43  -4.27c   +47.7543
iter: 105 11:11:44  -804.153438c -6.34  -4.27c   +47.7887
iter: 106 11:13:53  -804.153024c -6.53  -4.17c   +47.7955
iter: 107 11:16:01  -804.154043c -6.50  -4.20c   +47.7583
iter: 108 11:18:09  -804.151868c -5.83  -4.25c   +47.8414
iter: 109 11:20:17  -804.150382c -5.66  -4.13c   +47.9123
iter: 110 11:22:26  -804.148210c -4.95  -3.95    +48.0690
iter: 111 11:24:35  -804.148736c -6.18  -3.73    +48.0206
iter: 112 11:26:43  -804.149681c -6.09  -3.78    +47.9678
iter: 113 11:28:52  -804.151082c -5.77  -3.84    +47.8939
iter: 114 11:31:01  -804.151618c -6.22  -3.92    +47.8752
iter: 115 11:33:09  -804.152208c -5.84  -3.86    +47.8648
iter: 116 11:35:17  -804.151876c -5.85  -3.86    +47.8550
iter: 117 11:37:26  -804.152659c -5.84  -3.72    +47.8237
iter: 118 11:39:34  -804.153964c -5.78  -3.86    +47.7935
iter: 119 11:41:42  -804.153033c -6.27  -3.89    +47.7755
iter: 120 11:43:51  -804.154078c -6.11  -4.21c   +47.7444
iter: 121 11:45:59  -804.154040c -6.67  -4.35c   +47.7375
iter: 122 11:48:07  -804.154860c -6.25  -4.36c   +47.7027
iter: 123 11:50:16  -804.154499c -7.09  -4.41c   +47.7142
iter: 124 11:52:24  -804.154699c -6.64  -4.49c   +47.7117
iter: 125 11:54:33  -804.155224c -6.52  -4.30c   +47.6792
iter: 126 11:56:41  -804.154783c -6.31  -4.54c   +47.7087
iter: 127 11:58:50  -804.155466c -6.61  -4.32c   +47.6828
iter: 128 12:00:59  -804.152685c -5.39  -4.29c   +47.7980
iter: 129 12:03:06  -804.150862c -5.41  -4.25c   +47.8832
iter: 130 12:05:12  -804.149424c -5.34  -4.08c   +47.9575
iter: 131 12:07:20  -804.149206c -5.39  -3.89    +48.0137
iter: 132 12:09:29  -804.149717c -6.10  -3.70    +47.9628
iter: 133 12:11:38  -804.149536c -6.48  -3.81    +47.9687
iter: 134 12:13:46  -804.150110c -6.51  -3.76    +47.9468
iter: 135 12:15:55  -804.152057c -5.55  -3.77    +47.9305
iter: 136 12:18:03  -804.149928c -5.43  -3.60    +47.9356
iter: 137 12:20:12  -804.151161c -5.72  -3.66    +47.9122
iter: 138 12:22:20  -804.152170c -5.57  -3.86    +47.8900
iter: 139 12:24:28  -804.151706c -6.00  -3.68    +47.8657
iter: 140 12:26:37  -804.151997c -6.12  -4.02c   +47.8390
iter: 141 12:28:45  -804.152533c -6.22  -4.09c   +47.8066
iter: 142 12:30:54  -804.152772c -6.20  -4.11c   +47.7791
iter: 143 12:33:02  -804.153436c -6.27  -4.24c   +47.7395
iter: 144 12:35:11  -804.152890c -6.64  -4.24c   +47.7692
iter: 145 12:37:19  -804.152657c -6.82  -4.22c   +47.7678
iter: 146 12:39:27  -804.153538c -6.48  -4.19c   +47.7373
iter: 147 12:41:36  -804.153293c -6.93  -4.28c   +47.7296
iter: 148 12:43:44  -804.153965c -6.45  -4.32c   +47.7014
iter: 149 12:45:53  -804.153704c -7.33  -4.28c   +47.7059
iter: 150 12:48:01  -804.153986c -6.94  -4.45c   +47.6870
iter: 151 12:50:10  -804.153803c -6.70  -4.41c   +47.7103
iter: 152 12:52:18  -804.154278c -6.62  -4.41c   +47.6933
iter: 153 12:54:27  -804.154470c -7.23  -4.38c   +47.6798
iter: 154 12:56:35  -804.154385c -6.30  -4.38c   +47.7103
iter: 155 12:58:44  -804.155216c -6.05  -4.23c   +47.6379
iter: 156 13:00:52  -804.155274c -6.60  -4.31c   +47.6515
iter: 157 13:03:00  -804.155551c -5.87  -4.20c   +47.5920
iter: 158 13:05:08  -804.156637c -5.38  -4.18c   +47.4937
iter: 159 13:07:17  -804.155679c -5.51  -3.95    +47.5981
iter: 160 13:09:25  -804.155979c -6.08  -4.12c   +47.5767
iter: 161 13:11:34  -804.156392c -6.53  -4.14c   +47.5509
iter: 162 13:13:42  -804.156686c -6.54  -4.25c   +47.5230
iter: 163 13:15:50  -804.157217c -6.20  -4.20c   +47.4856
iter: 164 13:17:58  -804.157358c -6.91  -4.09c   +47.4841
iter: 165 13:20:07  -804.158060c -6.49  -4.16c   +47.4588
iter: 166 13:22:15  -804.157140c -6.31  -4.07c   +47.5056
iter: 167 13:24:23  -804.157588c -6.79  -4.12c   +47.4991
iter: 168 13:26:32  -804.157614c -6.29  -4.09c   +47.4765
iter: 169 13:28:40  -804.157953c -6.66  -3.92    +47.4622
iter: 170 13:30:48  -804.158533c -6.37  -4.09c   +47.4271
iter: 171 13:32:56  -804.158440c -6.64  -4.05c   +47.4219
iter: 172 13:35:04  -804.158932c -6.13  -4.02c   +47.3974
iter: 173 13:37:13  -804.159375c -6.55  -3.97    +47.3891
iter: 174 13:39:18  -804.159452c -6.44  -4.04c   +47.3654
iter: 175 13:41:26  -804.159545c -6.79  -4.06c   +47.3626
iter: 176 13:43:34  -804.160219c -6.43  -4.02c   +47.3353
iter: 177 13:45:42  -804.160039c -6.95  -3.95    +47.3454
iter: 178 13:47:50  -804.160518c -6.31  -3.97    +47.3164
iter: 179 13:49:59  -804.161181c -6.48  -3.95    +47.3090
iter: 180 13:52:08  -804.161139c -6.05  -3.96    +47.2763
iter: 181 13:54:17  -804.161323c -6.30  -3.88    +47.2620
iter: 182 13:56:25  -804.161976c -6.21  -3.96    +47.2459
iter: 183 13:58:34  -804.162318c -6.54  -3.95    +47.2344
iter: 184 14:00:43  -804.162768c -6.17  -4.05c   +47.2289
iter: 185 14:02:51  -804.163725c -6.24  -3.78    +47.2272
iter: 186 14:04:59  -804.163891c -5.96  -3.85    +47.1842
iter: 187 14:06:58  -804.163662c -6.22  -3.78    +47.1668
iter: 188 14:09:01  -804.164359c -6.31  -3.93    +47.1371
iter: 189 14:11:02  -804.164432c -6.14  -3.97    +47.1399
iter: 190 14:13:02  -804.165926c -5.91  -3.80    +47.1266
iter: 191 14:15:01  -804.166427c -6.24  -3.77    +47.1403
iter: 192 14:17:00  -804.166440c -5.97  -3.80    +47.1030
iter: 193 14:19:00  -804.166938c -6.26  -3.80    +47.0789
iter: 194 14:20:59  -804.167515c -5.98  -3.92    +47.0627
iter: 195 14:22:57  -804.167408c -5.89  -3.72    +47.0532
iter: 196 14:24:57  -804.169211c -5.94  -3.76    +47.0442
iter: 197 14:26:56  -804.169231c -6.37  -3.81    +47.0471
iter: 198 14:28:54  -804.170292c -6.13  -3.85    +47.0172
iter: 199 14:30:53  -804.169744c -5.93  -3.87    +47.0424
iter: 200 14:32:52  -804.171820c -5.50  -3.65    +46.9925
iter: 201 14:34:50  -804.169851c -6.17  -3.64    +46.9985
iter: 202 14:36:49  -804.171356c -5.87  -3.85    +47.0091
iter: 203 14:38:47  -804.171865c -5.80  -3.71    +46.9757
iter: 204 14:40:46  -804.172314c -6.06  -3.79    +46.9568
iter: 205 14:42:45  -804.173614c -5.83  -3.85    +46.9240
iter: 206 14:44:43  -804.174035c -5.95  -3.80    +46.9047
iter: 207 14:46:42  -804.174972c -6.15  -3.85    +46.8873
iter: 208 14:48:40  -804.171843c -5.65  -3.87    +46.9551
iter: 209 14:50:38  -804.171802c -5.72  -3.80    +46.9967
iter: 210 14:52:37  -804.174896c -5.73  -3.78    +46.9355
iter: 211 14:54:48  -804.171022c -5.17  -3.72    +47.0457
iter: 212 14:57:22  -804.169597c -5.84  -3.75    +47.0211
iter: 213 14:59:23  -804.171097c -6.12  -3.96    +46.9877
iter: 214 15:01:22  -804.171213c -6.62  -3.99    +46.9766
iter: 215 15:03:21  -804.172084c -6.08  -4.09c   +46.9412
iter: 216 15:05:21  -804.173270c -5.89  -4.19c   +46.9194
iter: 217 15:07:20  -804.174876c -5.76  -4.18c   +46.8908
iter: 218 15:09:19  -804.172800c -6.12  -4.11c   +46.9289
iter: 219 15:11:18  -804.166796c -4.81  -4.31c   +47.1042
iter: 220 15:13:18  -804.163417c -4.69  -3.99    +47.2500
iter: 221 15:15:16  -804.163737c -4.84  -3.80    +47.3503
iter: 222 15:17:15  -804.163421c -5.83  -3.59    +47.3326
iter: 223 15:19:14  -804.162907c -6.17  -3.62    +47.3107
iter: 224 15:21:12  -804.161578c -6.15  -3.65    +47.2970
iter: 225 15:23:11  -804.160934c -6.43  -3.76    +47.3036
iter: 226 15:25:10  -804.161533c -5.37  -3.82    +47.2920
iter: 227 15:27:08  -804.159763c -6.10  -3.87    +47.2980
iter: 228 15:29:07  -804.160712c -6.25  -4.06c   +47.2696
iter: 229 15:31:06  -804.160967c -6.34  -4.21c   +47.2380
iter: 230 15:33:04  -804.161362c -6.38  -4.30c   +47.2094
iter: 231 15:35:02  -804.161845c -6.04  -4.39c   +47.1744
iter: 232 15:37:00  -804.162414c -6.19  -4.37c   +47.1447
iter: 233 15:38:59  -804.161548c -6.64  -4.33c   +47.1768
iter: 234 15:40:57  -804.159800c -5.38  -4.44c   +47.2981
iter: 235 15:42:56  -804.158711c -5.38  -4.25c   +47.3816
iter: 236 15:44:54  -804.158354c -5.11  -4.05c   +47.4884
iter: 237 15:46:53  -804.158473c -6.11  -3.80    +47.4765
iter: 238 15:48:51  -804.158404c -6.53  -3.80    +47.4723
iter: 239 15:50:50  -804.158386c -6.81  -3.81    +47.4656
iter: 240 15:52:48  -804.158138c -6.85  -3.81    +47.4627
iter: 241 15:54:46  -804.157832c -5.38  -3.86    +47.4610
iter: 242 15:56:44  -804.157145c -6.01  -3.60    +47.4544
iter: 243 15:58:42  -804.157757c -6.47  -4.20c   +47.4235
iter: 244 16:00:40  -804.157366c -6.59  -4.21c   +47.4176
iter: 245 16:02:46  -804.157648c -6.46  -4.09c   +47.3826
iter: 246 16:05:23  -804.158031c -6.33  -4.31c   +47.3471
iter: 247 16:07:23  -804.158296c -6.62  -4.31c   +47.3368
iter: 248 16:09:21  -804.158106c -6.62  -4.25c   +47.3200
iter: 249 16:11:20  -804.158297c -6.73  -4.53c   +47.2976
iter: 250 16:13:18  -804.158157c -6.96  -4.47c   +47.3210
iter: 251 16:15:17  -804.157867c -6.43  -4.53c   +47.3586
iter: 252 16:17:15  -804.158430c -6.36  -4.48c   +47.3030
iter: 253 16:19:13  -804.157158c -5.53  -4.58c   +47.4255
iter: 254 16:21:11  -804.156918c -5.92  -4.26c   +47.4600
iter: 255 16:23:10  -804.156670c -5.90  -4.14c   +47.4897
iter: 256 16:25:08  -804.156686c -5.91  -4.04c   +47.5053
iter: 257 16:27:06  -804.156766c -6.52  -3.98    +47.4976
iter: 258 16:29:04  -804.157116c -6.19  -3.98    +47.4764
iter: 259 16:31:02  -804.156808c -6.60  -3.91    +47.4921
iter: 260 16:33:01  -804.157357c -6.56  -3.94    +47.4847
iter: 261 16:34:58  -804.157584c -5.38  -3.84    +47.4798
iter: 262 16:36:56  -804.156497c -6.01  -3.64    +47.4661
iter: 263 16:38:55  -804.156924c -6.34  -4.15c   +47.4508
iter: 264 16:40:53  -804.156594c -6.65  -4.09c   +47.4376
iter: 265 16:42:50  -804.156780c -6.47  -4.32c   +47.4083
iter: 266 16:44:49  -804.156775c -6.67  -4.22c   +47.4053
iter: 267 16:46:47  -804.157092c -6.72  -4.36c   +47.3927
iter: 268 16:48:45  -804.156876c -7.00  -4.30c   +47.3857
iter: 269 16:50:43  -804.156992c -6.84  -4.36c   +47.3711
iter: 270 16:52:41  -804.157250c -6.84  -4.39c   +47.3562
iter: 271 16:54:39  -804.157143c -7.49c -4.41c   +47.3553

Converged after 271 iterations.

Dipole moment: (29.125002, 16.731091, 7.605293) |e|*Ang

Total magnetic moment: (0.000000, 0.000000, 47.355287)
Local magnetic moments:
   0 Cr ( 0.000000,  0.000000, -1.797793)
   1 Al ( 0.000000,  0.000000, -0.028342)
   2 Cr ( 0.000000,  0.000000,  1.653560)
   3 Co ( 0.000000,  0.000000,  0.930944)
   4 Al ( 0.000000,  0.000000, -0.018314)
   5 Ni ( 0.000000,  0.000000,  0.194852)
   6 Co ( 0.000000,  0.000000,  1.160203)
   7 Al ( 0.000000,  0.000000, -0.023369)
   8 Al ( 0.000000,  0.000000, -0.048988)
   9 Fe ( 0.000000,  0.000000,  2.127725)
  10 Fe ( 0.000000,  0.000000,  2.114134)
  11 Fe ( 0.000000,  0.000000,  1.964275)
  12 Ni ( 0.000000,  0.000000,  0.171160)
  13 Cr ( 0.000000,  0.000000, -0.817752)
  14 Co ( 0.000000,  0.000000,  1.009197)
  15 Fe ( 0.000000,  0.000000,  2.077791)
  16 Ni ( 0.000000,  0.000000,  0.183437)
  17 Co ( 0.000000,  0.000000,  0.514793)
  18 Al ( 0.000000,  0.000000, -0.023326)
  19 Ni ( 0.000000,  0.000000,  0.259071)
  20 Co ( 0.000000,  0.000000,  1.052244)
  21 Al ( 0.000000,  0.000000,  0.005165)
  22 Cr ( 0.000000,  0.000000, -1.826942)
  23 Ni ( 0.000000,  0.000000,  0.158200)
  24 Cr ( 0.000000,  0.000000,  0.376573)
  25 Fe ( 0.000000,  0.000000,  1.867033)
  26 Fe ( 0.000000,  0.000000,  2.039379)
  27 Cr ( 0.000000,  0.000000, -1.899847)
  28 Fe ( 0.000000,  0.000000,  2.280676)
  29 Co ( 0.000000,  0.000000,  0.801560)
  30 Cr ( 0.000000,  0.000000, -1.746027)
  31 Fe ( 0.000000,  0.000000,  2.355296)
  32 Ni ( 0.000000,  0.000000,  0.238188)
  33 Co ( 0.000000,  0.000000,  1.186528)
  34 Ni ( 0.000000,  0.000000,  0.074145)
  35 Cr ( 0.000000,  0.000000,  1.031169)
  36 Fe ( 0.000000,  0.000000,  1.983584)
  37 Fe ( 0.000000,  0.000000,  1.463097)
  38 Cr ( 0.000000,  0.000000, -1.784393)
  39 Al ( 0.000000,  0.000000, -0.017288)
  40 Al ( 0.000000,  0.000000, -0.007390)
  41 Co ( 0.000000,  0.000000,  0.520775)
  42 Al ( 0.000000,  0.000000, -0.012226)
  43 Cr ( 0.000000,  0.000000,  2.326464)
  44 Cr ( 0.000000,  0.000000, -2.181151)
  45 Al ( 0.000000,  0.000000, -0.014687)
  46 Al ( 0.000000,  0.000000, -0.020589)
  47 Co ( 0.000000,  0.000000,  0.938549)
  48 Fe ( 0.000000,  0.000000,  1.688347)
  49 Ni ( 0.000000,  0.000000,  0.222350)
  50 Cr ( 0.000000,  0.000000, -2.018742)
  51 Cr ( 0.000000,  0.000000,  1.289484)
  52 Ni ( 0.000000,  0.000000,  0.135880)
  53 Co ( 0.000000,  0.000000,  0.844799)
  54 Ni ( 0.000000,  0.000000,  0.187810)
  55 Al ( 0.000000,  0.000000,  0.000500)
  56 Ni ( 0.000000,  0.000000,  0.102141)
  57 Ni ( 0.000000,  0.000000,  0.163840)
  58 Co ( 0.000000,  0.000000,  1.057160)
  59 Cr ( 0.000000,  0.000000, -1.324383)
  60 Fe ( 0.000000,  0.000000,  1.849003)
  61 Co ( 0.000000,  0.000000,  0.842176)
  62 Co ( 0.000000,  0.000000,  1.009058)
  63 Al ( 0.000000,  0.000000, -0.032728)
  64 Cr ( 0.000000,  0.000000, -1.896701)
  65 Ni ( 0.000000,  0.000000,  0.061727)
  66 Co ( 0.000000,  0.000000,  0.487200)
  67 Ni ( 0.000000,  0.000000,  0.019807)
  68 Ni ( 0.000000,  0.000000,  0.094883)
  69 Al ( 0.000000,  0.000000,  0.000020)
  70 Cr ( 0.000000,  0.000000,  1.349967)
  71 Ni ( 0.000000,  0.000000,  0.061384)
  72 Al ( 0.000000,  0.000000, -0.021742)
  73 Cr ( 0.000000,  0.000000, -1.553338)
  74 Fe ( 0.000000,  0.000000,  2.254476)
  75 Fe ( 0.000000,  0.000000,  2.171956)
  76 Ni ( 0.000000,  0.000000,  0.232353)
  77 Cr ( 0.000000,  0.000000, -2.140776)
  78 Ni ( 0.000000,  0.000000,  0.128104)
  79 Co ( 0.000000,  0.000000,  1.211475)
  80 Co ( 0.000000,  0.000000,  0.187054)
  81 Fe ( 0.000000,  0.000000,  1.900648)
  82 Al ( 0.000000,  0.000000,  0.000187)
  83 Cr ( 0.000000,  0.000000,  0.131124)
  84 Fe ( 0.000000,  0.000000,  1.926618)
  85 Al ( 0.000000,  0.000000, -0.039820)
  86 Fe ( 0.000000,  0.000000,  2.090004)
  87 Fe ( 0.000000,  0.000000,  2.482092)
  88 Cr ( 0.000000,  0.000000, -2.030785)
  89 Al ( 0.000000,  0.000000, -0.040760)
  90 Co ( 0.000000,  0.000000,  1.082511)
  91 Fe ( 0.000000,  0.000000,  2.274128)
  92 Co ( 0.000000,  0.000000,  1.155857)
  93 Co ( 0.000000,  0.000000,  1.334631)
  94 Fe ( 0.000000,  0.000000,  2.148527)
  95 Cr ( 0.000000,  0.000000, -1.703611)
  96 Ni ( 0.000000,  0.000000,  0.265841)
  97 Ni ( 0.000000,  0.000000,  0.228785)
  98 Ni ( 0.000000,  0.000000,  0.326316)
  99 Fe ( 0.000000,  0.000000,  2.418084)
 100 Al ( 0.000000,  0.000000, -0.036186)
 101 Ni ( 0.000000,  0.000000,  0.196727)
 102 Co ( 0.000000,  0.000000,  0.811904)
 103 Al ( 0.000000,  0.000000, -0.000790)
 104 Cr ( 0.000000,  0.000000, -1.247716)
 105 Al ( 0.000000,  0.000000, -0.022148)
 106 Fe ( 0.000000,  0.000000,  2.293229)
 107 Co ( 0.000000,  0.000000,  0.901264)

Energy contributions relative to reference atoms: (reference = -3235165.067515)

Kinetic:       +245.094051
Potential:     -235.961259
External:        +0.000000
XC:            -842.468895
Entropy (-ST):   -4.179049
Local:          +31.268485
--------------------------
Free energy:   -806.246667
Extrapolated:  -804.157143

Spin contamination: 31.096600 electrons
Showing only first 2 kpts
                      Up                     Down
 Kpt  Band  Eigenvalues  Occupancy  Eigenvalues  Occupancy
  0   454      9.08196    0.98863      9.82346    0.04976
  0   455      9.09349    0.98726      9.83529    0.04446
  0   456      9.10533    0.98568      9.84561    0.04027
  0   457      9.10994    0.98502      9.86108    0.03470

  1   454      9.07787    0.98908      9.83214    0.04582
  1   455      9.09619    0.98692      9.83346    0.04524
  1   456      9.10959    0.98507      9.86096    0.03474
  1   457      9.12681    0.98231      9.86557    0.03323


Fermi level: 9.52851

No gap

Forces in eV/Ang:
  0 Cr    0.44101   -1.19865   -0.48835
  1 Al   -0.20883    0.41812   -0.55179
  2 Cr   -0.65637   -0.10678   -1.18491
  3 Co    0.21389   -0.03260   -0.25530
  4 Al    0.11396    0.29273    0.48548
  5 Ni    0.33799   -0.49818    0.60080
  6 Co   -0.15266    0.16280    1.10803
  7 Al   -0.58256    0.22504    0.11188
  8 Al   -0.83100    0.06183    1.74623
  9 Fe    0.47302    0.00574    0.52254
 10 Fe    0.20400   -0.42279    0.41739
 11 Fe    0.49348    0.22496    0.26363
 12 Ni   -0.00706   -0.26876    0.00278
 13 Cr    0.33410    0.00690   -0.26456
 14 Co    0.46247    0.18696   -0.39313
 15 Fe    0.39683   -0.17978    0.73988
 16 Ni   -0.41840   -0.08228    0.11637
 17 Co   -0.54491    0.54161    0.37295
 18 Al   -0.99431   -0.39055   -0.22462
 19 Ni   -0.22478   -0.00760   -0.13327
 20 Co    0.43163    0.13388   -0.19274
 21 Al    1.46048    0.23883   -0.74573
 22 Cr   -0.88246   -0.32096    0.26780
 23 Ni    0.06290   -0.03390   -0.05706
 24 Cr   -0.14453    1.19467    0.33009
 25 Fe   -0.54021    0.05073   -0.50371
 26 Fe    0.31287    0.08771   -0.05520
 27 Cr   -0.96800   -0.48630    0.14684
 28 Fe   -0.14047    0.14621    0.26247
 29 Co    0.48825   -0.28194    0.61855
 30 Cr   -1.16476    1.04368   -0.77123
 31 Fe    0.07407   -0.69276    0.51708
 32 Ni   -0.02972   -0.09971   -0.74124
 33 Co   -0.10323    0.41223    0.48607
 34 Ni    0.30239    0.40804    0.11307
 35 Cr    0.98425   -0.56866    0.51223
 36 Fe   -0.21295   -0.43287   -0.11059
 37 Fe   -0.06814    0.58669   -0.14780
 38 Cr    0.75684    0.40445    0.50456
 39 Al    1.14573    0.80270    0.08846
 40 Al    2.27460    0.67142   -0.59905
 41 Co   -0.10035    0.20787   -0.71681
 42 Al   -1.44782    1.28090   -0.60651
 43 Cr   -0.55060   -0.65403   -0.03491
 44 Cr   -1.05385    0.49557   -2.13584
 45 Al   -0.36930    1.47434   -0.53553
 46 Al    0.35591   -0.90943   -0.90853
 47 Co   -0.26774    0.28045   -0.21462
 48 Fe   -0.35481    0.31337    0.39416
 49 Ni    0.22307    0.00611    0.43467
 50 Cr    0.24940    0.56115    1.00592
 51 Cr    0.62379   -0.26722    0.05045
 52 Ni   -0.27198   -0.14030   -0.03498
 53 Co   -0.46121    0.09544    0.42633
 54 Ni   -0.00180   -0.50073   -0.06932
 55 Al   -0.38497   -0.12640    1.45828
 56 Ni    0.21726   -0.45677   -0.91181
 57 Ni    0.23567   -0.38970   -0.10911
 58 Co    0.12347    0.36636   -0.03476
 59 Cr    0.36318   -0.26632    0.85720
 60 Fe   -0.28068   -0.27947   -0.17139
 61 Co   -0.04526   -0.43654    0.40335
 62 Co   -0.23955   -0.32767    0.04140
 63 Al   -0.37007   -0.52403   -0.21467
 64 Cr   -0.06314   -0.17927   -0.18147
 65 Ni   -0.03396   -0.14876   -0.64000
 66 Co   -0.14582   -0.19038   -0.06865
 67 Ni   -0.30750    0.31168   -0.36412
 68 Ni   -0.00912   -0.03154   -0.27878
 69 Al    0.57959   -0.62147   -1.03404
 70 Cr    1.06350   -0.31204    0.84881
 71 Ni   -0.17134    0.34402   -0.23896
 72 Al    0.60301   -0.90900    0.89628
 73 Cr    0.57447    0.89383    0.66335
 74 Fe   -0.48132    0.45596    0.57963
 75 Fe    0.57706    0.29539   -0.23878
 76 Ni   -0.04468    0.81106   -0.21694
 77 Cr   -0.83706    0.41936   -0.51883
 78 Ni   -0.19063    0.50160   -0.03468
 79 Co   -0.74771    0.52803    0.51343
 80 Co   -0.17234    0.04383   -0.48138
 81 Fe   -0.09955    0.79521   -0.49476
 82 Al    1.29404   -0.17396   -0.32306
 83 Cr    0.60087    1.39394    0.80709
 84 Fe    0.28785    0.32925   -0.27697
 85 Al    0.31670    0.18137   -0.47419
 86 Fe    0.05256   -0.61358   -0.13424
 87 Fe   -0.14303   -0.40013   -0.62292
 88 Cr   -0.05047   -0.19671   -0.66417
 89 Al    0.32768    0.17559    0.57587
 90 Co    0.05391    0.05027   -0.64235
 91 Fe    0.12349   -0.11337    0.24515
 92 Co    0.07598    0.36652    0.33037
 93 Co   -0.11697    0.34348   -0.05240
 94 Fe   -0.32738   -0.19336    0.07668
 95 Cr   -0.11783   -0.42765   -0.38729
 96 Ni   -0.01272   -0.02818    0.80265
 97 Ni   -0.54683   -0.48835   -0.00101
 98 Ni   -0.33963   -0.15260   -0.13237
 99 Fe   -0.91270    0.05434   -0.18748
100 Al   -0.46837   -0.58915   -0.23755
101 Ni    0.18808   -0.35621    0.07849
102 Co   -0.01966   -0.66997    0.31214
103 Al   -1.07746   -0.20665    1.26864
104 Cr    0.34767   -1.08517    0.32043
105 Al   -0.23500   -1.55477   -0.28443
106 Fe    0.73092    0.34184   -0.79885
107 Co    0.79971   -1.00347    0.39900

Timing:                              incl.     excl.
-----------------------------------------------------------
Forces:                             19.006    19.006   0.1% |
Hamiltonian:                         0.750     0.007   0.0% |
 Atomic:                             0.343     0.085   0.0% |
  XC Correction:                     0.258     0.258   0.0% |
 Calculate atomic Hamiltonians:      0.257     0.257   0.0% |
 Communicate:                        0.019     0.019   0.0% |
 Initialize Hamiltonian:             0.000     0.000   0.0% |
 Poisson:                            0.001     0.001   0.0% |
 XC 3D grid:                         0.122     0.122   0.0% |
LCAO initialization:               139.123     1.132   0.0% |
 LCAO eigensolver:                  19.298     0.034   0.0% |
  Calculate projections:             0.151     0.151   0.0% |
  DenseAtomicCorrection:             0.227     0.227   0.0% |
  Distribute overlap matrix:         1.244     1.244   0.0% |
  Orbital Layouts:                  12.330    12.330   0.0% |
  Potential matrix:                  4.063     4.063   0.0% |
  Sum over cells:                    1.248     1.248   0.0% |
 LCAO to grid:                     116.555   116.555   0.3% |
 Set positions (LCAO WFS):           2.138     1.438   0.0% |
  Basic WFS set positions:           0.003     0.003   0.0% |
  Basis functions set positions:     0.001     0.001   0.0% |
  P tci:                             0.229     0.229   0.0% |
  ST tci:                            0.209     0.209   0.0% |
  mktci:                             0.258     0.258   0.0% |
PWDescriptor:                        0.073     0.073   0.0% |
SCF-cycle:                       34085.370     1.539   0.0% |
 Davidson:                       33548.319  6386.884  18.6% |------|
  Apply H:                         314.998   303.930   0.9% |
   HMM T:                           11.068    11.068   0.0% |
  Subspace diag:                  2425.590     0.378   0.0% |
   calc_h_matrix:                  947.121   528.665   1.5% ||
    Apply H:                       418.456   406.141   1.2% |
     HMM T:                         12.315    12.315   0.0% |
   diagonalize:                    494.789   494.789   1.4% ||
   rotate_psi:                     983.302   983.302   2.9% ||
  calc. matrices:                 4757.260  4250.935  12.4% |----|
   Apply H:                        506.325   484.090   1.4% ||
    HMM T:                          22.234    22.234   0.1% |
  diagonalize:                   17474.006 17474.006  51.0% |-------------------|
  rotate_psi:                     2189.582  2189.582   6.4% |--|
 Density:                          311.846     0.012   0.0% |
  Atomic density matrices:           7.067     7.067   0.0% |
  Mix:                             102.675   102.675   0.3% |
  Multipole moments:                 0.133     0.133   0.0% |
  Pseudo density:                  201.959   201.942   0.6% |
   Symmetrize density:               0.016     0.016   0.0% |
 Hamiltonian:                      214.168     1.526   0.0% |
  Atomic:                           94.785    18.022   0.1% |
   XC Correction:                   76.763    76.763   0.2% |
  Calculate atomic Hamiltonians:    75.915    75.915   0.2% |
  Communicate:                       6.654     6.654   0.0% |
  Poisson:                           0.270     0.270   0.0% |
  XC 3D grid:                       35.019    35.019   0.1% |
 Orthonormalize:                     9.497     0.002   0.0% |
  calc_s_matrix:                     1.131     1.131   0.0% |
  inverse-cholesky:                  0.779     0.779   0.0% |
  projections:                       5.718     5.718   0.0% |
  rotate_psi_s:                      1.868     1.868   0.0% |
Set symmetry:                        0.001     0.001   0.0% |
Other:                               3.192     3.192   0.0% |
-----------------------------------------------------------
Total:                                     34247.515 100.0%

Date: Sat Apr 15 16:54:59 2023
