
  ___ ___ ___ _ _ _  
 |   |   |_  | | | | 
 | | | | | . | | | | 
 |__ |  _|___|_____|  22.8.0
 |___|_|             

User:   c.zeng@d0026
Date:   Thu Apr 20 06:23:37 2023
Arch:   x86_64
Pid:    14247
CWD:    /home/c.zeng/projects/hea-corrosion/hea-mlp/data-curation/surface-mcmc/dft-jobs/55
Python: 3.8.1
gpaw:   /home/c.zeng/usr/installs/gpaw/source/gpaw-22.8.0/gpaw
_gpaw:  /home/c.zeng/usr/installs/gpaw/source/gpaw-22.8.0/
        _gpaw.cpython-38-x86_64-linux-gnu.so
ase:    /home/c.zeng/.local/lib/python3.8/site-packages/ase-3.22.1-py3.8.egg/ase (version 3.22.1)
numpy:  /home/c.zeng/.local/lib/python3.8/site-packages/numpy (version 1.24.2)
scipy:  /home/c.zeng/.local/lib/python3.8/site-packages/scipy (version 1.10.1)
libxc:  4.2.3
units:  Angstrom and eV
cores: 30
OpenMP: False
OMP_NUM_THREADS: 1

Input parameters:
  convergence: {energy: 0.0001}
  kpts: [2 2 1]
  maxiter: 666
  mode: {ecut: 350.0,
         name: pw}
  occupations: {fixmagmom: False,
                name: fermi-dirac,
                width: 0.1}
  poissonsolver: {dipolelayer: xy}
  spinpol: True
  symmetry: {point_group: False}
  xc: PBE

System changes: positions, numbers, cell, pbc, initial_charges, initial_magmoms 

Initialize ...

species:
  Co:
    name: Cobalt
    id: 339d20d5b0b93d2de9531a1bee871d91
    Z: 27.0
    valence: 9
    core: 18
    charge: 0.0
    file: /home/c.zeng/usr/data/gpaw-setups-0.9.20000/Co.PBE.gz
    compensation charges: {type: gauss,
                           rc: 0.32,
                           lmax: 2}
    cutoffs: {filter: 1.87,
              core: 2.55}
    valence states:
      #              energy  rcut
      - 4s(2.00)    -5.469   1.005
      - 4p(0.00)    -1.277   1.058
      - 3d(7.00)    -8.205   1.005
      -  s          21.742   1.005
      -  p          25.934   1.058
      -  d          19.007   1.005
  
    # Using partial waves for Co as LCAO basis

  Cr:
    name: Chromium
    id: 33f258bda2ca9f93018e70263a35547b
    Z: 24.0
    valence: 6
    core: 18
    charge: 0.0
    file: /home/c.zeng/usr/data/gpaw-setups-0.9.20000/Cr.PBE.gz
    compensation charges: {type: gauss,
                           rc: 0.35,
                           lmax: 2}
    cutoffs: {filter: 2.14,
              core: 3.04}
    valence states:
      #              energy  rcut
      - 4s(1.00)    -4.007   1.164
      - 4p(0.00)    -0.989   1.217
      - 3d(5.00)    -2.913   1.111
      -  s          23.205   1.164
      -  p          26.223   1.217
      -  d          24.299   1.111
  
    # Using partial waves for Cr as LCAO basis

  Ni:
    name: Nickel
    id: 0d9f38a9d6e76a2886f07bb4381f212b
    Z: 28.0
    valence: 16
    core: 12
    charge: 0.0
    file: /home/c.zeng/usr/data/gpaw-setups-0.9.20000/Ni.PBE.gz
    compensation charges: {type: gauss,
                           rc: 0.36,
                           lmax: 2}
    cutoffs: {filter: 2.14,
              core: 1.98}
    valence states:
      #              energy  rcut
      - 4s(2.00)    -5.642   1.164
      - 3p(6.00)   -71.394   1.207
      - 4p(0.00)    -1.226   1.207
      - 3d(8.00)    -8.875   1.138
      -  s          21.570   1.164
      -  d          18.337   1.138
  
    # Using partial waves for Ni as LCAO basis

  Fe:
    name: Iron
    id: 37abbd8d6c3c35915a9b583b742da910
    Z: 26.0
    valence: 8
    core: 18
    charge: 0.0
    file: /home/c.zeng/usr/data/gpaw-setups-0.9.20000/Fe.PBE.gz
    compensation charges: {type: gauss,
                           rc: 0.33,
                           lmax: 2}
    cutoffs: {filter: 2.06,
              core: 2.67}
    valence states:
      #              energy  rcut
      - 4s(2.00)    -5.291   1.164
      - 4p(0.00)    -1.326   1.058
      - 3d(6.00)    -7.505   1.058
      -  s          21.920   1.164
      -  p          25.885   1.058
      -  d          19.706   1.058
  
    # Using partial waves for Fe as LCAO basis

  Al:
    name: Aluminium
    id: 0292cae29f5d6237e50f6abdd43a7bdd
    Z: 13.0
    valence: 3
    core: 10
    charge: 0.0
    file: /home/c.zeng/usr/data/gpaw-setups-0.9.20000/Al.PBE.gz
    compensation charges: {type: gauss,
                           rc: 0.34,
                           lmax: 2}
    cutoffs: {filter: 1.91,
              core: 2.36}
    valence states:
      #              energy  rcut
      - 3s(2.00)    -7.753   1.085
      - 3p(1.00)    -2.712   1.085
      -  s          19.459   1.085
      -  p          24.499   1.085
      -  d           0.000   1.085
  
    # Using partial waves for Al as LCAO basis

Reference energy: -4275894.041763  # eV

Spin-polarized calculation.
Magnetic moment: 165.900000

Convergence criteria:
 Maximum [total energy] change in last 3 cyles: 0.0001 eV / electron
 Maximum integral of absolute [dens]ity change: 0.0001 electrons / valence electron
 Maximum integral of absolute [eigenst]ate change: 4e-08 eV^2 / valence electron
 Maximum number of scf [iter]ations: 666
 (Square brackets indicate name in SCF output, whereas a 'c' in
 the SCF output indicates the quantity has converged.)

Symmetries present (total): 1

  ( 1  0  0)
  ( 0  1  0)
  ( 0  0  1)

4 k-points: 2 x 2 x 1 Monkhorst-Pack grid
2 k-points in the irreducible part of the Brillouin zone
       k-points in crystal coordinates                weights
   0:     0.25000000   -0.25000000    0.00000000          2/4
   1:     0.25000000    0.25000000    0.00000000          2/4

Wave functions: Plane wave expansion
  Cutoff energy: 350.000 eV
  Number of coefficients (min, max): 58901, 58943
  Pulay-stress correction: 0.000000 eV/Ang^3 (de/decut=0.000000)
  Using FFTW library
  ScaLapack parameters: grid=1x1, blocksize=None
  Wavefunction extrapolation:
    Improved wavefunction reuse through dual PAW basis 

Occupation numbers: Fermi-Dirac:
  width: 0.1000  # eV
 

Eigensolver
   Davidson(niter=2) 

Densities:
  Coarse grid: 54*54*128 grid
  Fine grid: 108*108*256 grid
  Total Charge: 0.000000 

Density mixing:
  Method: difference
  Backend: pulay
  Linear mixing parameter: 0.05
  old densities: 5
  Damping of long wavelength oscillations: 50 

Hamiltonian:
  XC and Coulomb potentials evaluated on a 108*108*256 grid
  Using the PBE Exchange-Correlation functional
  External potential:
    NoExternalPotential
 

XC parameters: PBE with 2 nearest neighbor stencil

Memory estimate:
  Process memory now: 370.07 MiB
  Calculator: 2335.53 MiB
    Density: 17.84 MiB
      Arrays: 6.75 MiB
      Localized functions: 8.39 MiB
      Mixer: 2.70 MiB
    Hamiltonian: 5.27 MiB
      Arrays: 5.01 MiB
      XC: 0.00 MiB
      Poisson: 0.00 MiB
      vbar: 0.25 MiB
    Wavefunctions: 2312.43 MiB
      Arrays psit_nG: 1458.82 MiB
      Eigensolver: 834.29 MiB
      Projections: 3.66 MiB
      Projectors: 1.14 MiB
      PW-descriptor: 14.51 MiB

Total number of cores used: 30
Parallelization over k-points: 2
Domain decomposition: 1 x 3 x 5

Number of atoms: 125
Number of atomic orbitals: 1185
Number of bands in calculation: 811
Number of valence electrons: 1179
Bands to converge: occupied

... initialized

Initializing position-dependent things.

Density initialized from atomic densities
Creating initial wave functions:
  811 bands from LCAO basis set

                                                                  
                                                                  
                                                                  
                                                                  
                             Cr                       Cr          
                               Ni    Co    Ni    Cr    Ni         
                          Co     Ni    Cr    Cr    Co             
                                Fe    Co    Fe    Al    Cr        
                Co    Cr   NCr   CCo    CAl   Cr    Ni            
           Ni     Co   FCo   FFe   FCo   Cr     Ni   Ni           
             Cr    Co     CoCo    Ni    Fe     Fe                 
                  Fe    NNi   CCr   FFe   CNi   ANi               
              Fe   NNi   FNi   CCFe  CNCr  NNi   Fe               
               Co    Fe    Cr    Ni     Fe                        
                          Fe    NFe   CFe   CNi   FNi   Al        
           Fe    Cr   ACr  CCCo   FCr   CCo   CFe   Ni            
            Ni    Fe    Fe    Fe    Ni                            
                       Co    Cr    Al    Cr    Cr                 
       Ni    Cr   CCr    Co    NFe   Fe    Ni                     
              Cr    Co    Cr     Cr    Co                         
                                                                  
                                                                  
                                                                  
                                                                  
                                                                  

Positions:
   0 Co    12.486468    1.462777   10.528605    ( 0.0000,  0.0000,  1.5000)
   1 Cr     2.491286    1.427324   10.624355    ( 0.0000,  0.0000,  2.0000)
   2 Co     4.996443    1.433664   10.615695    ( 0.0000,  0.0000,  2.1000)
   3 Cr     7.497692    1.450585   10.618513    ( 0.0000,  0.0000,  2.0000)
   4 Cr     9.980354    1.438381   10.617016    ( 0.0000,  0.0000,  2.1000)
   5 Ni    13.725570    3.599047   10.613993    ( 0.0000,  0.0000,  2.1000)
   6 Co     3.721032    3.570702   10.596763    ( 0.0000,  0.0000,  1.5000)
   7 Co     6.265421    3.568181   10.621801    ( 0.0000,  0.0000,  2.0000)
   8 Ni     8.741341    3.586865   10.615549    ( 0.0000,  0.0000,  2.0000)
   9 Fe    11.233064    3.610428   10.573163    ( 0.0000,  0.0000,  0.0000)
  10 Cr    14.927431    5.761281   10.554435    ( 0.0000,  0.0000,  1.5000)
  11 Co     5.002416    5.751707   10.362584    ( 0.0000,  0.0000,  0.0000)
  12 Cr     7.528897    5.754942   10.601782    ( 0.0000,  0.0000,  1.5000)
  13 Al     9.984614    5.751426   10.596909    ( 0.0000,  0.0000,  2.1000)
  14 Cr    12.467830    5.774643   10.569993    ( 0.0000,  0.0000,  0.0000)
  15 Ni    16.185528    7.952943   10.517715    ( 0.0000,  0.0000,  0.0000)
  16 Co     6.281890    7.953062   10.585785    ( 0.0000,  0.0000,  2.0000)
  17 Cr     8.751632    7.929564   10.589659    ( 0.0000,  0.0000,  2.0000)
  18 Co    11.232798    7.933199   10.565472    ( 0.0000,  0.0000,  0.0000)
  19 Co    13.711755    7.928211   10.595530    ( 0.0000,  0.0000,  2.0000)
  20 Al    17.465073   10.103493   10.559367    ( 0.0000,  0.0000,  2.1000)
  21 Ni     7.524528   10.087482   10.585491    ( 0.0000,  0.0000,  2.1000)
  22 Cr     9.999339   10.092837   10.628699    ( 0.0000,  0.0000,  2.1000)
  23 Co    12.492524   10.103136   10.590364    ( 0.0000,  0.0000,  1.5000)
  24 Fe    14.967562   10.103591   10.598553    ( 0.0000,  0.0000,  1.5000)
  25 Ni     0.039549    0.061487   12.592509    ( 0.0000,  0.0000,  0.0000)
  26 Cr     2.543839    0.004196   12.633574    ( 0.0000,  0.0000,  2.1000)
  27 Cr     5.007959    0.016292   12.619485    ( 0.0000,  0.0000,  1.5000)
  28 Al    13.725047   10.821613   12.614847    ( 0.0000,  0.0000,  1.5000)
  29 Fe     9.941746    0.020015   12.634836    ( 0.0000,  0.0000,  2.1000)
  30 Ni     1.280557    2.197634   12.622449    ( 0.0000,  0.0000,  2.0000)
  31 Fe     3.757003    2.159238   12.617870    ( 0.0000,  0.0000,  0.0000)
  32 Fe     6.259391    2.150539   12.632283    ( 0.0000,  0.0000,  0.0000)
  33 Fe     8.729061    2.160536   12.640942    ( 0.0000,  0.0000,  1.5000)
  34 Ni    11.206426    2.199527   12.600112    ( 0.0000,  0.0000,  0.0000)
  35 Fe    14.980028    4.321894   12.623066    ( 0.0000,  0.0000,  1.5000)
  36 Al     5.000637    4.306532   12.605865    ( 0.0000,  0.0000,  0.0000)
  37 Cr     7.511972    4.316766   12.613115    ( 0.0000,  0.0000,  2.0000)
  38 Fe     9.977581    4.334444   12.603575    ( 0.0000,  0.0000,  2.0000)
  39 Co    12.466237    4.352219   12.609857    ( 0.0000,  0.0000,  0.0000)
  40 Ni    16.217374    6.438246   12.562775    ( 0.0000,  0.0000,  2.1000)
  41 Fe     6.249088    6.441384   12.586551    ( 0.0000,  0.0000,  2.1000)
  42 Fe     8.734867    6.480104   12.598380    ( 0.0000,  0.0000,  2.1000)
  43 Fe    11.217541    6.497393   12.580210    ( 0.0000,  0.0000,  1.5000)
  44 Ni    13.747589    6.470530   12.591629    ( 0.0000,  0.0000,  0.0000)
  45 Fe     4.965631    8.600697   12.619661    ( 0.0000,  0.0000,  0.0000)
  46 Cr     7.527050    8.647229   12.603517    ( 0.0000,  0.0000,  2.0000)
  47 Co     9.992787    8.639093   12.602137    ( 0.0000,  0.0000,  0.0000)
  48 Ni    12.461146    8.678950   12.599202    ( 0.0000,  0.0000,  2.1000)
  49 Fe    14.923147    8.662851   12.605102    ( 0.0000,  0.0000,  0.0000)
  50 Fe     1.264555    0.726556   14.701676    ( 0.0000,  0.0000,  2.1000)
  51 Cr     3.750060    0.743838   14.683888    ( 0.0000,  0.0000,  1.5000)
  52 Cr     6.237655    0.730758   14.677812    ( 0.0000,  0.0000,  2.1000)
  53 Co     8.726659    0.737641   14.712772    ( 0.0000,  0.0000,  2.0000)
  54 Cr    11.216460    0.725550   14.709367    ( 0.0000,  0.0000,  2.1000)
  55 Co     2.513395    2.883675   14.691579    ( 0.0000,  0.0000,  1.5000)
  56 Fe     4.990849    2.893120   14.684241    ( 0.0000,  0.0000,  2.0000)
  57 Cr     7.488486    2.893629   14.696334    ( 0.0000,  0.0000,  0.0000)
  58 Ni     9.972278    2.890664   14.692489    ( 0.0000,  0.0000,  2.0000)
  59 Fe    12.467576    2.877141   14.691667    ( 0.0000,  0.0000,  0.0000)
  60 Ni     3.758526    5.050346   14.670151    ( 0.0000,  0.0000,  2.0000)
  61 Fe     6.246120    5.038056   14.669564    ( 0.0000,  0.0000,  1.5000)
  62 Co     8.732126    5.049902   14.667773    ( 0.0000,  0.0000,  1.5000)
  63 Ni    11.205583    5.023028   14.695277    ( 0.0000,  0.0000,  1.5000)
  64 Ni    13.756582    5.017781   14.684505    ( 0.0000,  0.0000,  2.0000)
  65 Ni     5.010694    7.182699   14.702674    ( 0.0000,  0.0000,  1.5000)
  66 Co     7.485228    7.189460   14.657588    ( 0.0000,  0.0000,  0.0000)
  67 Fe     9.946463    7.198159   14.653068    ( 0.0000,  0.0000,  2.1000)
  68 Co    12.473405    7.201264   14.677166    ( 0.0000,  0.0000,  0.0000)
  69 Ni    15.017763    7.213900   14.645054    ( 0.0000,  0.0000,  2.1000)
  70 Co     6.251064    9.372532   14.712302    ( 0.0000,  0.0000,  2.1000)
  71 Ni     8.729758    9.372705   14.658410    ( 0.0000,  0.0000,  0.0000)
  72 Fe    11.200962    9.406124   14.647901    ( 0.0000,  0.0000,  1.5000)
  73 Fe    13.749704    9.394894   14.665366    ( 0.0000,  0.0000,  2.0000)
  74 Ni    16.223386    9.399309   14.720785    ( 0.0000,  0.0000,  1.5000)
  75 Cr    12.479408    1.425961   16.738106    ( 0.0000,  0.0000,  1.5000)
  76 Fe     2.490684    1.454436   16.739222    ( 0.0000,  0.0000,  1.5000)
  77 Ni     4.964072    1.458060   16.748615    ( 0.0000,  0.0000,  2.0000)
  78 Ni     7.493576    1.474137   16.738664    ( 0.0000,  0.0000,  1.5000)
  79 Fe     9.990724    1.450314   16.751932    ( 0.0000,  0.0000,  2.0000)
  80 Ni    13.736871    3.597619   16.749671    ( 0.0000,  0.0000,  2.1000)
  81 Fe     3.731782    3.620695   16.737637    ( 0.0000,  0.0000,  2.0000)
  82 Ni     6.217757    3.600962   16.741893    ( 0.0000,  0.0000,  0.0000)
  83 Cr     8.739843    3.608427   16.720025    ( 0.0000,  0.0000,  2.1000)
  84 Fe    11.236517    3.591755   16.778291    ( 0.0000,  0.0000,  2.0000)
  85 Ni    14.987780    5.779273   16.714506    ( 0.0000,  0.0000,  0.0000)
  86 Fe     4.996827    5.757928   16.729565    ( 0.0000,  0.0000,  1.5000)
  87 Fe     7.493878    5.760427   16.738488    ( 0.0000,  0.0000,  2.0000)
  88 Fe     9.975457    5.766269   16.736932    ( 0.0000,  0.0000,  2.0000)
  89 Cr    12.478104    5.731140   16.775473    ( 0.0000,  0.0000,  1.5000)
  90 Ni    16.238159    7.937775   16.730328    ( 0.0000,  0.0000,  2.0000)
  91 Ni     6.231444    7.940404   16.765522    ( 0.0000,  0.0000,  0.0000)
  92 Cr     8.728840    7.936931   16.735611    ( 0.0000,  0.0000,  0.0000)
  93 Co    11.192557    7.913866   16.746149    ( 0.0000,  0.0000,  0.0000)
  94 Cr    13.768802    7.904897   16.753722    ( 0.0000,  0.0000,  1.5000)
  95 Cr    17.466742   10.100767   16.763996    ( 0.0000,  0.0000,  2.0000)
  96 Fe     7.483726   10.114128   16.752695    ( 0.0000,  0.0000,  0.0000)
  97 Co     9.946168   10.127316   16.729242    ( 0.0000,  0.0000,  0.0000)
  98 Fe    12.492406   10.089342   16.764671    ( 0.0000,  0.0000,  0.0000)
  99 Al    15.005292   10.118575   16.753076    ( 0.0000,  0.0000,  2.0000)
 100 Cr     6.250979   10.817826   18.755486    ( 0.0000,  0.0000,  2.1000)
 101 Cr     2.491992    0.007607   18.757365    ( 0.0000,  0.0000,  2.0000)
 102 Co     4.959039    0.011376   18.813253    ( 0.0000,  0.0000,  1.5000)
 103 Co     7.505721    0.033872   18.830425    ( 0.0000,  0.0000,  0.0000)
 104 Cr    16.226478   10.816744   18.766934    ( 0.0000,  0.0000,  1.5000)
 105 Ni     1.262456    2.149912   18.735438    ( 0.0000,  0.0000,  2.1000)
 106 Co     3.733330    2.172036   18.731769    ( 0.0000,  0.0000,  2.1000)
 107 Co     6.235561    2.176310   18.762208    ( 0.0000,  0.0000,  0.0000)
 108 Fe     8.740232    2.176277   18.742160    ( 0.0000,  0.0000,  2.0000)
 109 Co    11.216255    2.130427   18.758333    ( 0.0000,  0.0000,  1.5000)
 110 Co     2.521812    4.343315   18.747649    ( 0.0000,  0.0000,  2.1000)
 111 Cr     4.991012    4.329273   18.757688    ( 0.0000,  0.0000,  0.0000)
 112 Cr     7.490880    4.334898   18.725399    ( 0.0000,  0.0000,  2.1000)
 113 Co     9.943770    4.322230   18.730184    ( 0.0000,  0.0000,  2.0000)
 114 Al    12.464525    4.326265   18.943816    ( 0.0000,  0.0000,  0.0000)
 115 Co    16.224051    6.495359   18.723022    ( 0.0000,  0.0000,  2.0000)
 116 Co     6.226814    6.495348   18.761650    ( 0.0000,  0.0000,  0.0000)
 117 Ni     8.730619    6.495759   18.735203    ( 0.0000,  0.0000,  1.5000)
 118 Cr    11.207915    6.503819   18.742835    ( 0.0000,  0.0000,  2.1000)
 119 Cr    13.765796    6.524169   18.782109    ( 0.0000,  0.0000,  0.0000)
 120 Ni    17.450702    8.660601   18.763558    ( 0.0000,  0.0000,  0.0000)
 121 Ni     7.490686    8.670024   18.761621    ( 0.0000,  0.0000,  1.5000)
 122 Co     9.981419    8.673010   18.727630    ( 0.0000,  0.0000,  2.1000)
 123 Ni    12.489241    8.635804   18.838438    ( 0.0000,  0.0000,  0.0000)
 124 Cr    14.988874    8.667774   18.729832    ( 0.0000,  0.0000,  2.1000)

Unit cell:
           periodic     x           y           z      points  spacing
  1. axis:    yes   12.474800    0.000000    0.000000    54     0.2001
  2. axis:    yes    6.246240   10.818800    0.000000    54     0.2003
  3. axis:    no     0.000000    0.000000   29.353100   128     0.2293

  Lengths:  12.474800  12.492476  29.353100
  Angles:   90.000000  90.000000  59.999988

Effective grid spacing dv^(1/3) = 0.2198

     iter     time        total  log10-change:  magmom
                         energy  eigst   dens
iter:   1 06:34:00 -1056.401138                  +165.5126
iter:   2 06:37:40 -2109.701321  +0.40  -1.22    +131.2412
iter:   3 06:41:20 -1389.344330  +0.43  -0.80    +103.7940
iter:   4 06:45:01 -1073.907021  -0.72  -1.00    +69.1425
iter:   5 06:48:39 -1007.834932  -1.33  -1.23    +54.9857
iter:   6 06:52:17  -995.788007  -1.78  -1.33    +49.1029
iter:   7 06:55:59  -992.327447  -1.87  -1.36    +46.4892
iter:   8 06:59:40 -1674.559259  -0.57  -1.37    +46.9064
iter:   9 07:03:22  -994.138581  -0.73  -0.87    +44.6716
iter:  10 07:07:03  -979.710939  -1.62  -1.38    +43.3563
iter:  11 07:10:45  -968.391203  -1.73  -1.44    +44.0471
iter:  12 07:14:26 -1009.106906  -1.53  -1.57    +44.4610
iter:  13 07:18:06  -997.452507  -1.53  -1.37    +45.7508
iter:  14 07:21:48  -971.641040  -1.61  -1.43    +44.7916
iter:  15 07:25:29  -974.111915  -1.77  -1.68    +43.8563
iter:  16 07:29:10  -992.856142  -1.75  -1.60    +44.6256
iter:  17 07:32:51  -964.335771  -2.11  -1.47    +45.1520
iter:  18 07:36:33  -977.917955  -2.18  -1.76    +47.3745
iter:  19 07:40:14  -970.154318  -2.17  -1.59    +47.6030
iter:  20 07:43:55  -965.402010  -2.38  -1.69    +48.8664
iter:  21 07:47:37  -965.142785  -2.50  -1.79    +51.5433
iter:  22 07:51:18  -965.098434  -2.60  -1.84    +53.1088
iter:  23 07:54:57  -964.328194  -2.82  -1.82    +55.6658
iter:  24 07:58:37  -966.767724  -2.62  -1.88    +57.5811
iter:  25 08:02:18  -967.541041  -2.46  -1.85    +59.0674
iter:  26 08:06:00  -993.477653  -2.21  -1.83    +60.2667
iter:  27 08:09:40  -965.820984  -2.33  -1.50    +61.6536
iter:  28 08:13:21  -977.860204  -2.03  -2.02    +63.1987
iter:  29 08:17:02  -966.132398  -2.38  -1.70    +63.0858
iter:  30 08:20:43  -966.115898  -2.92  -2.04    +63.7955
iter:  31 08:24:24  -965.974862  -2.97  -2.10    +65.1964
iter:  32 08:28:05  -968.007881  -2.90  -2.08    +66.3273
iter:  33 08:31:45  -967.160324  -2.95  -2.00    +67.2744
iter:  34 08:35:26  -966.774677  -3.19  -2.04    +68.1365
iter:  35 08:39:07  -967.103285  -2.95  -2.20    +68.6109
iter:  36 08:42:48  -967.488693  -3.01  -2.22    +69.7300
iter:  37 08:46:29  -967.937541  -2.74  -2.20    +70.4141
iter:  38 08:50:10  -968.059594  -3.10  -2.20    +70.6189
iter:  39 08:53:50  -974.851212  -2.55  -2.18    +70.8983
iter:  40 08:57:31  -967.078575  -2.97  -1.80    +71.2300
iter:  41 09:01:12  -967.128221  -3.57  -2.46    +72.1176
iter:  42 09:04:53  -967.209203  -3.78  -2.55    +72.7898
iter:  43 09:08:34  -967.346647  -3.87  -2.57    +73.4647
iter:  44 09:12:15  -967.550826  -3.70  -2.55    +74.0197
iter:  45 09:15:56  -967.903199  -3.80  -2.49    +74.1770
iter:  46 09:19:39  -968.037641  -3.45  -2.38    +74.7479
iter:  47 09:23:21  -967.801909  -3.74  -2.35    +74.9476
iter:  48 09:27:04  -967.744813  -3.37  -2.53    +75.4539
iter:  49 09:30:47  -967.898659  -3.67  -2.44    +75.4135
iter:  50 09:34:31  -967.720873  -3.70  -2.40    +75.0834
iter:  51 09:38:13  -967.753493  -3.61  -2.53    +75.0595
iter:  52 09:41:57  -967.961815  -3.73  -2.61    +75.1522
iter:  53 09:45:38  -968.841505  -3.16  -2.46    +75.0779
iter:  54 09:49:20  -967.641117  -3.65  -2.23    +74.9796
iter:  55 09:53:04  -967.695762  -4.24  -2.87    +74.9424
iter:  56 09:56:47  -967.675094c -4.39  -2.82    +74.9538
iter:  57 10:00:30  -967.682209c -4.51  -2.90    +74.9474
iter:  58 10:04:13  -967.714149c -4.41  -2.99    +75.0393
iter:  59 10:07:55  -967.774266c -4.17  -2.99    +75.2200
iter:  60 10:11:38  -967.803516c -5.03  -2.91    +75.1681
iter:  61 10:15:21  -968.088040  -4.00  -2.80    +75.4285
iter:  62 10:19:04  -967.825881  -4.27  -2.50    +75.1251
iter:  63 10:22:46  -967.872220  -4.62  -2.77    +75.0749
iter:  64 10:26:26  -967.885837c -4.28  -2.70    +75.2609
iter:  65 10:30:09  -968.158013  -3.53  -2.70    +75.3792
iter:  66 10:33:52  -967.836595  -3.71  -2.44    +75.4078
iter:  67 10:37:34  -967.840128  -4.05  -2.76    +75.5166
iter:  68 10:41:17  -967.804604c -4.43  -2.86    +75.7141
iter:  69 10:45:01  -967.850518c -4.32  -3.01    +75.8465
iter:  70 10:48:44  -967.879014c -4.27  -2.87    +75.8445
iter:  71 10:52:27  -967.815146c -4.76  -2.79    +75.9335
iter:  72 10:56:11  -967.845150c -4.77  -3.06    +75.9716
iter:  73 10:59:54  -967.821714c -5.12  -2.96    +75.9946
iter:  74 11:03:37  -967.854717c -4.94  -3.08    +76.0789
iter:  75 11:07:20  -967.849373c -5.26  -2.94    +76.1260
iter:  76 11:11:02  -967.867916c -4.96  -2.97    +76.2337
iter:  77 11:14:45  -967.862412c -5.22  -2.92    +76.2858
iter:  78 11:18:27  -967.893817c -4.86  -2.97    +76.3835
iter:  79 11:22:09  -968.378614  -3.70  -2.86    +76.4071
iter:  80 11:25:51  -967.891543  -3.90  -2.38    +76.4461
iter:  81 11:29:33  -967.847927  -4.52  -2.91    +76.5160
iter:  82 11:33:17  -967.858835c -4.82  -3.32    +76.5656
iter:  83 11:37:00  -967.853320c -5.04  -3.24    +76.6499
iter:  84 11:40:43  -967.853699c -5.40  -3.41    +76.6760
iter:  85 11:44:25  -967.860846c -5.35  -3.48    +76.6923
iter:  86 11:48:08  -967.863273c -5.29  -3.43    +76.7647
iter:  87 11:51:51  -967.861087c -6.17  -3.48    +76.7487
iter:  88 11:55:34  -967.863157c -5.79  -3.51    +76.7419
iter:  89 11:59:17  -967.869183c -5.40  -3.52    +76.7918
iter:  90 12:02:59  -967.865790c -5.87  -3.43    +76.7963
iter:  91 12:06:42  -967.882821c -5.18  -3.66    +76.8559
iter:  92 12:10:25  -967.880443c -5.07  -3.23    +76.8783
iter:  93 12:14:05  -967.874623c -5.51  -3.22    +76.9201
iter:  94 12:17:47  -967.881215c -5.29  -3.59    +76.9554
iter:  95 12:21:31  -967.885814c -5.40  -3.55    +76.9775
iter:  96 12:25:14  -967.892760c -5.21  -3.51    +77.0302
iter:  97 12:28:57  -967.912269c -5.06  -3.45    +77.0578
iter:  98 12:32:39  -967.898321c -5.36  -3.14    +77.0969
iter:  99 12:36:22  -967.904086c -5.37  -3.46    +77.1444
iter: 100 12:40:05  -967.905588c -5.55  -3.44    +77.1566
iter: 101 12:43:48  -967.915575c -5.08  -3.41    +77.1937
iter: 102 12:47:31  -967.918021c -4.90  -3.25    +77.2059
iter: 103 12:51:13  -967.939107c -4.93  -3.20    +77.2146
iter: 104 12:54:56  -967.926484c -4.83  -3.03    +77.2642
iter: 105 12:58:39  -967.922434c -4.92  -3.13    +77.2669
iter: 106 13:02:21  -967.917733c -5.39  -3.31    +77.2295
iter: 107 13:06:03  -967.923913c -5.17  -3.44    +77.2314
iter: 108 13:09:44  -967.923665c -5.68  -3.37    +77.2293
iter: 109 13:13:27  -967.924513c -5.50  -3.32    +77.2108
iter: 110 13:17:10  -967.930073c -5.57  -3.43    +77.2222
iter: 111 13:20:53  -967.928300c -6.11  -3.34    +77.2101
iter: 112 13:24:36  -967.945481c -5.05  -3.39    +77.2136
iter: 113 13:28:19  -967.934572c -5.37  -3.18    +77.2156
iter: 114 13:32:01  -967.933737c -5.40  -3.34    +77.1881
iter: 115 13:35:44  -967.940594c -5.01  -3.45    +77.1959
iter: 116 13:39:27  -967.939906c -5.44  -3.25    +77.1999
iter: 117 13:43:08  -967.939524c -5.40  -3.31    +77.1510
iter: 118 13:46:51  -967.954199c -5.31  -3.47    +77.1511
iter: 119 13:50:33  -967.961406c -5.36  -3.21    +77.1398
iter: 120 13:54:15  -967.959882c -5.20  -3.12    +77.1916
iter: 121 13:57:57  -967.953210c -4.75  -3.18    +77.2473
iter: 122 14:01:41  -967.956646c -4.97  -3.40    +77.1838
iter: 123 14:05:24  -967.954516c -4.85  -3.36    +77.1543
iter: 124 14:09:08  -967.962576c -5.05  -3.39    +77.0599
iter: 125 14:12:53  -967.957466c -5.33  -3.32    +77.0224
iter: 126 14:16:37  -967.964713c -5.29  -3.65    +76.9733
iter: 127 14:20:22  -967.962716c -5.54  -3.34    +76.9896
iter: 128 14:24:06  -967.966966c -5.52  -3.55    +76.8974
iter: 129 14:27:47  -967.964580c -6.23  -3.57    +76.9182
iter: 130 14:31:21  -967.969112c -5.56  -3.72    +76.8433
iter: 131 14:34:54  -967.965206c -5.87  -3.78    +76.9144
iter: 132 14:38:28  -967.966919c -5.99  -3.85    +76.8747
iter: 133 14:42:01  -967.968620c -6.22  -3.99    +76.8394
iter: 134 14:46:12  -967.972349c -5.78  -4.02c   +76.7854
iter: 135 14:49:54  -967.968322c -5.58  -4.03c   +76.8095
iter: 136 14:53:27  -967.964237c -4.93  -3.92    +76.7639
iter: 137 14:56:59  -967.972870c -5.05  -3.56    +76.7138
iter: 138 15:00:31  -967.973463c -5.70  -3.95    +76.6361
iter: 139 15:04:04  -967.978467c -5.55  -3.71    +76.6085
iter: 140 15:07:37  -967.970254c -4.86  -3.78    +76.6110
iter: 141 15:11:10  -967.976965c -5.54  -3.44    +76.5069
iter: 142 15:14:43  -967.972952c -5.68  -3.48    +76.5315
iter: 143 15:18:16  -967.982319c -5.42  -3.54    +76.4302
iter: 144 15:21:49  -967.981375c -6.09  -3.53    +76.4629
iter: 145 15:25:22  -968.067978c -4.49  -3.45    +76.3182
iter: 146 15:28:55  -967.983540c -4.80  -2.83    +76.3707
iter: 147 15:32:28  -967.993275c -4.85  -3.34    +76.3633
iter: 148 15:36:00  -967.985656c -5.38  -3.21    +76.3237
iter: 149 15:39:33  -967.996256c -5.06  -3.73    +76.2536
iter: 150 15:43:19  -967.993328c -5.34  -3.32    +76.2587
iter: 151 15:47:32  -968.000226c -5.29  -3.51    +76.2298
iter: 152 15:51:05  -968.004516c -5.30  -3.64    +76.2110
iter: 153 15:54:37  -968.011543c -5.43  -3.82    +76.1837
iter: 154 15:58:10  -968.016448c -5.62  -3.74    +76.1671
iter: 155 16:01:43  -968.023968c -5.39  -3.64    +76.1435
iter: 156 16:05:15  -968.027153c -5.83  -3.58    +76.1328
iter: 157 16:08:48  -968.040500c -4.97  -3.48    +76.0795
iter: 158 16:12:20  -968.051630c -5.18  -3.48    +76.0685
iter: 159 16:15:52  -968.052279c -5.76  -3.34    +76.0645
iter: 160 16:19:24  -968.067477c -5.19  -3.38    +76.0532
iter: 161 16:22:57  -968.063347c -5.27  -3.21    +76.0544
iter: 162 16:26:29  -968.110821c -4.61  -3.22    +76.0423
iter: 163 16:30:02  -968.071462c -4.63  -2.86    +76.0136
iter: 164 16:33:35  -968.315969  -4.17  -3.03    +75.9150
iter: 165 16:37:06  -968.149992  -3.73  -2.52    +75.9036
iter: 166 16:40:38  -968.074064  -3.99  -2.77    +75.7096
iter: 167 16:44:10  -968.061793c -4.24  -2.95    +75.4794
iter: 168 16:47:42  -968.052507c -4.65  -3.07    +75.5023
iter: 169 16:51:29  -968.067741c -4.62  -3.12    +75.4192
iter: 170 16:55:36  -968.049865c -4.77  -3.07    +75.4091
iter: 171 16:59:08  -968.045357c -5.41  -3.17    +75.3991
iter: 172 17:02:42  -968.052120c -5.16  -3.42    +75.3673
iter: 173 17:06:16  -968.045385c -5.44  -3.18    +75.3502
iter: 174 17:09:49  -968.051386c -5.43  -3.45    +75.3516
iter: 175 17:13:22  -968.045131c -5.21  -3.28    +75.3189
iter: 176 17:16:55  -968.058859c -5.11  -3.63    +75.2928
iter: 177 17:20:29  -968.052680c -5.30  -3.32    +75.2928
iter: 178 17:24:00  -968.054941c -5.32  -3.32    +75.2473
iter: 179 17:27:32  -968.053324c -5.60  -3.50    +75.2399
iter: 180 17:31:04  -968.054866c -5.54  -3.54    +75.1790
iter: 181 17:34:36  -968.054368c -6.29  -3.80    +75.1709
iter: 182 17:38:09  -968.060744c -5.57  -3.83    +75.1263
iter: 183 17:41:42  -968.053081c -5.43  -3.73    +75.2322
iter: 184 17:45:15  -968.056435c -5.21  -3.57    +75.3103
iter: 185 17:48:47  -968.055866c -5.33  -3.36    +75.2022
iter: 186 17:52:33  -968.060828c -5.44  -3.90    +75.1429
iter: 187 17:56:44  -968.057765c -6.17  -3.84    +75.1700
iter: 188 18:00:17  -968.053908c -5.68  -4.00c   +75.1416
iter: 189 18:03:50  -968.058691c -5.92  -3.91    +75.1085
iter: 190 18:07:22  -968.046764c -4.99  -4.12c   +75.2211
iter: 191 18:10:55  -968.043832c -5.29  -3.96    +75.3033
iter: 192 18:14:28  -968.039751c -5.06  -3.71    +75.4301
iter: 193 18:18:01  -968.039583c -5.30  -3.84    +75.4938
iter: 194 18:21:33  -968.040749c -4.95  -3.84    +75.5681
iter: 195 18:25:06  -968.044887c -4.95  -3.82    +75.6024
iter: 196 18:28:39  -968.047456c -5.79  -3.55    +75.5642
iter: 197 18:32:12  -968.044801c -5.05  -3.43    +75.6080
iter: 198 18:35:45  -968.066133c -5.19  -3.40    +75.5597
iter: 199 18:39:19  -968.044167c -5.30  -3.13    +75.5744
iter: 200 18:42:52  -968.063102c -4.68  -3.45    +75.5688
iter: 201 18:46:25  -968.050223c -4.91  -3.02    +75.5690
iter: 202 18:49:58  -968.041532c -5.31  -3.34    +75.5417
iter: 203 18:53:30  -968.041514c -5.72  -3.68    +75.5386
iter: 204 18:57:03  -968.040600c -5.81  -3.64    +75.5427
iter: 205 19:00:35  -968.040773c -6.02  -3.59    +75.5335
iter: 206 19:04:09  -968.041584c -6.24  -3.81    +75.5291
iter: 207 19:07:51  -968.039590c -6.10  -3.77    +75.5245
iter: 208 19:12:08  -968.042140c -6.16  -3.86    +75.5202
iter: 209 19:15:40  -968.041207c -6.05  -3.77    +75.5089
iter: 210 19:19:13  -968.041690c -6.32  -3.89    +75.5000
iter: 211 19:22:46  -968.042506c -5.90  -3.85    +75.4888
iter: 212 19:26:21  -968.041786c -6.10  -3.60    +75.4872
iter: 213 19:29:54  -968.041471c -6.42  -3.94    +75.4701
iter: 214 19:33:27  -968.041743c -6.93  -4.16c   +75.4668
iter: 215 19:37:00  -968.042051c -6.53  -4.22c   +75.4405
iter: 216 19:40:32  -968.040578c -5.76  -4.34c   +75.5185
iter: 217 19:44:02  -968.038847c -5.38  -4.20c   +75.6027
iter: 218 19:47:34  -968.041043c -5.69  -3.89    +75.5164
iter: 219 19:51:06  -968.040608c -7.09  -4.03c   +75.5206
iter: 220 19:54:39  -968.040646c -6.95  -4.13c   +75.5100
iter: 221 19:58:15  -968.039636c -6.36  -4.36c   +75.5333
iter: 222 20:01:47  -968.040869c -6.13  -4.03c   +75.4878
iter: 223 20:05:22  -968.041998c -5.99  -4.54c   +75.4468
iter: 224 20:08:54  -968.041315c -6.99  -4.20c   +75.4693
iter: 225 20:12:32  -968.040308c -6.07  -4.58c   +75.5048
iter: 226 20:16:08  -968.039340c -5.73  -4.56c   +75.5499
iter: 227 20:19:48  -968.038601c -5.54  -4.26c   +75.6002
iter: 228 20:23:28  -968.038356c -5.92  -4.03c   +75.6132
iter: 229 20:27:12  -968.038290c -6.71  -3.97    +75.6001
iter: 230 20:30:57  -968.038719c -6.89  -3.95    +75.5897
iter: 231 20:34:38  -968.038505c -7.26  -3.98    +75.5856
iter: 232 20:38:20  -968.038486c -6.56  -4.02c   +75.5751
iter: 233 20:42:05  -968.048804c -5.34  -3.86    +75.5755
iter: 234 20:45:49  -968.038367c -5.70  -3.32    +75.5664
iter: 235 20:49:31  -968.039922c -6.03  -3.89    +75.5774
iter: 236 20:53:14  -968.039131c -6.23  -3.90    +75.5870
iter: 237 20:56:56  -968.039767c -6.47  -3.98    +75.5938
iter: 238 21:00:37  -968.040470c -6.20  -4.27c   +75.5918
iter: 239 21:04:19  -968.041110c -6.32  -4.01c   +75.5828
iter: 240 21:07:57  -968.041209c -6.78  -3.96    +75.5822
iter: 241 21:11:40  -968.041223c -6.17  -3.87    +75.5922
iter: 242 21:15:23  -968.040342c -6.26  -3.87    +75.5901
iter: 243 21:19:05  -968.040271c -6.21  -3.77    +75.5849
iter: 244 21:22:47  -968.040550c -6.38  -4.17c   +75.5671
iter: 245 21:26:28  -968.040294c -6.41  -4.05c   +75.5495
iter: 246 21:30:06  -968.040701c -6.66  -4.14c   +75.5423
iter: 247 21:33:43  -968.040388c -6.65  -4.16c   +75.5298
iter: 248 21:37:15  -968.040195c -6.94  -4.33c   +75.5196
iter: 249 21:40:51  -968.040942c -6.73  -4.23c   +75.5073
iter: 250 21:44:33  -968.040643c -7.06  -4.22c   +75.5038
iter: 251 21:48:09  -968.040839c -6.94  -4.48c   +75.4928
iter: 252 21:51:39  -968.040885c -7.56c -4.44c   +75.4927

Converged after 252 iterations.

Dipole moment: (46.219549, 23.077288, 0.014119) |e|*Ang

Total magnetic moment: (0.000000, 0.000000, 75.492687)
Local magnetic moments:
   0 Co ( 0.000000,  0.000000,  1.252994)
   1 Cr ( 0.000000,  0.000000,  0.450600)
   2 Co ( 0.000000,  0.000000,  0.837638)
   3 Cr ( 0.000000,  0.000000,  1.239513)
   4 Cr ( 0.000000,  0.000000, -2.366321)
   5 Ni ( 0.000000,  0.000000,  0.325624)
   6 Co ( 0.000000,  0.000000,  1.348422)
   7 Co ( 0.000000,  0.000000,  0.772274)
   8 Ni ( 0.000000,  0.000000,  0.177749)
   9 Fe ( 0.000000,  0.000000,  2.395645)
  10 Cr ( 0.000000,  0.000000,  2.116809)
  11 Co ( 0.000000,  0.000000,  1.608531)
  12 Cr ( 0.000000,  0.000000, -2.058510)
  13 Al ( 0.000000,  0.000000, -0.031437)
  14 Cr ( 0.000000,  0.000000, -2.409342)
  15 Ni ( 0.000000,  0.000000,  0.479732)
  16 Co ( 0.000000,  0.000000,  1.044685)
  17 Cr ( 0.000000,  0.000000,  1.667462)
  18 Co ( 0.000000,  0.000000,  1.201816)
  19 Co ( 0.000000,  0.000000,  1.422129)
  20 Al ( 0.000000,  0.000000, -0.039748)
  21 Ni ( 0.000000,  0.000000,  0.076788)
  22 Cr ( 0.000000,  0.000000, -1.833037)
  23 Co ( 0.000000,  0.000000,  1.108665)
  24 Fe ( 0.000000,  0.000000,  2.251065)
  25 Ni ( 0.000000,  0.000000,  0.324092)
  26 Cr ( 0.000000,  0.000000,  0.209586)
  27 Cr ( 0.000000,  0.000000, -0.104810)
  28 Al ( 0.000000,  0.000000, -0.049339)
  29 Fe ( 0.000000,  0.000000,  2.070458)
  30 Ni ( 0.000000,  0.000000,  0.313565)
  31 Fe ( 0.000000,  0.000000,  1.533067)
  32 Fe ( 0.000000,  0.000000,  1.186416)
  33 Fe ( 0.000000,  0.000000,  1.634899)
  34 Ni ( 0.000000,  0.000000,  0.262046)
  35 Fe ( 0.000000,  0.000000,  2.432858)
  36 Al ( 0.000000,  0.000000, -0.050995)
  37 Cr ( 0.000000,  0.000000, -0.805420)
  38 Fe ( 0.000000,  0.000000,  2.159152)
  39 Co ( 0.000000,  0.000000,  1.377607)
  40 Ni ( 0.000000,  0.000000,  0.486860)
  41 Fe ( 0.000000,  0.000000,  2.005631)
  42 Fe ( 0.000000,  0.000000,  1.478135)
  43 Fe ( 0.000000,  0.000000,  2.266462)
  44 Ni ( 0.000000,  0.000000,  0.466964)
  45 Fe ( 0.000000,  0.000000,  2.498534)
  46 Cr ( 0.000000,  0.000000, -1.182442)
  47 Co ( 0.000000,  0.000000,  0.727792)
  48 Ni ( 0.000000,  0.000000,  0.445717)
  49 Fe ( 0.000000,  0.000000,  2.490465)
  50 Fe ( 0.000000,  0.000000,  1.706164)
  51 Cr ( 0.000000,  0.000000, -0.948958)
  52 Cr ( 0.000000,  0.000000, -0.799431)
  53 Co ( 0.000000,  0.000000,  0.714586)
  54 Cr ( 0.000000,  0.000000, -0.857770)
  55 Co ( 0.000000,  0.000000,  1.227341)
  56 Fe ( 0.000000,  0.000000,  1.945854)
  57 Cr ( 0.000000,  0.000000, -0.912684)
  58 Ni ( 0.000000,  0.000000,  0.105102)
  59 Fe ( 0.000000,  0.000000, -2.180520)
  60 Ni ( 0.000000,  0.000000,  0.454580)
  61 Fe ( 0.000000,  0.000000,  1.933063)
  62 Co ( 0.000000,  0.000000,  1.015690)
  63 Ni ( 0.000000,  0.000000,  0.310612)
  64 Ni ( 0.000000,  0.000000,  0.333775)
  65 Ni ( 0.000000,  0.000000,  0.565459)
  66 Co ( 0.000000,  0.000000,  1.322622)
  67 Fe ( 0.000000,  0.000000,  2.273930)
  68 Co ( 0.000000,  0.000000,  1.330132)
  69 Ni ( 0.000000,  0.000000,  0.514200)
  70 Co ( 0.000000,  0.000000,  1.246374)
  71 Ni ( 0.000000,  0.000000,  0.302377)
  72 Fe ( 0.000000,  0.000000,  2.130343)
  73 Fe ( 0.000000,  0.000000,  2.045139)
  74 Ni ( 0.000000,  0.000000,  0.265018)
  75 Cr ( 0.000000,  0.000000, -0.405581)
  76 Fe ( 0.000000,  0.000000,  2.095836)
  77 Ni ( 0.000000,  0.000000,  0.472827)
  78 Ni ( 0.000000,  0.000000,  0.260455)
  79 Fe ( 0.000000,  0.000000,  1.721304)
  80 Ni ( 0.000000,  0.000000,  0.330944)
  81 Fe ( 0.000000,  0.000000,  2.333442)
  82 Ni ( 0.000000,  0.000000,  0.223468)
  83 Cr ( 0.000000,  0.000000, -0.654199)
  84 Fe ( 0.000000,  0.000000,  1.978121)
  85 Ni ( 0.000000,  0.000000,  0.406926)
  86 Fe ( 0.000000,  0.000000,  2.444775)
  87 Fe ( 0.000000,  0.000000,  2.117540)
  88 Fe ( 0.000000,  0.000000,  2.021203)
  89 Cr ( 0.000000,  0.000000, -0.773200)
  90 Ni ( 0.000000,  0.000000,  0.268198)
  91 Ni ( 0.000000,  0.000000,  0.363003)
  92 Cr ( 0.000000,  0.000000, -1.740378)
  93 Co ( 0.000000,  0.000000,  1.084791)
  94 Cr ( 0.000000,  0.000000, -1.661166)
  95 Cr ( 0.000000,  0.000000,  0.769853)
  96 Fe ( 0.000000,  0.000000,  1.754851)
  97 Co ( 0.000000,  0.000000,  1.304802)
  98 Fe ( 0.000000,  0.000000,  2.435198)
  99 Al ( 0.000000,  0.000000, -0.025858)
 100 Cr ( 0.000000,  0.000000, -1.674646)
 101 Cr ( 0.000000,  0.000000, -2.280212)
 102 Co ( 0.000000,  0.000000,  1.581928)
 103 Co ( 0.000000,  0.000000,  1.260619)
 104 Cr ( 0.000000,  0.000000, -1.890591)
 105 Ni ( 0.000000,  0.000000,  0.227216)
 106 Co ( 0.000000,  0.000000,  1.442233)
 107 Co ( 0.000000,  0.000000,  1.395599)
 108 Fe ( 0.000000,  0.000000,  2.316644)
 109 Co ( 0.000000,  0.000000,  0.888043)
 110 Co ( 0.000000,  0.000000,  1.347647)
 111 Cr ( 0.000000,  0.000000, -2.516067)
 112 Cr ( 0.000000,  0.000000, -1.976752)
 113 Co ( 0.000000,  0.000000,  1.093305)
 114 Al ( 0.000000,  0.000000, -0.023429)
 115 Co ( 0.000000,  0.000000,  1.278737)
 116 Co ( 0.000000,  0.000000,  1.319489)
 117 Ni ( 0.000000,  0.000000,  0.342221)
 118 Cr ( 0.000000,  0.000000, -1.935037)
 119 Cr ( 0.000000,  0.000000,  1.502397)
 120 Ni ( 0.000000,  0.000000,  0.131092)
 121 Ni ( 0.000000,  0.000000,  0.202012)
 122 Co ( 0.000000,  0.000000,  1.408561)
 123 Ni ( 0.000000,  0.000000,  0.309251)
 124 Cr ( 0.000000,  0.000000,  1.508004)

Energy contributions relative to reference atoms: (reference = -4275894.041763)

Kinetic:       +277.110918
Potential:     -312.635854
External:        +0.000000
XC:            -972.556599
Entropy (-ST):   -5.591008
Local:          +42.836154
--------------------------
Free energy:   -970.836389
Extrapolated:  -968.040885

Dipole-layer corrected work functions: 4.950697, 4.931768 eV

Spin contamination: 40.706674 electrons
Showing all kpts
                      Up                     Down
 Kpt  Band  Eigenvalues  Occupancy  Eigenvalues  Occupancy
  0   587     -0.05747    0.99580      0.83592    0.03029
  0   588     -0.04269    0.99513      0.85064    0.02626
  0   589     -0.02875    0.99441      0.86434    0.02297
  0   590     -0.02575    0.99424      0.87151    0.02142

  1   587     -0.01803    0.99378      0.84512    0.02770
  1   588     -0.01385    0.99351      0.84945    0.02656
  1   589      0.00073    0.99250      0.85956    0.02407
  1   590      0.00922    0.99185      0.86685    0.02241


Fermi level: 0.48931

No gap

Forces in eV/Ang:
  0 Co    0.02852    0.20074    0.73457
  1 Cr    0.39033    0.09875    0.32851
  2 Co   -0.22572   -0.01589    0.40874
  3 Cr   -0.65567    0.76167   -0.58153
  4 Cr   -0.39268    0.38739   -0.25573
  5 Ni   -0.00168   -0.22371   -0.00579
  6 Co    0.35571    0.06451   -0.20369
  7 Co   -0.04430    0.21568    0.00609
  8 Ni   -0.21101    0.02286   -0.32025
  9 Fe    0.60627   -0.47547    0.00524
 10 Cr    0.23092    0.13732   -0.53243
 11 Co    0.19416    0.09264    0.93388
 12 Cr   -1.41544    0.27934   -0.22921
 13 Al    0.01402   -0.12634   -1.62622
 14 Cr    0.96015    0.07374   -0.04696
 15 Ni    0.32857   -0.32428    0.31002
 16 Co   -0.46565   -0.41571    0.30772
 17 Cr   -0.65691    0.52067   -0.13529
 18 Co    0.39356    0.28282    0.38908
 19 Co   -0.24219    0.52172    0.14084
 20 Al    1.01089   -0.71714   -0.80231
 21 Ni   -0.19816    0.04959   -0.14754
 22 Cr    0.21904    0.23437   -0.32251
 23 Co   -0.01274   -0.26870   -0.01738
 24 Fe   -0.00948   -0.37020   -0.63700
 25 Ni   -0.36118   -0.29305    0.37507
 26 Cr   -0.10143    0.33585   -0.40808
 27 Cr   -0.87473    0.10784   -0.44873
 28 Al    0.35978   -0.19316    0.26456
 29 Fe    0.51939   -0.12846    0.42046
 30 Ni   -0.25925   -0.34759    0.07029
 31 Fe   -0.17477   -0.53237   -0.28495
 32 Fe   -0.10918    0.12210   -0.19181
 33 Fe    0.16271    0.34700    0.21305
 34 Ni    0.38646   -0.16871    0.18862
 35 Fe   -0.58651   -0.33975    0.13149
 36 Al   -0.49117    0.33850   -0.40911
 37 Cr    0.70281   -0.17141   -0.13795
 38 Fe   -0.09518   -0.52773    0.86600
 39 Co   -0.06111   -0.04427   -0.07660
 40 Ni    0.29609    0.36888   -0.10492
 41 Fe    0.08953    0.57270   -0.40063
 42 Fe   -0.36921    0.10112    0.72896
 43 Fe    0.56281    0.32869    0.54163
 44 Ni   -0.22070    0.10045    0.43028
 45 Fe    0.35833    0.27926    0.31940
 46 Cr   -0.13877   -0.29130   -0.19115
 47 Co    0.03493    0.16318    0.15373
 48 Ni   -0.04570   -0.40173   -0.10368
 49 Fe    0.51385   -0.82895   -0.03304
 50 Fe   -0.22536    0.07936   -0.42595
 51 Cr   -0.24668    0.06056    0.21068
 52 Cr   -0.32558   -0.10422    0.72164
 53 Co   -0.09073    0.14845   -0.22064
 54 Cr    0.18125   -0.07337   -0.25092
 55 Co   -0.09323   -0.01770   -0.25431
 56 Fe   -0.08124   -0.36241    0.17640
 57 Cr    0.08589   -0.06125   -0.31257
 58 Ni    0.10989   -0.05507   -0.01109
 59 Fe    0.13676   -0.13048    0.22450
 60 Ni   -0.04447   -0.00406   -0.03086
 61 Fe    0.28970    0.16323    0.06433
 62 Co   -0.04668    0.04705   -0.02025
 63 Ni    0.33430    0.22079   -0.14353
 64 Ni   -0.43965    0.39782    0.00199
 65 Ni    0.10842    0.41404   -0.38460
 66 Co   -0.14054    0.19983   -0.01114
 67 Fe    0.19879    0.08216    0.38617
 68 Co   -0.06936    0.00678    0.10932
 69 Ni   -0.41948    0.01010    0.05303
 70 Co   -0.03264    0.14559   -0.46947
 71 Ni    0.02285   -0.05187    0.18841
 72 Fe    0.15858   -0.46459    0.10013
 73 Fe   -0.33129   -0.33909    0.16103
 74 Ni    0.08927   -0.25948   -0.47874
 75 Cr   -0.14354    0.41974    0.33420
 76 Fe    0.23732   -0.18961    0.16445
 77 Ni    0.28568   -0.25809    0.06027
 78 Ni   -0.26853   -0.19840    0.19296
 79 Fe    0.13120    0.59674   -0.16916
 80 Ni   -0.16162    0.40168   -0.21485
 81 Fe   -0.00374   -0.15261    0.11180
 82 Ni    0.02570   -0.00324   -0.06982
 83 Cr    0.29948    0.16691   -0.12186
 84 Fe   -0.15441   -0.08358   -0.29864
 85 Ni    0.03745   -0.15738    0.10932
 86 Fe    0.12170    0.16002    0.37535
 87 Fe   -0.03134   -0.09543    0.09110
 88 Fe    0.02711    0.01397    0.25453
 89 Cr    0.04478    0.32044   -0.71281
 90 Ni   -0.16599   -0.20076   -0.06532
 91 Ni    0.16403   -0.08351   -0.37295
 92 Cr    0.14550    0.00566    0.17685
 93 Co    0.44657    0.19953    0.05571
 94 Cr   -0.51810    0.12468    0.08276
 95 Cr    1.09740   -0.37596    0.35691
 96 Fe    0.18692   -0.12152   -0.14358
 97 Co    0.54509   -0.21765    0.21234
 98 Fe   -0.57530   -0.07898    0.54546
 99 Al   -0.86778    0.61809   -0.98986
100 Cr   -0.42381    0.17742    0.07235
101 Cr    0.33927    0.10584    0.04247
102 Co    0.40884   -0.02308   -0.58588
103 Co   -0.56515    0.00929   -0.30969
104 Cr    0.24626    0.53156    0.60492
105 Ni   -0.08724    0.11481    0.33262
106 Co    0.10408   -0.09121    0.10262
107 Co    0.00850   -0.33346   -0.26211
108 Fe   -0.18638    0.00710    0.37878
109 Co   -0.02827   -0.08170   -0.28511
110 Co    0.11935    0.02476   -0.16372
111 Cr   -0.91281    0.11793    0.36436
112 Cr    0.79625    0.09518    0.29180
113 Co    0.05781    0.09088   -0.08264
114 Al    0.22308   -1.10248    0.68738
115 Co    0.01191   -0.07474   -0.00389
116 Co    0.03198   -0.04772   -0.31327
117 Ni   -0.08811    0.15471    0.26589
118 Cr   -0.28686    0.53687    0.06062
119 Cr   -0.22515   -0.32665   -0.27273
120 Ni    0.27632   -0.23983    0.04434
121 Ni    0.05995   -0.36650    0.10538
122 Co    0.02258   -0.12075   -0.16831
123 Ni   -0.14233    0.36778   -0.43608
124 Cr   -0.09807   -0.29202    0.69802

Timing:                              incl.     excl.
-----------------------------------------------------------
Forces:                             51.119    51.119   0.1% |
Hamiltonian:                         1.771     0.018   0.0% |
 Atomic:                             0.449     0.002   0.0% |
  XC Correction:                     0.447     0.447   0.0% |
 Calculate atomic Hamiltonians:      0.631     0.631   0.0% |
 Communicate:                        0.057     0.057   0.0% |
 Initialize Hamiltonian:             0.000     0.000   0.0% |
 Poisson:                            0.125     0.125   0.0% |
 XC 3D grid:                         0.491     0.491   0.0% |
LCAO initialization:               378.882     0.642   0.0% |
 LCAO eigensolver:                  26.861     0.026   0.0% |
  Calculate projections:             0.000     0.000   0.0% |
  DenseAtomicCorrection:             0.000     0.000   0.0% |
  Distribute overlap matrix:        12.876    12.876   0.0% |
  Orbital Layouts:                  13.892    13.892   0.0% |
  Potential matrix:                  0.007     0.007   0.0% |
  Sum over cells:                    0.060     0.060   0.0% |
 LCAO to grid:                     348.178   348.178   0.6% |
 Set positions (LCAO WFS):           3.202     2.797   0.0% |
  Basic WFS set positions:           0.004     0.004   0.0% |
  Basis functions set positions:     0.001     0.001   0.0% |
  P tci:                             0.001     0.001   0.0% |
  ST tci:                            0.168     0.168   0.0% |
  mktci:                             0.230     0.230   0.0% |
PWDescriptor:                        0.129     0.129   0.0% |
SCF-cycle:                       55297.413     2.279   0.0% |
 Davidson:                       53787.280 14208.923  25.5% |---------|
  Apply H:                         968.905   951.428   1.7% ||
   HMM T:                           17.477    17.477   0.0% |
  Subspace diag:                  4998.839     0.170   0.0% |
   calc_h_matrix:                 2147.871  1277.179   2.3% ||
    Apply H:                       870.693   851.874   1.5% ||
     HMM T:                         18.819    18.819   0.0% |
   diagonalize:                    512.697   512.697   0.9% |
   rotate_psi:                    2338.101  2338.101   4.2% |-|
  calc. matrices:                11650.186 10017.597  18.0% |------|
   Apply H:                       1632.589  1597.400   2.9% ||
    HMM T:                          35.190    35.190   0.1% |
  diagonalize:                   16870.740 16870.740  30.3% |-----------|
  rotate_psi:                     5089.687  5089.687   9.1% |---|
 Density:                          868.987     0.013   0.0% |
  Atomic density matrices:           9.109     9.109   0.0% |
  Mix:                             440.717   440.717   0.8% |
  Multipole moments:                 0.277     0.277   0.0% |
  Pseudo density:                  418.871   418.854   0.8% |
   Symmetrize density:               0.017     0.017   0.0% |
 Hamiltonian:                      617.017     4.354   0.0% |
  Atomic:                          113.004     0.461   0.0% |
   XC Correction:                  112.543   112.543   0.2% |
  Calculate atomic Hamiltonians:   355.426   355.426   0.6% |
  Communicate:                      16.844    16.844   0.0% |
  Poisson:                          12.328    12.328   0.0% |
  XC 3D grid:                      115.061   115.061   0.2% |
 Orthonormalize:                    21.849     0.001   0.0% |
  calc_s_matrix:                     2.778     2.778   0.0% |
  inverse-cholesky:                  1.182     1.182   0.0% |
  projections:                      13.169    13.169   0.0% |
  rotate_psi_s:                      4.719     4.719   0.0% |
Set symmetry:                        0.001     0.001   0.0% |
Other:                              10.301    10.301   0.0% |
-----------------------------------------------------------
Total:                                     55739.616 100.0%

Date: Thu Apr 20 21:52:37 2023
