
  ___ ___ ___ _ _ _  
 |   |   |_  | | | | 
 | | | | | . | | | | 
 |__ |  _|___|_____|  22.8.0
 |___|_|             

User:   c.zeng@d0011
Date:   Mon Apr 17 06:52:35 2023
Arch:   x86_64
Pid:    248853
CWD:    /home/c.zeng/projects/hea-corrosion/hea-mlp/data-curation/surface-md/dft-jobs/3
Python: 3.8.1
gpaw:   /home/c.zeng/usr/installs/gpaw/source/gpaw-22.8.0/gpaw
_gpaw:  /home/c.zeng/usr/installs/gpaw/source/gpaw-22.8.0/
        _gpaw.cpython-38-x86_64-linux-gnu.so
ase:    /home/c.zeng/.local/lib/python3.8/site-packages/ase-3.22.1-py3.8.egg/ase (version 3.22.1)
numpy:  /home/c.zeng/.local/lib/python3.8/site-packages/numpy (version 1.24.2)
scipy:  /home/c.zeng/.local/lib/python3.8/site-packages/scipy (version 1.10.1)
libxc:  4.2.3
units:  Angstrom and eV
cores: 30
OpenMP: False
OMP_NUM_THREADS: 1

Input parameters:
  convergence: {energy: 0.0001}
  kpts: [2 2 1]
  maxiter: 666
  mode: {ecut: 350.0,
         name: pw}
  occupations: {fixmagmom: False,
                name: fermi-dirac,
                width: 0.1}
  poissonsolver: {dipolelayer: xy}
  spinpol: True
  symmetry: {point_group: False}
  xc: PBE

System changes: positions, numbers, cell, pbc, initial_charges, initial_magmoms 

Initialize ...

species:
  Cr:
    name: Chromium
    id: 33f258bda2ca9f93018e70263a35547b
    Z: 24.0
    valence: 6
    core: 18
    charge: 0.0
    file: /home/c.zeng/usr/data/gpaw-setups-0.9.20000/Cr.PBE.gz
    compensation charges: {type: gauss,
                           rc: 0.35,
                           lmax: 2}
    cutoffs: {filter: 2.14,
              core: 3.04}
    valence states:
      #              energy  rcut
      - 4s(1.00)    -4.007   1.164
      - 4p(0.00)    -0.989   1.217
      - 3d(5.00)    -2.913   1.111
      -  s          23.205   1.164
      -  p          26.223   1.217
      -  d          24.299   1.111
  
    # Using partial waves for Cr as LCAO basis

  Fe:
    name: Iron
    id: 37abbd8d6c3c35915a9b583b742da910
    Z: 26.0
    valence: 8
    core: 18
    charge: 0.0
    file: /home/c.zeng/usr/data/gpaw-setups-0.9.20000/Fe.PBE.gz
    compensation charges: {type: gauss,
                           rc: 0.33,
                           lmax: 2}
    cutoffs: {filter: 2.06,
              core: 2.67}
    valence states:
      #              energy  rcut
      - 4s(2.00)    -5.291   1.164
      - 4p(0.00)    -1.326   1.058
      - 3d(6.00)    -7.505   1.058
      -  s          21.920   1.164
      -  p          25.885   1.058
      -  d          19.706   1.058
  
    # Using partial waves for Fe as LCAO basis

  Ni:
    name: Nickel
    id: 0d9f38a9d6e76a2886f07bb4381f212b
    Z: 28.0
    valence: 16
    core: 12
    charge: 0.0
    file: /home/c.zeng/usr/data/gpaw-setups-0.9.20000/Ni.PBE.gz
    compensation charges: {type: gauss,
                           rc: 0.36,
                           lmax: 2}
    cutoffs: {filter: 2.14,
              core: 1.98}
    valence states:
      #              energy  rcut
      - 4s(2.00)    -5.642   1.164
      - 3p(6.00)   -71.394   1.207
      - 4p(0.00)    -1.226   1.207
      - 3d(8.00)    -8.875   1.138
      -  s          21.570   1.164
      -  d          18.337   1.138
  
    # Using partial waves for Ni as LCAO basis

  Co:
    name: Cobalt
    id: 339d20d5b0b93d2de9531a1bee871d91
    Z: 27.0
    valence: 9
    core: 18
    charge: 0.0
    file: /home/c.zeng/usr/data/gpaw-setups-0.9.20000/Co.PBE.gz
    compensation charges: {type: gauss,
                           rc: 0.32,
                           lmax: 2}
    cutoffs: {filter: 1.87,
              core: 2.55}
    valence states:
      #              energy  rcut
      - 4s(2.00)    -5.469   1.005
      - 4p(0.00)    -1.277   1.058
      - 3d(7.00)    -8.205   1.005
      -  s          21.742   1.005
      -  p          25.934   1.058
      -  d          19.007   1.005
  
    # Using partial waves for Co as LCAO basis

Reference energy: -4451268.207082  # eV

Spin-polarized calculation.
Magnetic moment: 175.600000

Convergence criteria:
 Maximum [total energy] change in last 3 cyles: 0.0001 eV / electron
 Maximum integral of absolute [dens]ity change: 0.0001 electrons / valence electron
 Maximum integral of absolute [eigenst]ate change: 4e-08 eV^2 / valence electron
 Maximum number of scf [iter]ations: 666
 (Square brackets indicate name in SCF output, whereas a 'c' in
 the SCF output indicates the quantity has converged.)

Symmetries present (total): 1

  ( 1  0  0)
  ( 0  1  0)
  ( 0  0  1)

4 k-points: 2 x 2 x 1 Monkhorst-Pack grid
2 k-points in the irreducible part of the Brillouin zone
       k-points in crystal coordinates                weights
   0:     0.25000000   -0.25000000    0.00000000          2/4
   1:     0.25000000    0.25000000    0.00000000          2/4

Wave functions: Plane wave expansion
  Cutoff energy: 350.000 eV
  Number of coefficients (min, max): 58495, 58567
  Pulay-stress correction: 0.000000 eV/Ang^3 (de/decut=0.000000)
  Using FFTW library
  ScaLapack parameters: grid=1x1, blocksize=None
  Wavefunction extrapolation:
    Improved wavefunction reuse through dual PAW basis 

Occupation numbers: Fermi-Dirac:
  width: 0.1000  # eV
 

Eigensolver
   Davidson(niter=2) 

Densities:
  Coarse grid: 54*54*128 grid
  Fine grid: 108*108*256 grid
  Total Charge: 0.000000 

Density mixing:
  Method: difference
  Backend: pulay
  Linear mixing parameter: 0.05
  old densities: 5
  Damping of long wavelength oscillations: 50 

Hamiltonian:
  XC and Coulomb potentials evaluated on a 108*108*256 grid
  Using the PBE Exchange-Correlation functional
  External potential:
    NoExternalPotential
 

XC parameters: PBE with 2 nearest neighbor stencil

Memory estimate:
  Process memory now: 366.52 MiB
  Calculator: 2405.48 MiB
    Density: 16.73 MiB
      Arrays: 6.75 MiB
      Localized functions: 7.29 MiB
      Mixer: 2.70 MiB
    Hamiltonian: 5.22 MiB
      Arrays: 5.01 MiB
      XC: 0.00 MiB
      Poisson: 0.00 MiB
      vbar: 0.21 MiB
    Wavefunctions: 2383.52 MiB
      Arrays psit_nG: 1501.35 MiB
      Eigensolver: 862.84 MiB
      Projections: 3.85 MiB
      Projectors: 0.98 MiB
      PW-descriptor: 14.51 MiB

Total number of cores used: 30
Parallelization over k-points: 2
Domain decomposition: 1 x 3 x 5

Number of atoms: 125
Number of atomic orbitals: 1218
Number of bands in calculation: 840
Number of valence electrons: 1217
Bands to converge: occupied

... initialized

Initializing position-dependent things.

Density initialized from atomic densities
Creating initial wave functions:
  840 bands from LCAO basis set

                                                                  
                                                                  
                                                                  
                                                                  
                                                                  
                                   Co    Ni           Co          
                        Ni    Ni    Co    Cr Cr  Cr               
                    Cr    Ni   CCr     Co        Fe     Co        
                Co                   Fe    Co                     
            Co         Ni  CNi   NNi   FeCr  Fe     Fe            
                  Ni   NFe   CNi   FCr   Fe    Ni    Fe           
       Co          Fe    Fe Cr    Ni    Ni Co Co                  
                        FNi  NCo    CFe   Fe     Cr   Fe          
              Ni    Ni    Fe     Co  FeFe   Co    Fe              
                               NCo   Co    Ni          Cr         
               Fe    Co   NCo   CoCo  CNCr   Co                   
           Co    Fe   NCr    Fe Ni Cr    Cr Ni    Fe    Cr        
                           Ni     Ni    Fe    Cr   Cr             
            Fe    Co   CFe   CCr   CrFe   Fe    Ni                
              Co   FCo    Cr   Cr    CCo   Cr                     
                         Cr                                       
              Fe    Ni     Co    Ni    Cr                         
                                                                  
                                                                  
                                                                  
                                                                  
                                                                  

Positions:
   0 Cr    12.471984    1.492712    9.995962    ( 0.0000,  0.0000,  0.0000)
   1 Fe     2.467193    1.458760   10.524584    ( 0.0000,  0.0000,  2.0000)
   2 Ni     4.915346    1.432907   10.250097    ( 0.0000,  0.0000,  1.5000)
   3 Co     7.572613    1.413283   10.238751    ( 0.0000,  0.0000,  2.1000)
   4 Ni    10.234063    1.395532   10.272908    ( 0.0000,  0.0000,  1.5000)
   5 Cr    13.660786    3.536181   10.750572    ( 0.0000,  0.0000,  0.0000)
   6 Fe     3.905518    3.521708   10.635160    ( 0.0000,  0.0000,  2.0000)
   7 Cr     6.352962    3.486414    9.976865    ( 0.0000,  0.0000,  0.0000)
   8 Cr     8.688418    3.538366   10.763852    ( 0.0000,  0.0000,  0.0000)
   9 Cr    11.257034    3.932952   10.524098    ( 0.0000,  0.0000,  0.0000)
  10 Ni    15.008055    5.791448   10.706465    ( 0.0000,  0.0000,  1.5000)
  11 Cr     5.018663    5.514738   10.566310    ( 0.0000,  0.0000,  0.0000)
  12 Cr     7.442528    5.903026   10.457375    ( 0.0000,  0.0000,  0.0000)
  13 Cr     9.974195    5.959086   10.480776    ( 0.0000,  0.0000,  0.0000)
  14 Fe    12.619153    5.845592   10.625778    ( 0.0000,  0.0000,  2.0000)
  15 Cr    16.062503    7.733757   10.219448    ( 0.0000,  0.0000,  0.0000)
  16 Ni     6.202891    7.933596   10.488487    ( 0.0000,  0.0000,  1.5000)
  17 Ni     8.824704    8.094244   10.420294    ( 0.0000,  0.0000,  1.5000)
  18 Fe    11.370191    8.054836   10.545474    ( 0.0000,  0.0000,  2.0000)
  19 Cr    13.748756    7.940643   10.566291    ( 0.0000,  0.0000,  0.0000)
  20 Cr    17.244405    9.940916   10.333475    ( 0.0000,  0.0000,  0.0000)
  21 Ni     7.424427   10.124115   10.457746    ( 0.0000,  0.0000,  1.5000)
  22 Cr    10.012530   10.216043   10.564283    ( 0.0000,  0.0000,  0.0000)
  23 Ni    12.618142   10.106426   10.533890    ( 0.0000,  0.0000,  1.5000)
  24 Fe    14.954541   10.082028   10.545907    ( 0.0000,  0.0000,  2.0000)
  25 Co    12.304410    0.035337   12.368403    ( 0.0000,  0.0000,  2.1000)
  26 Co     2.621108   -0.102566   12.642672    ( 0.0000,  0.0000,  2.1000)
  27 Co     5.153399    0.146632   12.446921    ( 0.0000,  0.0000,  2.1000)
  28 Cr     7.541772    0.205563   12.433506    ( 0.0000,  0.0000,  0.0000)
  29 Fe    16.233283   10.992271   12.598660    ( 0.0000,  0.0000,  2.0000)
  30 Fe     1.391210    2.035908   12.664206    ( 0.0000,  0.0000,  2.0000)
  31 Co     3.853863    2.041944   12.580690    ( 0.0000,  0.0000,  2.1000)
  32 Fe     6.366362    2.393224   12.111770    ( 0.0000,  0.0000,  2.0000)
  33 Cr     8.698268    2.193690   12.640228    ( 0.0000,  0.0000,  0.0000)
  34 Fe    11.358110    2.167143   12.310924    ( 0.0000,  0.0000,  2.0000)
  35 Ni     2.743256    4.387823   12.794732    ( 0.0000,  0.0000,  1.5000)
  36 Ni     5.150914    4.292195   12.638079    ( 0.0000,  0.0000,  1.5000)
  37 Cr     7.606533    4.420320   12.529584    ( 0.0000,  0.0000,  0.0000)
  38 Fe    10.123230    4.236619   12.597581    ( 0.0000,  0.0000,  2.0000)
  39 Cr    12.602907    4.171748   12.780849    ( 0.0000,  0.0000,  0.0000)
  40 Fe     3.839025    6.570939   12.571023    ( 0.0000,  0.0000,  2.0000)
  41 Ni     6.158341    6.651151   12.583189    ( 0.0000,  0.0000,  1.5000)
  42 Co     8.622061    6.552086   12.378733    ( 0.0000,  0.0000,  2.1000)
  43 Ni    11.171566    6.470188   12.711420    ( 0.0000,  0.0000,  1.5000)
  44 Co    13.834424    6.389874   12.653951    ( 0.0000,  0.0000,  2.1000)
  45 Cr    17.339977    8.848658   12.305308    ( 0.0000,  0.0000,  0.0000)
  46 Ni     7.463893    8.653144   12.538995    ( 0.0000,  0.0000,  1.5000)
  47 Co    10.107217    8.828157   12.560738    ( 0.0000,  0.0000,  2.1000)
  48 Ni    12.603934    8.687561   12.565052    ( 0.0000,  0.0000,  1.5000)
  49 Fe    15.087259    8.779266   12.929629    ( 0.0000,  0.0000,  2.0000)
  50 Co     1.378623    0.571150   14.846162    ( 0.0000,  0.0000,  2.1000)
  51 Fe     3.890650    0.374531   14.641220    ( 0.0000,  0.0000,  2.0000)
  52 Cr     6.492414    0.430695   14.499399    ( 0.0000,  0.0000,  0.0000)
  53 Fe     8.758590    0.484079   14.562015    ( 0.0000,  0.0000,  2.0000)
  54 Cr    11.246654    0.779738   14.665079    ( 0.0000,  0.0000,  0.0000)
  55 Fe     2.488421    2.947394   14.652802    ( 0.0000,  0.0000,  2.0000)
  56 Co     4.991843    2.861257   14.631285    ( 0.0000,  0.0000,  2.1000)
  57 Co     7.381061    2.659825   14.446595    ( 0.0000,  0.0000,  2.1000)
  58 Co    10.055095    2.743646   14.791809    ( 0.0000,  0.0000,  2.1000)
  59 Cr    12.464040    2.765987   14.518000    ( 0.0000,  0.0000,  0.0000)
  60 Co     3.873891    5.065078   14.642386    ( 0.0000,  0.0000,  2.1000)
  61 Cr     6.324225    5.069823   14.700190    ( 0.0000,  0.0000,  0.0000)
  62 Co     8.742065    4.722172   14.655115    ( 0.0000,  0.0000,  2.1000)
  63 Fe    11.012519    4.959135   14.691953    ( 0.0000,  0.0000,  2.0000)
  64 Co    13.539615    5.025692   14.773024    ( 0.0000,  0.0000,  2.1000)
  65 Fe     4.916679    7.233282   14.606739    ( 0.0000,  0.0000,  2.0000)
  66 Ni     7.256555    7.331423   14.736400    ( 0.0000,  0.0000,  1.5000)
  67 Cr     9.759693    7.142243   14.674434    ( 0.0000,  0.0000,  0.0000)
  68 Fe    12.552209    7.224905   14.885585    ( 0.0000,  0.0000,  2.0000)
  69 Cr    15.089486    7.175617   14.724684    ( 0.0000,  0.0000,  0.0000)
  70 Cr     6.047991    9.360222   14.562897    ( 0.0000,  0.0000,  0.0000)
  71 Ni     8.702604    9.181002   14.657552    ( 0.0000,  0.0000,  1.5000)
  72 Ni    11.188661    8.981798   14.691285    ( 0.0000,  0.0000,  1.5000)
  73 Co    13.655995    9.221592   14.764092    ( 0.0000,  0.0000,  2.1000)
  74 Fe    16.092465    9.353651   15.145922    ( 0.0000,  0.0000,  2.0000)
  75 Fe    12.436950    1.503086   16.946478    ( 0.0000,  0.0000,  2.0000)
  76 Ni     2.484699    1.372457   16.831192    ( 0.0000,  0.0000,  1.5000)
  77 Ni     4.828466    1.477225   16.586549    ( 0.0000,  0.0000,  1.5000)
  78 Fe     7.386303    1.327907   16.594050    ( 0.0000,  0.0000,  2.0000)
  79 Co     9.962274    1.464764   16.679570    ( 0.0000,  0.0000,  2.1000)
  80 Co    13.806494    3.438298   16.937876    ( 0.0000,  0.0000,  2.1000)
  81 Fe     3.841771    3.754817   16.740198    ( 0.0000,  0.0000,  2.0000)
  82 Ni     6.211520    3.463153   16.636217    ( 0.0000,  0.0000,  1.5000)
  83 Co     8.626178    3.390343   16.625131    ( 0.0000,  0.0000,  2.1000)
  84 Fe    11.298715    3.510366   16.591569    ( 0.0000,  0.0000,  2.0000)
  85 Ni    14.823137    5.782257   16.861125    ( 0.0000,  0.0000,  1.5000)
  86 Ni     5.061015    5.837954   16.683079    ( 0.0000,  0.0000,  1.5000)
  87 Co     7.410119    5.561418   16.710793    ( 0.0000,  0.0000,  2.1000)
  88 Fe     9.772384    5.829766   16.682243    ( 0.0000,  0.0000,  2.0000)
  89 Fe    12.211934    5.627726   16.710287    ( 0.0000,  0.0000,  2.0000)
  90 Fe    16.073237    7.884807   17.067686    ( 0.0000,  0.0000,  2.0000)
  91 Co     6.148581    8.150745   16.695690    ( 0.0000,  0.0000,  2.1000)
  92 Ni     8.642407    7.847856   16.714622    ( 0.0000,  0.0000,  1.5000)
  93 Fe    11.020602    7.806285   16.866704    ( 0.0000,  0.0000,  2.0000)
  94 Fe    13.542056    7.780983   16.984946    ( 0.0000,  0.0000,  2.0000)
  95 Co    17.441013   10.328492   16.832738    ( 0.0000,  0.0000,  2.1000)
  96 Co     7.386702   10.110858   17.083252    ( 0.0000,  0.0000,  2.1000)
  97 Fe     9.804363   10.018268   16.683970    ( 0.0000,  0.0000,  2.0000)
  98 Co    12.209049    9.944488   16.890022    ( 0.0000,  0.0000,  2.1000)
  99 Fe    14.638788    9.866847   17.048683    ( 0.0000,  0.0000,  2.0000)
 100 Co     0.043167    0.151839   19.016692    ( 0.0000,  0.0000,  2.1000)
 101 Co     8.614076   10.805263   18.922317    ( 0.0000,  0.0000,  2.1000)
 102 Ni    11.046442   10.919075   18.657150    ( 0.0000,  0.0000,  1.5000)
 103 Fe     7.256637   -0.081688   19.005394    ( 0.0000,  0.0000,  2.0000)
 104 Co    16.246703   10.860251   18.705291    ( 0.0000,  0.0000,  2.1000)
 105 Co     1.311655    2.420968   19.244657    ( 0.0000,  0.0000,  2.1000)
 106 Ni     3.709645    2.093199   18.774794    ( 0.0000,  0.0000,  1.5000)
 107 Fe     6.148056    2.283360   18.779277    ( 0.0000,  0.0000,  2.0000)
 108 Ni     8.751407    2.096993   18.739362    ( 0.0000,  0.0000,  1.5000)
 109 Cr    11.206450    2.250039   19.018407    ( 0.0000,  0.0000,  0.0000)
 110 Co     2.649834    4.354702   18.906755    ( 0.0000,  0.0000,  2.1000)
 111 Ni     5.156169    4.605846   18.593261    ( 0.0000,  0.0000,  1.5000)
 112 Ni     7.538616    4.277605   18.545238    ( 0.0000,  0.0000,  1.5000)
 113 Ni     9.917214    4.245418   18.571439    ( 0.0000,  0.0000,  1.5000)
 114 Cr    12.585481    4.377235   18.709753    ( 0.0000,  0.0000,  0.0000)
 115 Cr     3.747293    6.547342   19.092470    ( 0.0000,  0.0000,  0.0000)
 116 Ni     6.104704    6.625922   18.633838    ( 0.0000,  0.0000,  1.5000)
 117 Cr     8.673605    6.366127   18.883865    ( 0.0000,  0.0000,  0.0000)
 118 Co    11.207230    6.395527   18.923301    ( 0.0000,  0.0000,  2.1000)
 119 Cr    13.665669    6.379946   19.485386    ( 0.0000,  0.0000,  0.0000)
 120 Ni     4.763272    8.773577   18.909479    ( 0.0000,  0.0000,  1.5000)
 121 Ni     7.126592    8.702065   18.886186    ( 0.0000,  0.0000,  1.5000)
 122 Co     9.543034    8.511101   18.625995    ( 0.0000,  0.0000,  2.1000)
 123 Cr    12.149951    8.798241   19.013165    ( 0.0000,  0.0000,  0.0000)
 124 Cr    14.860166    8.423596   19.214708    ( 0.0000,  0.0000,  0.0000)

Unit cell:
           periodic     x           y           z      points  spacing
  1. axis:    yes   12.446800    0.000000    0.000000    54     0.1996
  2. axis:    yes    6.223010   10.778600    0.000000    54     0.1996
  3. axis:    no     0.000000    0.000000   29.353100   128     0.2293

  Lengths:  12.446800  12.446046  29.353100
  Angles:   90.000000  90.000000  60.000070

Effective grid spacing dv^(1/3) = 0.2193

     iter     time        total  log10-change:  magmom
                         energy  eigst   dens
iter:   1 06:59:57 -1246.344147                  +175.9175
iter:   2 07:02:27 -1175.004197  +0.00  -1.12    +99.1681
iter:   3 07:04:58 -1354.900413  -0.44  -1.07    +80.6989
iter:   4 07:07:29 -2275.653425  +0.34  -0.98    +72.6198
iter:   5 07:10:00 -1058.300084  -0.53  -0.74    +43.7592
iter:   6 07:12:31 -1037.765646  -1.35  -1.24    +41.1828
iter:   7 07:15:01 -1040.721584  -1.79  -1.27    +42.2134
iter:   8 07:17:32 -1017.208919  -1.38  -1.25    +44.0195
iter:   9 07:20:02 -1740.916415  -0.08  -1.33    +45.5439
iter:  10 07:22:33 -1053.252049  -0.48  -0.87    +42.1713
iter:  11 07:25:04 -1032.064788  -1.13  -1.27    +40.7366
iter:  12 07:27:35 -1006.077116  -1.49  -1.37    +41.8946
iter:  13 07:30:05 -1006.474664  -1.65  -1.51    +41.4305
iter:  14 07:32:36 -1019.613170  -1.71  -1.47    +44.5604
iter:  15 07:35:06 -1317.093960  -0.91  -1.41    +47.0840
iter:  16 07:37:36  -989.339228  -1.13  -1.01    +44.0517
iter:  17 07:40:08 -1003.982569  -2.01  -1.57    +45.2359
iter:  18 07:42:38  -981.258160  -2.19  -1.46    +50.3642
iter:  19 07:45:09  -977.829056  -2.60  -1.67    +53.4031
iter:  20 07:47:40  -978.106095  -2.80  -1.72    +55.2868
iter:  21 07:50:10  -980.379389  -1.78  -1.71    +59.5134
iter:  22 07:52:41  -993.633354  -1.74  -1.79    +59.7078
iter:  23 07:55:12  -977.936926  -2.29  -1.61    +61.2137
iter:  24 07:57:44  -974.054403  -2.54  -1.81    +65.0495
iter:  25 08:00:15  -976.650552  -2.66  -2.01    +65.9750
iter:  26 08:02:46  -974.998442  -2.52  -1.88    +68.6257
iter:  27 08:05:17  -975.021116  -2.75  -2.01    +70.6153
iter:  28 08:07:49  -975.444582  -2.81  -2.03    +70.2370
iter:  29 08:10:21  -976.916814  -2.76  -2.06    +72.2671
iter:  30 08:12:52  -974.494363  -3.05  -1.97    +73.0530
iter:  31 08:15:23  -975.023216  -3.09  -2.23    +75.3328
iter:  32 08:17:54  -975.554217  -3.15  -2.22    +78.0884
iter:  33 08:20:25  -975.431141  -3.57  -2.22    +78.6635
iter:  34 08:22:56  -976.168227  -3.09  -2.28    +81.0687
iter:  35 08:25:26  -984.018315  -2.68  -2.26    +81.2920
iter:  36 08:27:57  -977.323607  -2.76  -1.80    +82.5088
iter:  37 08:30:28  -977.280279  -2.98  -2.16    +83.8917
iter:  38 08:32:59  -977.408398  -2.96  -2.26    +83.7975
iter:  39 08:35:30  -977.667830  -3.27  -2.30    +83.8588
iter:  40 08:38:02  -977.563134  -3.36  -2.25    +83.9102
iter:  41 08:40:33  -980.337788  -2.73  -2.36    +84.5410
iter:  42 08:43:03  -978.807135  -2.95  -2.04    +84.7781
iter:  43 08:45:35  -978.625645  -3.59  -2.18    +84.5036
iter:  44 08:48:06  -978.768159  -3.13  -2.25    +83.8361
iter:  45 08:50:37  -978.846982  -3.25  -2.29    +83.1249
iter:  46 08:53:08  -978.708140  -2.79  -2.26    +81.7391
iter:  47 08:55:39  -991.154732  -2.24  -2.22    +80.8468
iter:  48 08:58:10  -979.103085  -2.55  -1.70    +81.6903
iter:  49 09:00:41  -979.316235  -3.50  -2.21    +81.6525
iter:  50 09:03:11  -979.237685  -3.77  -2.20    +81.3022
iter:  51 09:05:42  -981.583733  -2.94  -2.23    +81.2059
iter:  52 09:08:13  -979.678670  -3.41  -1.97    +80.9680
iter:  53 09:10:44 -1049.651909  -1.78  -2.12    +80.3330
iter:  54 09:13:14  -980.720655  -1.99  -1.33    +80.2178
iter:  55 09:15:45  -980.317277  -2.89  -2.05    +79.2162
iter:  56 09:18:16  -979.074776  -3.44  -2.09    +79.2048
iter:  57 09:20:47  -978.715983  -3.00  -2.21    +79.4860
iter:  58 09:23:18  -978.345400  -3.34  -2.28    +79.6355
iter:  59 09:25:49  -978.334745  -3.17  -2.36    +80.2860
iter:  60 09:28:21  -977.922497  -3.64  -2.42    +79.9771
iter:  61 09:30:52  -978.105416  -3.97  -2.62    +80.2950
iter:  62 09:33:24  -978.209563  -3.58  -2.55    +80.9101
iter:  63 09:35:56  -978.160966c -3.77  -2.74    +80.2690
iter:  64 09:38:27  -978.036889  -3.82  -2.56    +80.3573
iter:  65 09:40:59  -978.094060  -3.87  -2.70    +80.8051
iter:  66 09:43:31  -978.494408  -3.20  -3.06    +82.1860
iter:  67 09:46:02  -978.682860  -3.68  -2.88    +82.9808
iter:  68 09:48:33  -979.019073  -3.23  -2.83    +84.7383
iter:  69 09:51:04  -979.105647  -3.56  -2.63    +85.2717
iter:  70 09:53:36  -979.763119  -3.49  -2.57    +85.4601
iter:  71 09:56:08  -979.391843  -3.99  -2.36    +85.2494
iter:  72 09:58:39  -979.513185  -3.84  -2.46    +85.4343
iter:  73 10:01:10  -979.251825  -3.29  -2.42    +85.6434
iter:  74 10:03:42  -979.623268  -3.24  -2.28    +85.2752
iter:  75 10:06:13  -979.938319  -2.74  -2.28    +84.8215
iter:  76 10:08:44  -978.617391  -3.25  -2.19    +84.9112
iter:  77 10:11:16  -978.874320  -3.34  -2.65    +84.1814
iter:  78 10:13:47  -978.862722  -3.70  -2.58    +84.0198
iter:  79 10:16:19  -979.801356  -3.29  -2.52    +83.6525
iter:  80 10:18:50  -978.670323  -3.80  -2.26    +84.0823
iter:  81 10:21:22  -978.704825  -4.29  -2.97    +84.1196
iter:  82 10:23:54  -978.713078c -4.53  -2.96    +84.1653
iter:  83 10:26:26  -978.709291c -4.54  -3.04    +84.0874
iter:  84 10:28:58  -978.763433c -4.46  -2.99    +83.9343
iter:  85 10:31:35  -978.894283  -4.14  -2.89    +83.9952
iter:  86 10:34:12  -978.788679  -4.17  -2.65    +83.9968
iter:  87 10:36:50  -978.747182  -4.55  -2.82    +84.1770
iter:  88 10:39:28  -978.759963c -4.97  -3.01    +84.2212
iter:  89 10:42:05  -978.751491c -4.85  -2.96    +84.2900
iter:  90 10:44:43  -978.731038c -4.96  -3.07    +84.2818
iter:  91 10:47:20  -978.742892c -4.79  -3.26    +84.2447
iter:  92 10:49:58  -978.742645c -4.99  -3.37    +84.1143
iter:  93 10:52:36  -978.748884c -5.16  -3.38    +84.1311
iter:  94 10:55:15  -978.757596c -5.25  -3.37    +84.1416
iter:  95 10:57:52  -978.768520c -5.34  -3.24    +84.2019
iter:  96 11:00:30  -978.768254c -6.09  -3.12    +84.2287
iter:  97 11:03:07  -978.774146c -4.96  -3.13    +84.3006
iter:  98 11:05:45  -978.772939c -5.26  -3.21    +84.2801
iter:  99 11:08:23  -978.767389c -5.53  -3.11    +84.3152
iter: 100 11:11:01  -978.867197c -4.38  -3.20    +84.3257
iter: 101 11:13:38  -978.762133c -4.61  -2.76    +84.3308
iter: 102 11:16:16  -978.761825c -5.06  -3.32    +84.2112
iter: 103 11:18:54  -978.770638c -5.06  -3.35    +84.1659
iter: 104 11:21:32  -978.763514c -5.08  -3.14    +84.2341
iter: 105 11:24:09  -978.759142c -5.38  -3.33    +84.2500
iter: 106 11:26:48  -978.758718c -5.67  -3.48    +84.1667
iter: 107 11:29:27  -978.759535c -5.63  -3.48    +84.1691
iter: 108 11:32:05  -978.759241c -5.63  -3.48    +84.1687
iter: 109 11:34:44  -978.766678c -5.41  -3.48    +84.1651
iter: 110 11:37:22  -978.758240c -5.56  -3.30    +84.1490
iter: 111 11:40:01  -978.761410c -5.35  -3.59    +84.1254
iter: 112 11:42:40  -978.766392c -5.25  -3.42    +84.1630
iter: 113 11:45:19  -978.758442c -5.53  -3.26    +84.1380
iter: 114 11:47:58  -978.761986c -5.64  -3.67    +84.1027
iter: 115 11:50:37  -978.756497c -6.15  -3.39    +84.0883
iter: 116 11:53:16  -978.757545c -6.56  -3.74    +84.1093
iter: 117 11:55:55  -978.758077c -6.08  -3.66    +84.0932
iter: 118 11:58:34  -978.757070c -5.92  -3.57    +84.0769
iter: 119 12:01:13  -978.756855c -6.10  -3.73    +84.0852
iter: 120 12:03:51  -978.762274c -5.51  -3.73    +84.0813
iter: 121 12:06:30  -978.758064c -5.70  -3.40    +84.0839
iter: 122 12:09:09  -978.755904c -6.30  -3.61    +84.0709
iter: 123 12:11:48  -978.756108c -6.51  -4.01c   +84.0718
iter: 124 12:14:27  -978.756038c -6.91  -4.01c   +84.0887
iter: 125 12:17:06  -978.755999c -7.34  -3.98    +84.0865
iter: 126 12:19:45  -978.756268c -7.20  -4.04c   +84.0859
iter: 127 12:22:24  -978.758026c -6.12  -4.00    +84.0848
iter: 128 12:25:02  -978.755930c -6.44  -3.60    +84.0876
iter: 129 12:27:41  -978.756243c -6.70  -4.17c   +84.0865
iter: 130 12:30:20  -978.756115c -6.87  -3.90    +84.0857
iter: 131 12:32:59  -978.755975c -6.72  -4.15c   +84.0848
iter: 132 12:35:38  -978.755915c -6.99  -4.19c   +84.0913
iter: 133 12:38:17  -978.756081c -7.09  -4.26c   +84.0972
iter: 134 12:40:56  -978.755904c -6.88  -4.16c   +84.0927
iter: 135 12:43:35  -978.756530c -6.78  -4.24c   +84.0955
iter: 136 12:46:14  -978.755930c -6.96  -3.93    +84.1133
iter: 137 12:48:53  -978.755970c -6.93  -4.44c   +84.1158
iter: 138 12:51:32  -978.755961c -7.40  -4.39c   +84.1163
iter: 139 12:54:11  -978.755972c -7.82c -4.56c   +84.1137

Converged after 139 iterations.

Dipole moment: (31.277888, -24.219581, 0.019490) |e|*Ang

Total magnetic moment: (0.000000, 0.000000, 84.113711)
Local magnetic moments:
   0 Cr ( 0.000000,  0.000000, -2.687393)
   1 Fe ( 0.000000,  0.000000,  2.401370)
   2 Ni ( 0.000000,  0.000000,  0.394385)
   3 Co ( 0.000000,  0.000000,  1.144693)
   4 Ni ( 0.000000,  0.000000,  0.048733)
   5 Cr ( 0.000000,  0.000000,  1.479005)
   6 Fe ( 0.000000,  0.000000,  2.333441)
   7 Cr ( 0.000000,  0.000000, -2.572509)
   8 Cr ( 0.000000,  0.000000,  1.345749)
   9 Cr ( 0.000000,  0.000000, -1.921483)
  10 Ni ( 0.000000,  0.000000,  0.282078)
  11 Cr ( 0.000000,  0.000000, -2.311647)
  12 Cr ( 0.000000,  0.000000,  2.297581)
  13 Cr ( 0.000000,  0.000000, -2.368303)
  14 Fe ( 0.000000,  0.000000,  2.263769)
  15 Cr ( 0.000000,  0.000000,  2.365576)
  16 Ni ( 0.000000,  0.000000,  0.010836)
  17 Ni ( 0.000000,  0.000000,  0.174996)
  18 Fe ( 0.000000,  0.000000,  2.588331)
  19 Cr ( 0.000000,  0.000000, -2.253023)
  20 Cr ( 0.000000,  0.000000, -1.610712)
  21 Ni ( 0.000000,  0.000000,  0.210806)
  22 Cr ( 0.000000,  0.000000, -2.388361)
  23 Ni ( 0.000000,  0.000000,  0.358569)
  24 Fe ( 0.000000,  0.000000,  2.122557)
  25 Co ( 0.000000,  0.000000,  0.889039)
  26 Co ( 0.000000,  0.000000,  1.429692)
  27 Co ( 0.000000,  0.000000,  1.262715)
  28 Cr ( 0.000000,  0.000000,  0.098477)
  29 Fe ( 0.000000,  0.000000,  1.686752)
  30 Fe ( 0.000000,  0.000000,  2.072332)
  31 Co ( 0.000000,  0.000000,  1.609262)
  32 Fe ( 0.000000,  0.000000,  2.066617)
  33 Cr ( 0.000000,  0.000000, -0.758780)
  34 Fe ( 0.000000,  0.000000,  1.684813)
  35 Ni ( 0.000000,  0.000000,  0.539390)
  36 Ni ( 0.000000,  0.000000,  0.234070)
  37 Cr ( 0.000000,  0.000000, -0.959539)
  38 Fe ( 0.000000,  0.000000,  1.514104)
  39 Cr ( 0.000000,  0.000000, -0.743834)
  40 Fe ( 0.000000,  0.000000,  2.036233)
  41 Ni ( 0.000000,  0.000000,  0.307697)
  42 Co ( 0.000000,  0.000000,  1.115344)
  43 Ni ( 0.000000,  0.000000,  0.320163)
  44 Co ( 0.000000,  0.000000,  1.275081)
  45 Cr ( 0.000000,  0.000000,  0.032700)
  46 Ni ( 0.000000,  0.000000,  0.243992)
  47 Co ( 0.000000,  0.000000,  1.491749)
  48 Ni ( 0.000000,  0.000000,  0.352965)
  49 Fe ( 0.000000,  0.000000,  2.081298)
  50 Co ( 0.000000,  0.000000,  1.405236)
  51 Fe ( 0.000000,  0.000000,  2.578154)
  52 Cr ( 0.000000,  0.000000, -1.332844)
  53 Fe ( 0.000000,  0.000000,  1.530147)
  54 Cr ( 0.000000,  0.000000, -0.497339)
  55 Fe ( 0.000000,  0.000000,  2.555804)
  56 Co ( 0.000000,  0.000000,  1.616171)
  57 Co ( 0.000000,  0.000000,  0.940511)
  58 Co ( 0.000000,  0.000000,  0.855814)
  59 Cr ( 0.000000,  0.000000, -0.428115)
  60 Co ( 0.000000,  0.000000,  1.313544)
  61 Cr ( 0.000000,  0.000000, -1.694505)
  62 Co ( 0.000000,  0.000000,  0.990756)
  63 Fe ( 0.000000,  0.000000,  1.911575)
  64 Co ( 0.000000,  0.000000,  1.255127)
  65 Fe ( 0.000000,  0.000000,  2.024207)
  66 Ni ( 0.000000,  0.000000,  0.262584)
  67 Cr ( 0.000000,  0.000000, -2.055297)
  68 Fe ( 0.000000,  0.000000,  2.368122)
  69 Cr ( 0.000000,  0.000000, -1.954464)
  70 Cr ( 0.000000,  0.000000, -1.277981)
  71 Ni ( 0.000000,  0.000000,  0.348221)
  72 Ni ( 0.000000,  0.000000,  0.456090)
  73 Co ( 0.000000,  0.000000,  0.877503)
  74 Fe ( 0.000000,  0.000000,  1.831853)
  75 Fe ( 0.000000,  0.000000,  2.364152)
  76 Ni ( 0.000000,  0.000000,  0.631180)
  77 Ni ( 0.000000,  0.000000,  0.593896)
  78 Fe ( 0.000000,  0.000000,  2.537655)
  79 Co ( 0.000000,  0.000000,  1.400722)
  80 Co ( 0.000000,  0.000000,  1.383087)
  81 Fe ( 0.000000,  0.000000,  2.700268)
  82 Ni ( 0.000000,  0.000000,  0.524893)
  83 Co ( 0.000000,  0.000000,  1.516698)
  84 Fe ( 0.000000,  0.000000,  2.095515)
  85 Ni ( 0.000000,  0.000000,  0.500280)
  86 Ni ( 0.000000,  0.000000,  0.381638)
  87 Co ( 0.000000,  0.000000,  1.347473)
  88 Fe ( 0.000000,  0.000000,  2.211273)
  89 Fe ( 0.000000,  0.000000,  2.094744)
  90 Fe ( 0.000000,  0.000000,  2.281347)
  91 Co ( 0.000000,  0.000000,  1.576120)
  92 Ni ( 0.000000,  0.000000,  0.485915)
  93 Fe ( 0.000000,  0.000000,  2.124811)
  94 Fe ( 0.000000,  0.000000,  2.252185)
  95 Co ( 0.000000,  0.000000,  1.414044)
  96 Co ( 0.000000,  0.000000,  1.629304)
  97 Fe ( 0.000000,  0.000000,  2.510377)
  98 Co ( 0.000000,  0.000000,  1.398569)
  99 Fe ( 0.000000,  0.000000,  2.315131)
 100 Co ( 0.000000,  0.000000,  1.620024)
 101 Co ( 0.000000,  0.000000,  1.793564)
 102 Ni ( 0.000000,  0.000000,  0.531262)
 103 Fe ( 0.000000,  0.000000,  2.538637)
 104 Co ( 0.000000,  0.000000,  1.550292)
 105 Co ( 0.000000,  0.000000,  1.474095)
 106 Ni ( 0.000000,  0.000000,  0.629066)
 107 Fe ( 0.000000,  0.000000,  2.954259)
 108 Ni ( 0.000000,  0.000000,  0.572563)
 109 Cr ( 0.000000,  0.000000, -2.756414)
 110 Co ( 0.000000,  0.000000,  1.450658)
 111 Ni ( 0.000000,  0.000000,  0.375486)
 112 Ni ( 0.000000,  0.000000,  0.464021)
 113 Ni ( 0.000000,  0.000000,  0.385212)
 114 Cr ( 0.000000,  0.000000, -2.043682)
 115 Cr ( 0.000000,  0.000000, -2.318280)
 116 Ni ( 0.000000,  0.000000,  0.430515)
 117 Cr ( 0.000000,  0.000000, -2.815195)
 118 Co ( 0.000000,  0.000000,  1.332948)
 119 Cr ( 0.000000,  0.000000,  2.665257)
 120 Ni ( 0.000000,  0.000000,  0.310542)
 121 Ni ( 0.000000,  0.000000,  0.575297)
 122 Co ( 0.000000,  0.000000,  1.448209)
 123 Cr ( 0.000000,  0.000000, -2.845632)
 124 Cr ( 0.000000,  0.000000, -2.378107)

Energy contributions relative to reference atoms: (reference = -4451268.207082)

Kinetic:       +386.144960
Potential:     -408.686048
External:        +0.000000
XC:            -997.932267
Entropy (-ST):   -5.539604
Local:          +44.487185
--------------------------
Free energy:   -981.525774
Extrapolated:  -978.755972

Dipole-layer corrected work functions: 4.825849, 4.799561 eV

Spin contamination: 53.288013 electrons
Showing all kpts
                      Up                     Down
 Kpt  Band  Eigenvalues  Occupancy  Eigenvalues  Occupancy
  0   606     -0.00035    0.99817      0.98640    0.02746
  0   607      0.01105    0.99795      1.00700    0.02246
  0   608      0.02934    0.99754      1.01409    0.02096
  0   609      0.03584    0.99737      1.02009    0.01976

  1   606      0.01426    0.99788      0.98914    0.02674
  1   607      0.01981    0.99776      1.00383    0.02317
  1   608      0.02419    0.99766      1.01666    0.02044
  1   609      0.04004    0.99726      1.02107    0.01957


Fermi level: 0.62968

Gap: 0.003 eV
Transition (v -> c):
  (s=0, k=0, n=650, [0.25, -0.25, 0.00]) -> (s=1, k=1, n=566, [0.25, 0.25, 0.00])

Forces in eV/Ang:
  0 Cr    0.85282    0.13487    0.68519
  1 Fe    0.19205   -0.22456    0.15524
  2 Ni    0.89452   -0.09621    0.42905
  3 Co    0.18487   -0.04675    0.47590
  4 Ni   -1.83758    0.74311    0.64866
  5 Cr    0.05749    0.43683    0.01086
  6 Fe   -0.65760    0.07454    0.23012
  7 Cr    0.36946   -0.07666    0.09299
  8 Cr    0.13169   -0.07611   -0.90314
  9 Cr    0.19105   -1.32502   -0.29006
 10 Ni   -0.34254   -1.77138   -0.37471
 11 Cr    0.23840    1.54117    0.11041
 12 Cr   -0.18819   -0.52998   -0.71156
 13 Cr   -0.27169    0.26847    0.48652
 14 Fe   -0.79253    0.01211    0.16555
 15 Cr    1.01469    0.73463    0.11207
 16 Ni    0.18230    0.36966   -0.24935
 17 Ni   -0.35615   -0.00178    0.55780
 18 Fe   -0.80175   -0.61459    0.32126
 19 Cr    0.45708    0.25088    0.39649
 20 Cr    0.64413   -0.08018    0.15872
 21 Ni    0.00465   -0.32442    0.36689
 22 Cr   -0.32973   -0.57430   -0.52139
 23 Ni   -0.91569    0.50739   -0.54956
 24 Fe    0.70420    0.19371    0.04109
 25 Co    1.66120   -0.03581    0.31781
 26 Co   -1.18940    0.92935   -0.04523
 27 Co   -0.32263   -0.32410    0.06283
 28 Cr   -0.02503   -0.87043   -0.18185
 29 Fe    0.02861   -0.52261   -0.24990
 30 Fe    0.09248   -0.54858    0.02493
 31 Co    0.06678    0.66250    0.00867
 32 Fe   -0.55783   -0.99140    0.10496
 33 Cr    1.39779   -0.43431    0.00900
 34 Fe   -0.45872    0.43940   -0.31975
 35 Ni   -1.16782   -0.60130   -1.24343
 36 Ni   -0.31653    0.64479    0.27454
 37 Cr   -0.65110    0.78790   -0.44106
 38 Fe    0.01512    0.78947    0.31111
 39 Cr   -0.04321    1.20311   -0.32439
 40 Fe   -0.65195   -0.25627   -0.11518
 41 Ni    0.63978   -0.83312    0.10015
 42 Co    1.10196   -0.07221    1.20099
 43 Ni    0.54844    0.31541   -0.31634
 44 Co   -0.60202    0.77284    0.59910
 45 Cr    0.05505   -0.89501    0.30765
 46 Ni   -0.04603    0.41672    0.10240
 47 Co   -0.07244   -1.71677   -0.13374
 48 Ni   -0.22745   -0.18916    0.58074
 49 Fe   -0.41251   -0.22355   -1.04715
 50 Co   -0.42953    0.50002   -0.64203
 51 Fe   -0.21889    1.67349   -0.75628
 52 Cr   -1.92403    0.78526    0.47768
 53 Fe    0.27601    0.91610    0.79670
 54 Cr    0.39214   -0.43554   -0.51268
 55 Fe    0.32448   -0.82082    0.90925
 56 Co   -0.12361   -0.53405   -0.52549
 57 Co    0.32438    0.59909    0.58480
 58 Co   -1.00286    0.26087   -1.92535
 59 Cr    0.34339   -0.28047    1.00934
 60 Co   -0.28000   -0.00155    0.87992
 61 Cr   -0.56596   -0.23753   -0.30582
 62 Co   -0.74886    0.95543   -0.24506
 63 Fe    1.17394    0.42005   -0.69887
 64 Co    1.05479    0.20015    0.26098
 65 Fe    0.02580    0.32475    0.49234
 66 Ni    1.09452   -1.26172   -0.33361
 67 Cr    0.38444   -1.44762   -0.39871
 68 Fe   -0.13024   -1.64559   -1.44535
 69 Cr   -0.81694   -0.49822    0.57904
 70 Cr    0.57507    0.71549   -0.06996
 71 Ni   -0.39000    0.99657   -0.37519
 72 Ni    0.02984    1.96892   -0.05919
 73 Co   -0.14423    0.22618    0.71854
 74 Fe    0.95727   -0.05175   -0.78860
 75 Fe    1.10003   -0.33014    0.22996
 76 Ni   -0.29226    0.29652   -0.10549
 77 Ni    0.98197   -0.43495    0.24066
 78 Fe   -0.11094   -0.20369    0.61045
 79 Co   -0.74055   -0.75623    0.65787
 80 Co   -0.04933    1.07005   -0.58601
 81 Fe   -0.85432   -0.86821    0.18111
 82 Ni    0.23223    0.27016   -0.21533
 83 Co    0.40482    0.54230   -0.08336
 84 Fe   -0.49666    0.27636    1.09460
 85 Ni    0.17528   -0.48166    0.16179
 86 Ni   -0.98307    0.64861   -1.13569
 87 Co    0.30358    1.33069   -0.88800
 88 Fe    0.31727   -1.47465    0.43917
 89 Fe    1.27897    0.21269    1.10372
 90 Fe    0.31145   -0.37543   -0.41478
 91 Co   -0.73853   -0.58979    0.24688
 92 Ni   -2.02153    0.18155   -0.38303
 93 Fe    0.63080    0.37334    0.18377
 94 Fe   -0.23964   -0.03609    0.67447
 95 Co    0.06910   -1.71018    0.23327
 96 Co    0.21826    0.14712   -1.50101
 97 Fe    0.11554   -0.25043    0.64956
 98 Co    0.55958    0.35372   -1.14955
 99 Fe    0.94196    1.14696   -0.29460
100 Co   -0.40300    0.08521   -0.04715
101 Co    0.22340    0.07860    0.02149
102 Ni    0.15683   -0.62365    0.47440
103 Fe    0.69622    0.69788   -0.34995
104 Co   -0.95909    0.08624    0.46762
105 Co   -0.08199   -0.91838   -0.92817
106 Ni   -0.43840    1.61848    0.05861
107 Fe    0.05714   -0.52820   -0.27846
108 Ni   -0.91210    0.07435   -0.21980
109 Cr   -0.10395   -0.62077   -0.31931
110 Co    0.29120   -0.50137   -0.43443
111 Ni   -0.96838   -2.07483    1.08340
112 Ni   -0.24617   -0.54272    1.25166
113 Ni    0.45881    0.22488    0.17461
114 Cr   -0.29600    0.59384    0.00281
115 Cr    0.52188   -1.56919   -0.41029
116 Ni    0.96042    0.67631    0.31172
117 Cr   -0.16019    0.48786    0.06973
118 Co   -0.48271    0.24034   -0.94672
119 Cr   -0.06941    0.54913   -0.41960
120 Ni    1.10794    0.02243    0.16742
121 Ni    1.02582   -0.28240    0.39213
122 Co    1.34312    1.14006    1.40002
123 Cr   -0.44406   -1.15058   -0.02651
124 Cr   -1.06176    1.59607   -0.37971

Timing:                              incl.     excl.
-----------------------------------------------------------
Forces:                             40.827    40.827   0.2% |
Hamiltonian:                         1.289     0.010   0.0% |
 Atomic:                             0.367     0.001   0.0% |
  XC Correction:                     0.366     0.366   0.0% |
 Calculate atomic Hamiltonians:      0.428     0.428   0.0% |
 Communicate:                        0.103     0.103   0.0% |
 Initialize Hamiltonian:             0.001     0.001   0.0% |
 Poisson:                            0.082     0.082   0.0% |
 XC 3D grid:                         0.300     0.300   0.0% |
LCAO initialization:               269.997     0.401   0.0% |
 LCAO eigensolver:                  13.966     0.014   0.0% |
  Calculate projections:             0.000     0.000   0.0% |
  DenseAtomicCorrection:             0.000     0.000   0.0% |
  Distribute overlap matrix:         8.678     8.678   0.0% |
  Orbital Layouts:                   5.239     5.239   0.0% |
  Potential matrix:                  0.003     0.003   0.0% |
  Sum over cells:                    0.032     0.032   0.0% |
 LCAO to grid:                     253.341   253.341   1.2% |
 Set positions (LCAO WFS):           2.289     2.013   0.0% |
  Basic WFS set positions:           0.003     0.003   0.0% |
  Basis functions set positions:     0.001     0.001   0.0% |
  P tci:                             0.000     0.000   0.0% |
  ST tci:                            0.104     0.104   0.0% |
  mktci:                             0.167     0.167   0.0% |
PWDescriptor:                        0.082     0.082   0.0% |
SCF-cycle:                       21421.954     1.014   0.0% |
 Davidson:                       20920.262  6633.797  30.5% |-----------|
  Apply H:                         343.524   337.853   1.6% ||
   HMM T:                            5.671     5.671   0.0% |
  Subspace diag:                  2266.119     0.044   0.0% |
   calc_h_matrix:                  895.644   597.674   2.7% ||
    Apply H:                       297.970   292.287   1.3% ||
     HMM T:                          5.684     5.684   0.0% |
   diagonalize:                    219.911   219.911   1.0% |
   rotate_psi:                    1150.519  1150.519   5.3% |-|
  calc. matrices:                 5308.645  4755.413  21.9% |--------|
   Apply H:                        553.232   541.997   2.5% ||
    HMM T:                          11.235    11.235   0.1% |
  diagonalize:                    3916.014  3916.014  18.0% |------|
  rotate_psi:                     2452.163  2452.163  11.3% |----|
 Density:                          270.338     0.004   0.0% |
  Atomic density matrices:           3.278     3.278   0.0% |
  Mix:                             117.968   117.968   0.5% |
  Multipole moments:                 0.095     0.095   0.0% |
  Pseudo density:                  148.993   148.987   0.7% |
   Symmetrize density:               0.006     0.006   0.0% |
 Hamiltonian:                      211.815     1.326   0.0% |
  Atomic:                           51.691     0.170   0.0% |
   XC Correction:                   51.521    51.521   0.2% |
  Calculate atomic Hamiltonians:    99.330    99.330   0.5% |
  Communicate:                      13.490    13.490   0.1% |
  Poisson:                           4.670     4.670   0.0% |
  XC 3D grid:                       41.309    41.309   0.2% |
 Orthonormalize:                    18.524     0.001   0.0% |
  calc_s_matrix:                     2.308     2.308   0.0% |
  inverse-cholesky:                  0.970     0.970   0.0% |
  projections:                      11.201    11.201   0.1% |
  rotate_psi_s:                      4.045     4.045   0.0% |
Set symmetry:                        0.001     0.001   0.0% |
Other:                               6.433     6.433   0.0% |
-----------------------------------------------------------
Total:                                     21740.582 100.0%

Date: Mon Apr 17 12:54:56 2023
