
  ___ ___ ___ _ _ _  
 |   |   |_  | | | | 
 | | | | | . | | | | 
 |__ |  _|___|_____|  22.8.0
 |___|_|             

User:   c.zeng@d0034
Date:   Tue Apr 18 09:42:52 2023
Arch:   x86_64
Pid:    19944
CWD:    /home/c.zeng/projects/hea-corrosion/hea-mlp/data-curation/surface-mcmc/dft-jobs/5
Python: 3.8.1
gpaw:   /home/c.zeng/usr/installs/gpaw/source/gpaw-22.8.0/gpaw
_gpaw:  /home/c.zeng/usr/installs/gpaw/source/gpaw-22.8.0/
        _gpaw.cpython-38-x86_64-linux-gnu.so
ase:    /home/c.zeng/.local/lib/python3.8/site-packages/ase-3.22.1-py3.8.egg/ase (version 3.22.1)
numpy:  /home/c.zeng/.local/lib/python3.8/site-packages/numpy (version 1.24.2)
scipy:  /home/c.zeng/.local/lib/python3.8/site-packages/scipy (version 1.10.1)
libxc:  4.2.3
units:  Angstrom and eV
cores: 30
OpenMP: False
OMP_NUM_THREADS: 1

Input parameters:
  convergence: {energy: 0.0001}
  kpts: [2 2 1]
  maxiter: 666
  mode: {ecut: 350.0,
         name: pw}
  occupations: {fixmagmom: False,
                name: fermi-dirac,
                width: 0.1}
  poissonsolver: {dipolelayer: xy}
  spinpol: True
  symmetry: {point_group: False}
  xc: PBE

System changes: positions, numbers, cell, pbc, initial_charges, initial_magmoms 

Initialize ...

species:
  Cr:
    name: Chromium
    id: 33f258bda2ca9f93018e70263a35547b
    Z: 24.0
    valence: 6
    core: 18
    charge: 0.0
    file: /home/c.zeng/usr/data/gpaw-setups-0.9.20000/Cr.PBE.gz
    compensation charges: {type: gauss,
                           rc: 0.35,
                           lmax: 2}
    cutoffs: {filter: 2.14,
              core: 3.04}
    valence states:
      #              energy  rcut
      - 4s(1.00)    -4.007   1.164
      - 4p(0.00)    -0.989   1.217
      - 3d(5.00)    -2.913   1.111
      -  s          23.205   1.164
      -  p          26.223   1.217
      -  d          24.299   1.111
  
    # Using partial waves for Cr as LCAO basis

  Fe:
    name: Iron
    id: 37abbd8d6c3c35915a9b583b742da910
    Z: 26.0
    valence: 8
    core: 18
    charge: 0.0
    file: /home/c.zeng/usr/data/gpaw-setups-0.9.20000/Fe.PBE.gz
    compensation charges: {type: gauss,
                           rc: 0.33,
                           lmax: 2}
    cutoffs: {filter: 2.06,
              core: 2.67}
    valence states:
      #              energy  rcut
      - 4s(2.00)    -5.291   1.164
      - 4p(0.00)    -1.326   1.058
      - 3d(6.00)    -7.505   1.058
      -  s          21.920   1.164
      -  p          25.885   1.058
      -  d          19.706   1.058
  
    # Using partial waves for Fe as LCAO basis

  Co:
    name: Cobalt
    id: 339d20d5b0b93d2de9531a1bee871d91
    Z: 27.0
    valence: 9
    core: 18
    charge: 0.0
    file: /home/c.zeng/usr/data/gpaw-setups-0.9.20000/Co.PBE.gz
    compensation charges: {type: gauss,
                           rc: 0.32,
                           lmax: 2}
    cutoffs: {filter: 1.87,
              core: 2.55}
    valence states:
      #              energy  rcut
      - 4s(2.00)    -5.469   1.005
      - 4p(0.00)    -1.277   1.058
      - 3d(7.00)    -8.205   1.005
      -  s          21.742   1.005
      -  p          25.934   1.058
      -  d          19.007   1.005
  
    # Using partial waves for Co as LCAO basis

  Ni:
    name: Nickel
    id: 0d9f38a9d6e76a2886f07bb4381f212b
    Z: 28.0
    valence: 16
    core: 12
    charge: 0.0
    file: /home/c.zeng/usr/data/gpaw-setups-0.9.20000/Ni.PBE.gz
    compensation charges: {type: gauss,
                           rc: 0.36,
                           lmax: 2}
    cutoffs: {filter: 2.14,
              core: 1.98}
    valence states:
      #              energy  rcut
      - 4s(2.00)    -5.642   1.164
      - 3p(6.00)   -71.394   1.207
      - 4p(0.00)    -1.226   1.207
      - 3d(8.00)    -8.875   1.138
      -  s          21.570   1.164
      -  d          18.337   1.138
  
    # Using partial waves for Ni as LCAO basis

Reference energy: -4451268.207082  # eV

Spin-polarized calculation.
Magnetic moment: 175.600000

Convergence criteria:
 Maximum [total energy] change in last 3 cyles: 0.0001 eV / electron
 Maximum integral of absolute [dens]ity change: 0.0001 electrons / valence electron
 Maximum integral of absolute [eigenst]ate change: 4e-08 eV^2 / valence electron
 Maximum number of scf [iter]ations: 666
 (Square brackets indicate name in SCF output, whereas a 'c' in
 the SCF output indicates the quantity has converged.)

Symmetries present (total): 1

  ( 1  0  0)
  ( 0  1  0)
  ( 0  0  1)

4 k-points: 2 x 2 x 1 Monkhorst-Pack grid
2 k-points in the irreducible part of the Brillouin zone
       k-points in crystal coordinates                weights
   0:     0.25000000   -0.25000000    0.00000000          2/4
   1:     0.25000000    0.25000000    0.00000000          2/4

Wave functions: Plane wave expansion
  Cutoff energy: 350.000 eV
  Number of coefficients (min, max): 58495, 58567
  Pulay-stress correction: 0.000000 eV/Ang^3 (de/decut=0.000000)
  Using FFTW library
  ScaLapack parameters: grid=1x1, blocksize=None
  Wavefunction extrapolation:
    Improved wavefunction reuse through dual PAW basis 

Occupation numbers: Fermi-Dirac:
  width: 0.1000  # eV
 

Eigensolver
   Davidson(niter=2) 

Densities:
  Coarse grid: 54*54*128 grid
  Fine grid: 108*108*256 grid
  Total Charge: 0.000000 

Density mixing:
  Method: difference
  Backend: pulay
  Linear mixing parameter: 0.05
  old densities: 5
  Damping of long wavelength oscillations: 50 

Hamiltonian:
  XC and Coulomb potentials evaluated on a 108*108*256 grid
  Using the PBE Exchange-Correlation functional
  External potential:
    NoExternalPotential
 

XC parameters: PBE with 2 nearest neighbor stencil

Memory estimate:
  Process memory now: 356.07 MiB
  Calculator: 2405.48 MiB
    Density: 16.73 MiB
      Arrays: 6.75 MiB
      Localized functions: 7.29 MiB
      Mixer: 2.70 MiB
    Hamiltonian: 5.22 MiB
      Arrays: 5.01 MiB
      XC: 0.00 MiB
      Poisson: 0.00 MiB
      vbar: 0.21 MiB
    Wavefunctions: 2383.52 MiB
      Arrays psit_nG: 1501.35 MiB
      Eigensolver: 862.84 MiB
      Projections: 3.85 MiB
      Projectors: 0.98 MiB
      PW-descriptor: 14.51 MiB

Total number of cores used: 30
Parallelization over k-points: 2
Domain decomposition: 1 x 3 x 5

Number of atoms: 125
Number of atomic orbitals: 1218
Number of bands in calculation: 840
Number of valence electrons: 1217
Bands to converge: occupied

... initialized

Initializing position-dependent things.

Density initialized from atomic densities
Creating initial wave functions:
  840 bands from LCAO basis set

                                                                  
                                                                  
                                                                  
                                                                  
                                   Co    Fe           Ni          
                         Ni    Ni    Co    Fe    Cr               
                    Co    Cr     Cr    Ni    Co                   
                                Fe    Ni    Ni    Cr    Fe        
                Cr    Ni   NCr   CCo    NFe   Co    Fe            
            Fe    Ni   FCo   NCo   FNi   Co     Ni                
       Ni                 FeCr    Cr     Cr    Fe    Co           
                   Co   CFe   FCo   CNi   CFe   Cr    Cr          
              Ni   CFe    CNi   CFe   CFe   Ni                    
                               Ni    Ni    Cr    Co    Cr         
               Cr   CFe   FCr   NCNi  CFNi  CCo   Co    Cr        
           Cr   CNi   FFe  CNCr   NFe   CFe         Co            
            Fe    Fe          Fe    Cr        Ni                  
                       CNi   Fe    Cr    Ni     Cr                
             Fe    Cr    CFe   Co    FCo   Ni                     
              Fe    Co    Cr     Ni    Cr                         
                                                                  
                                                                  
                                                                  
                                                                  
                                                                  

Positions:
   0 Cr    12.462288    1.423821   10.629080    ( 0.0000,  0.0000,  0.0000)
   1 Fe     2.499576    1.440301   10.626527    ( 0.0000,  0.0000,  2.0000)
   2 Co     4.968611    1.438835   10.615079    ( 0.0000,  0.0000,  1.5000)
   3 Cr     7.462726    1.421460   10.639178    ( 0.0000,  0.0000,  2.1000)
   4 Ni     9.958813    1.440808   10.614286    ( 0.0000,  0.0000,  1.5000)
   5 Ni    13.701699    3.595687   10.631928    ( 0.0000,  0.0000,  0.0000)
   6 Co     3.731720    3.588498   10.658463    ( 0.0000,  0.0000,  2.0000)
   7 Cr     6.206181    3.578862   10.616048    ( 0.0000,  0.0000,  0.0000)
   8 Co     8.708678    3.588487   10.610441    ( 0.0000,  0.0000,  0.0000)
   9 Fe    11.213254    3.596560   10.610265    ( 0.0000,  0.0000,  0.0000)
  10 Cr    14.928341    5.748260   10.633307    ( 0.0000,  0.0000,  1.5000)
  11 Co     4.975718    5.742741   10.620568    ( 0.0000,  0.0000,  0.0000)
  12 Fe     7.478433    5.755029   10.612261    ( 0.0000,  0.0000,  0.0000)
  13 Cr     9.958968    5.766540   10.606596    ( 0.0000,  0.0000,  0.0000)
  14 Ni    12.428955    5.759114   10.623679    ( 0.0000,  0.0000,  2.0000)
  15 Co    16.172575    7.907763   10.614962    ( 0.0000,  0.0000,  0.0000)
  16 Co     6.230875    7.897556   10.631399    ( 0.0000,  0.0000,  1.5000)
  17 Co     8.712063    7.918800   10.624912    ( 0.0000,  0.0000,  1.5000)
  18 Cr    11.196407    7.900649   10.627583    ( 0.0000,  0.0000,  2.0000)
  19 Ni    13.685743    7.894915   10.608768    ( 0.0000,  0.0000,  0.0000)
  20 Cr    17.413095   10.061737   10.609531    ( 0.0000,  0.0000,  0.0000)
  21 Ni     7.473454   10.060875   10.626761    ( 0.0000,  0.0000,  1.5000)
  22 Co     9.959304   10.058201   10.606068    ( 0.0000,  0.0000,  0.0000)
  23 Co    12.452485   10.052985   10.619834    ( 0.0000,  0.0000,  1.5000)
  24 Co    14.933506   10.061047   10.614433    ( 0.0000,  0.0000,  2.0000)
  25 Co    12.449050   -0.000629   12.627234    ( 0.0000,  0.0000,  2.1000)
  26 Fe     2.492433    0.000558   12.634954    ( 0.0000,  0.0000,  2.1000)
  27 Cr     4.974333    0.000141   12.611941    ( 0.0000,  0.0000,  2.1000)
  28 Fe     7.468637   -0.006559   12.638564    ( 0.0000,  0.0000,  0.0000)
  29 Cr    16.167928   10.788301   12.619514    ( 0.0000,  0.0000,  2.0000)
  30 Fe     1.266555    2.151225   12.633662    ( 0.0000,  0.0000,  2.0000)
  31 Fe     3.735748    2.148121   12.651127    ( 0.0000,  0.0000,  2.1000)
  32 Ni     6.204229    2.151322   12.625297    ( 0.0000,  0.0000,  2.0000)
  33 Fe     8.713864    2.159169   12.632341    ( 0.0000,  0.0000,  0.0000)
  34 Cr    11.209280    2.157261   12.630668    ( 0.0000,  0.0000,  2.0000)
  35 Cr     2.491537    4.311041   12.649513    ( 0.0000,  0.0000,  1.5000)
  36 Fe     4.975141    4.309004   12.661988    ( 0.0000,  0.0000,  1.5000)
  37 Ni     7.471546    4.302515   12.629612    ( 0.0000,  0.0000,  0.0000)
  38 Ni     9.959331    4.321389   12.624211    ( 0.0000,  0.0000,  2.0000)
  39 Fe    12.447216    4.322736   12.648779    ( 0.0000,  0.0000,  0.0000)
  40 Cr     3.727002    6.455713   12.638564    ( 0.0000,  0.0000,  2.0000)
  41 Fe     6.230130    6.458548   12.645726    ( 0.0000,  0.0000,  1.5000)
  42 Co     8.722502    6.475815   12.624504    ( 0.0000,  0.0000,  2.1000)
  43 Fe    11.197735    6.469758   12.643995    ( 0.0000,  0.0000,  1.5000)
  44 Co    13.683348    6.470059   12.640003    ( 0.0000,  0.0000,  2.1000)
  45 Cr    17.413993    8.621565   12.620189    ( 0.0000,  0.0000,  0.0000)
  46 Ni     7.471608    8.621834   12.638564    ( 0.0000,  0.0000,  1.5000)
  47 Ni     9.955597    8.628593   12.628115    ( 0.0000,  0.0000,  2.1000)
  48 Cr    12.449432    8.615173   12.619279    ( 0.0000,  0.0000,  1.5000)
  49 Co    14.929575    8.617340   12.626089    ( 0.0000,  0.0000,  2.0000)
  50 Cr     1.254097    0.717223   14.680102    ( 0.0000,  0.0000,  2.1000)
  51 Ni     3.731090    0.711950   14.670063    ( 0.0000,  0.0000,  2.0000)
  52 Fe     6.214925    0.718289   14.674818    ( 0.0000,  0.0000,  0.0000)
  53 Cr     8.714063    0.718519   14.689084    ( 0.0000,  0.0000,  2.0000)
  54 Fe    11.204771    0.717512   14.682421    ( 0.0000,  0.0000,  0.0000)
  55 Cr     2.496837    2.862958   14.687264    ( 0.0000,  0.0000,  2.0000)
  56 Fe     4.979214    2.867151   14.683800    ( 0.0000,  0.0000,  2.1000)
  57 Cr     7.478991    2.885690   14.679133    ( 0.0000,  0.0000,  2.1000)
  58 Ni     9.958294    2.881486   14.688056    ( 0.0000,  0.0000,  2.1000)
  59 Ni    12.441997    2.882424   14.688409    ( 0.0000,  0.0000,  0.0000)
  60 Co     3.731806    5.017201   14.686589    ( 0.0000,  0.0000,  2.1000)
  61 Cr     6.225452    5.035536   14.687205    ( 0.0000,  0.0000,  0.0000)
  62 Co     8.715945    5.032324   14.674525    ( 0.0000,  0.0000,  2.1000)
  63 Cr    11.195745    5.039006   14.696011    ( 0.0000,  0.0000,  2.0000)
  64 Ni    13.700079    5.031203   14.681012    ( 0.0000,  0.0000,  2.1000)
  65 Co     4.981869    7.184260   14.692048    ( 0.0000,  0.0000,  2.0000)
  66 Fe     7.477161    7.188130   14.678135    ( 0.0000,  0.0000,  1.5000)
  67 Co     9.952805    7.179334   14.674554    ( 0.0000,  0.0000,  0.0000)
  68 Cr    12.443073    7.188992   14.681100    ( 0.0000,  0.0000,  2.0000)
  69 Cr    14.930068    7.191493   14.686618    ( 0.0000,  0.0000,  0.0000)
  70 Cr     6.231394    9.346900   14.677343    ( 0.0000,  0.0000,  0.0000)
  71 Cr     8.712453    9.336671   14.666629    ( 0.0000,  0.0000,  1.5000)
  72 Cr    11.193692    9.342761   14.657881    ( 0.0000,  0.0000,  1.5000)
  73 Fe    13.688080    9.336294   14.678986    ( 0.0000,  0.0000,  2.1000)
  74 Co    16.181709    9.338601   14.679603    ( 0.0000,  0.0000,  2.0000)
  75 Fe    12.451515    1.431333   16.739956    ( 0.0000,  0.0000,  2.0000)
  76 Ni     2.493173    1.440441   16.729476    ( 0.0000,  0.0000,  1.5000)
  77 Fe     4.973378    1.437348   16.717295    ( 0.0000,  0.0000,  1.5000)
  78 Ni     7.475017    1.438609   16.711571    ( 0.0000,  0.0000,  2.0000)
  79 Fe     9.955789    1.433845   16.723048    ( 0.0000,  0.0000,  2.1000)
  80 Fe    13.696559    3.594351   16.715270    ( 0.0000,  0.0000,  2.1000)
  81 Co     3.730077    3.579487   16.736903    ( 0.0000,  0.0000,  2.0000)
  82 Fe     6.225541    3.599416   16.704614    ( 0.0000,  0.0000,  1.5000)
  83 Co     8.709257    3.594792   16.716150    ( 0.0000,  0.0000,  2.1000)
  84 Ni    11.199463    3.603674   16.739691    ( 0.0000,  0.0000,  2.0000)
  85 Ni    14.943900    5.737718   16.712745    ( 0.0000,  0.0000,  1.5000)
  86 Fe     4.972339    5.736543   16.726893    ( 0.0000,  0.0000,  1.5000)
  87 Ni     7.458804    5.749316   16.714624    ( 0.0000,  0.0000,  2.1000)
  88 Fe     9.954095    5.748637   16.721228    ( 0.0000,  0.0000,  2.0000)
  89 Co    12.462014    5.747344   16.728743    ( 0.0000,  0.0000,  2.0000)
  90 Fe    16.183410    7.912818   16.742715    ( 0.0000,  0.0000,  2.0000)
  91 Ni     6.219087    7.908313   16.727040    ( 0.0000,  0.0000,  2.1000)
  92 Co     8.705037    7.899237   16.717853    ( 0.0000,  0.0000,  1.5000)
  93 Ni    11.200247    7.900293   16.707726    ( 0.0000,  0.0000,  2.0000)
  94 Co    13.685904    7.915049   16.733058    ( 0.0000,  0.0000,  2.0000)
  95 Fe    17.435836   10.053955   16.714183    ( 0.0000,  0.0000,  2.1000)
  96 Fe     7.479895   10.064335   16.723694    ( 0.0000,  0.0000,  2.1000)
  97 Ni     9.948438   10.062297   16.717999    ( 0.0000,  0.0000,  2.0000)
  98 Ni    12.430846   10.066016   16.706229    ( 0.0000,  0.0000,  2.1000)
  99 Cr    14.931465   10.060206   16.719819    ( 0.0000,  0.0000,  2.0000)
 100 Ni     0.001393   -0.001477   18.721348    ( 0.0000,  0.0000,  2.1000)
 101 Co     8.706806   10.779893   18.727160    ( 0.0000,  0.0000,  2.1000)
 102 Fe    11.204107   10.781618   18.717855    ( 0.0000,  0.0000,  1.5000)
 103 Fe     7.469960    0.013195   18.707875    ( 0.0000,  0.0000,  2.0000)
 104 Ni    16.181919   10.775754   18.709108    ( 0.0000,  0.0000,  2.1000)
 105 Fe     1.248004    2.161303   18.718354    ( 0.0000,  0.0000,  2.1000)
 106 Ni     3.733315    2.155634   18.745800    ( 0.0000,  0.0000,  1.5000)
 107 Co     6.228574    2.157186   18.698042    ( 0.0000,  0.0000,  2.0000)
 108 Co     8.707430    2.146688   18.721378    ( 0.0000,  0.0000,  1.5000)
 109 Ni    11.204420    2.145825   18.737698    ( 0.0000,  0.0000,  0.0000)
 110 Cr     2.490030    4.312410   18.723374    ( 0.0000,  0.0000,  2.1000)
 111 Ni     4.985099    4.302214   18.737992    ( 0.0000,  0.0000,  1.5000)
 112 Cr     7.468273    4.307150   18.718736    ( 0.0000,  0.0000,  1.5000)
 113 Co     9.951365    4.318112   18.731387    ( 0.0000,  0.0000,  1.5000)
 114 Fe    12.445275    4.305296   18.744537    ( 0.0000,  0.0000,  0.0000)
 115 Co     3.740863    6.459076   18.741044    ( 0.0000,  0.0000,  0.0000)
 116 Cr     6.217689    6.472786   18.736054    ( 0.0000,  0.0000,  1.5000)
 117 Cr     8.709004    6.465931   18.718354    ( 0.0000,  0.0000,  0.0000)
 118 Ni    11.207929    6.465576   18.705468    ( 0.0000,  0.0000,  2.1000)
 119 Co    13.697451    6.465489   18.739900    ( 0.0000,  0.0000,  0.0000)
 120 Ni     4.983428    8.632721   18.739518    ( 0.0000,  0.0000,  1.5000)
 121 Ni     7.469224    8.629196   18.723022    ( 0.0000,  0.0000,  1.5000)
 122 Co     9.951770    8.622740   18.693815    ( 0.0000,  0.0000,  2.1000)
 123 Fe    12.435945    8.632257   18.713130    ( 0.0000,  0.0000,  0.0000)
 124 Cr    14.940770    8.642831   18.751406    ( 0.0000,  0.0000,  0.0000)

Unit cell:
           periodic     x           y           z      points  spacing
  1. axis:    yes   12.446800    0.000000    0.000000    54     0.1996
  2. axis:    yes    6.223010   10.778600    0.000000    54     0.1996
  3. axis:    no     0.000000    0.000000   29.353100   128     0.2293

  Lengths:  12.446800  12.446046  29.353100
  Angles:   90.000000  90.000000  60.000070

Effective grid spacing dv^(1/3) = 0.2193

     iter     time        total  log10-change:  magmom
                         energy  eigst   dens
iter:   1 09:56:56 -1139.854936                  +175.5309
iter:   2 10:02:02 -2077.263311  +0.52  -1.18    +138.6163
iter:   3 10:07:06 -2050.370374  +0.99  -0.86    +110.4213
iter:   4 10:12:09 -1176.867553  -0.33  -0.83    +74.6303
iter:   5 10:17:10 -1044.774084  -1.24  -1.20    +57.0103
iter:   6 10:22:10 -1029.754025  -1.78  -1.33    +43.1598
iter:   7 10:27:09 -1011.724490  -1.71  -1.36    +39.7209
iter:   8 10:32:10 -1068.908113  -1.14  -1.40    +41.1465
iter:   9 10:37:09 -1138.210716  -1.18  -1.25    +40.8024
iter:  10 10:42:10 -1011.240881  -1.57  -1.14    +36.7585
iter:  11 10:47:10  -996.303166  -1.92  -1.43    +35.7698
iter:  12 10:52:12  -993.891553  -1.74  -1.50    +36.7299
iter:  13 10:57:14 -1001.679450  -1.78  -1.57    +38.5819
iter:  14 11:02:15  -988.336893  -1.71  -1.51    +40.2173
iter:  15 11:07:06 -1112.792643  -1.35  -1.73    +42.3956
iter:  16 11:11:53 -1034.501596  -1.47  -1.24    +41.5083
iter:  17 11:16:39  -998.478736  -1.95  -1.39    +38.3452
iter:  18 11:21:25  -989.855221  -2.40  -1.65    +39.4036
iter:  19 11:26:10  -990.588135  -2.05  -1.79    +40.5589
iter:  20 11:30:56  -989.053804  -2.39  -1.78    +42.7299
iter:  21 11:35:40  -989.754786  -2.48  -1.82    +46.4136
iter:  22 11:40:25  -999.596173  -2.43  -1.84    +48.6465
iter:  23 11:45:09 -1020.451613  -1.90  -1.68    +48.8476
iter:  24 11:49:54  -988.990965  -2.28  -1.50    +48.9099
iter:  25 11:54:56  -989.025198  -3.08  -1.91    +51.8662
iter:  26 11:59:44  -989.381935  -2.88  -1.96    +54.9003
iter:  27 12:04:31  -989.226907  -3.19  -1.98    +56.2940
iter:  28 12:09:18  -990.332527  -2.95  -2.03    +58.3507
iter:  29 12:14:02  -998.905848  -2.54  -2.04    +60.3660
iter:  30 12:18:46  -994.037926  -2.35  -1.77    +59.7344
iter:  31 12:23:30  -991.756510  -2.65  -1.95    +60.8216
iter:  32 12:28:15  -992.081370  -2.78  -2.13    +61.7917
iter:  33 12:33:01  -991.434219  -2.84  -2.11    +62.2186
iter:  34 12:37:46  -990.760403  -3.25  -2.19    +63.5684
iter:  35 12:42:32  -991.021006  -3.50  -2.34    +64.9831
iter:  36 12:47:17  -991.167610  -3.60  -2.37    +66.5140
iter:  37 12:52:03  -991.759746  -3.27  -2.38    +67.7908
iter:  38 12:56:47  -991.550841  -3.57  -2.31    +67.3082
iter:  39 13:01:31  -991.629956  -3.64  -2.38    +67.5601
iter:  40 13:06:34  -991.844486  -3.59  -2.41    +68.3652
iter:  41 13:11:24  -991.867166  -3.50  -2.40    +68.3664
iter:  42 13:16:13  -992.210156  -3.30  -2.55    +68.1323
iter:  43 13:21:01  -992.146565  -3.44  -2.48    +68.4322
iter:  44 13:25:48  -992.539445  -3.46  -2.55    +69.0165
iter:  45 13:30:34  -992.163652  -3.68  -2.41    +69.0054
iter:  46 13:35:21  -992.238044  -3.77  -2.65    +68.8564
iter:  47 13:40:06  -992.204407c -4.22  -2.68    +69.3174
iter:  48 13:44:50  -992.399930  -3.97  -2.82    +69.5421
iter:  49 13:49:51  -992.321521  -4.23  -2.64    +69.7841
iter:  50 13:54:38  -992.556918  -4.00  -2.78    +69.8979
iter:  51 13:59:26  -992.398339  -4.39  -2.56    +69.7264
iter:  52 14:04:12  -992.461645  -4.32  -2.73    +69.5649
iter:  53 14:08:58  -992.580957  -3.82  -2.71    +69.5186
iter:  54 14:13:42  -992.627747  -4.07  -2.69    +69.6506
iter:  55 14:18:28  -992.706837  -4.03  -2.66    +69.7577
iter:  56 14:23:14  -992.996335  -3.95  -2.65    +69.9990
iter:  57 14:27:59  -992.661759  -3.73  -2.49    +70.0074
iter:  58 14:32:44  -993.034671  -3.69  -2.64    +70.3240
iter:  59 14:37:29  -992.824497  -3.65  -2.43    +70.4718
iter:  60 14:42:31  -992.717258  -3.87  -2.59    +70.5287
iter:  61 14:47:20  -992.764671c -4.16  -2.71    +70.9024
iter:  62 14:52:07  -992.797127c -4.27  -2.69    +71.2054
iter:  63 14:56:52  -992.797689c -4.37  -2.72    +71.3220
iter:  64 15:01:38  -993.083230  -4.02  -2.76    +71.5162
iter:  65 15:06:25  -992.864851  -4.01  -2.51    +71.7638
iter:  66 15:11:14  -992.884391  -4.13  -2.75    +71.8938
iter:  67 15:16:07  -992.890309c -4.25  -2.75    +71.8993
iter:  68 15:21:10  -992.911274c -4.21  -2.81    +72.0862
iter:  69 15:26:02  -992.939506c -4.07  -2.80    +72.3821
iter:  70 15:30:53  -993.188911  -4.03  -2.79    +72.6278
iter:  71 15:35:43  -992.914606  -4.37  -2.51    +72.5168
iter:  72 15:40:33  -992.924247  -4.50  -2.89    +72.5936
iter:  73 15:45:23  -992.923888c -4.85  -2.91    +72.7087
iter:  74 15:50:20  -992.933342c -5.02  -2.92    +72.8360
iter:  75 15:55:17  -992.954899c -4.42  -2.93    +72.9519
iter:  76 16:00:07  -993.603359  -3.81  -2.94    +73.0222
iter:  77 16:04:58  -992.971814  -3.92  -2.38    +73.0618
iter:  78 16:09:48  -992.947262  -4.41  -2.94    +73.0844
iter:  79 16:14:37  -992.949363c -4.72  -3.17    +73.0214
iter:  80 16:19:40  -992.947697c -4.98  -3.19    +73.1035
iter:  81 16:24:30  -992.948236c -5.27  -3.27    +73.1833
iter:  82 16:29:20  -993.011312c -4.74  -3.30    +73.1995
iter:  83 16:34:09  -992.954650c -4.84  -2.89    +73.1804
iter:  84 16:38:58  -992.953082c -5.49  -3.21    +73.1903
iter:  85 16:43:46  -992.953681c -5.52  -3.28    +73.2092
iter:  86 16:48:34  -992.952450c -5.46  -3.32    +73.2138
iter:  87 16:53:21  -992.951932c -5.47  -3.39    +73.2379
iter:  88 16:58:18  -992.956908c -5.63  -3.44    +73.2911
iter:  89 17:03:14  -993.020748c -4.67  -3.32    +73.2759
iter:  90 17:08:03  -992.955450c -4.98  -2.88    +73.2991
iter:  91 17:12:53  -992.953803c -5.47  -3.49    +73.3448
iter:  92 17:17:41  -992.954577c -5.63  -3.61    +73.4591
iter:  93 17:22:30  -992.955875c -5.69  -3.72    +73.4973
iter:  94 17:27:28  -992.955367c -6.21  -3.65    +73.4940
iter:  95 17:32:26  -992.957123c -6.01  -3.81    +73.5284
iter:  96 17:37:16  -992.955838c -6.36  -3.54    +73.5134
iter:  97 17:42:07  -992.956018c -6.37  -3.83    +73.5179
iter:  98 17:46:57  -992.956709c -6.16  -3.88    +73.5338
iter:  99 17:51:45  -992.957211c -6.05  -3.96    +73.5452
iter: 100 17:56:33  -992.957044c -6.33  -3.86    +73.5650
iter: 101 18:01:21  -992.957694c -6.30  -4.08c   +73.5746
iter: 102 18:06:19  -992.959466c -6.02  -3.79    +73.5656
iter: 103 18:11:16  -992.958316c -6.60  -3.64    +73.5845
iter: 104 18:16:05  -992.958161c -6.65  -3.88    +73.6115
iter: 105 18:20:54  -992.958585c -6.66  -4.01c   +73.6403
iter: 106 18:25:44  -992.958954c -6.60  -3.99    +73.6754
iter: 107 18:30:32  -992.960611c -5.80  -3.98    +73.7212
iter: 108 18:35:38  -992.959315c -6.14  -3.57    +73.6858
iter: 109 18:40:32  -992.959407c -6.93  -3.94    +73.6956
iter: 110 18:45:22  -992.958928c -6.80  -3.96    +73.7038
iter: 111 18:50:11  -992.958718c -6.84  -4.10c   +73.6981
iter: 112 18:54:58  -992.958857c -6.92  -4.15c   +73.6911
iter: 113 18:59:48  -992.958992c -6.54  -4.17c   +73.6712
iter: 114 19:04:51  -992.959378c -6.64  -4.03c   +73.6681
iter: 115 19:09:39  -992.959357c -6.91  -4.00c   +73.6833
iter: 116 19:14:28  -992.958957c -6.83  -4.17c   +73.6901
iter: 117 19:19:16  -992.959048c -7.22  -4.15c   +73.6860
iter: 118 19:24:04  -992.959160c -7.48c -4.41c   +73.6881

Converged after 118 iterations.

Dipole moment: (52.259820, 28.319614, -0.001838) |e|*Ang

Total magnetic moment: (0.000000, 0.000000, 73.688052)
Local magnetic moments:
   0 Cr ( 0.000000,  0.000000, -2.338941)
   1 Fe ( 0.000000,  0.000000,  2.472456)
   2 Co ( 0.000000,  0.000000,  1.160477)
   3 Cr ( 0.000000,  0.000000,  2.064026)
   4 Ni ( 0.000000,  0.000000, -0.107064)
   5 Ni ( 0.000000,  0.000000,  0.344796)
   6 Co ( 0.000000,  0.000000,  1.065808)
   7 Cr ( 0.000000,  0.000000, -2.374184)
   8 Co ( 0.000000,  0.000000,  1.090708)
   9 Fe ( 0.000000,  0.000000,  2.329241)
  10 Cr ( 0.000000,  0.000000,  1.530780)
  11 Co ( 0.000000,  0.000000,  1.185472)
  12 Fe ( 0.000000,  0.000000,  2.541874)
  13 Cr ( 0.000000,  0.000000, -2.408474)
  14 Ni ( 0.000000,  0.000000,  0.096692)
  15 Co ( 0.000000,  0.000000, -0.981308)
  16 Co ( 0.000000,  0.000000,  1.308580)
  17 Co ( 0.000000,  0.000000,  1.425488)
  18 Cr ( 0.000000,  0.000000,  1.835546)
  19 Ni ( 0.000000,  0.000000, -0.211380)
  20 Cr ( 0.000000,  0.000000,  1.803137)
  21 Ni ( 0.000000,  0.000000,  0.314170)
  22 Co ( 0.000000,  0.000000,  1.269213)
  23 Co ( 0.000000,  0.000000, -0.995674)
  24 Co ( 0.000000,  0.000000, -1.245797)
  25 Co ( 0.000000,  0.000000,  0.387185)
  26 Fe ( 0.000000,  0.000000,  1.952180)
  27 Cr ( 0.000000,  0.000000, -0.646558)
  28 Fe ( 0.000000,  0.000000, -1.639977)
  29 Cr ( 0.000000,  0.000000,  0.176314)
  30 Fe ( 0.000000,  0.000000,  1.425510)
  31 Fe ( 0.000000,  0.000000,  1.806537)
  32 Ni ( 0.000000,  0.000000,  0.110180)
  33 Fe ( 0.000000,  0.000000, -1.563296)
  34 Cr ( 0.000000,  0.000000, -0.684016)
  35 Cr ( 0.000000,  0.000000, -1.181814)
  36 Fe ( 0.000000,  0.000000,  1.854855)
  37 Ni ( 0.000000,  0.000000,  0.314723)
  38 Ni ( 0.000000,  0.000000,  0.301653)
  39 Fe ( 0.000000,  0.000000,  1.949332)
  40 Cr ( 0.000000,  0.000000, -0.786249)
  41 Fe ( 0.000000,  0.000000,  2.088235)
  42 Co ( 0.000000,  0.000000,  1.423013)
  43 Fe ( 0.000000,  0.000000,  1.728519)
  44 Co ( 0.000000,  0.000000, -0.156864)
  45 Cr ( 0.000000,  0.000000, -0.627044)
  46 Ni ( 0.000000,  0.000000,  0.290442)
  47 Ni ( 0.000000,  0.000000,  0.222358)
  48 Cr ( 0.000000,  0.000000, -0.721520)
  49 Co ( 0.000000,  0.000000, -0.857869)
  50 Cr ( 0.000000,  0.000000, -0.499222)
  51 Ni ( 0.000000,  0.000000,  0.150408)
  52 Fe ( 0.000000,  0.000000,  1.736043)
  53 Cr ( 0.000000,  0.000000, -0.718090)
  54 Fe ( 0.000000,  0.000000,  1.571555)
  55 Cr ( 0.000000,  0.000000, -1.052887)
  56 Fe ( 0.000000,  0.000000,  1.819746)
  57 Cr ( 0.000000,  0.000000, -0.072625)
  58 Ni ( 0.000000,  0.000000,  0.132266)
  59 Ni ( 0.000000,  0.000000,  0.140888)
  60 Co ( 0.000000,  0.000000,  0.835792)
  61 Cr ( 0.000000,  0.000000, -1.584746)
  62 Co ( 0.000000,  0.000000,  1.045893)
  63 Cr ( 0.000000,  0.000000, -1.572566)
  64 Ni ( 0.000000,  0.000000,  0.116055)
  65 Co ( 0.000000,  0.000000,  0.851052)
  66 Fe ( 0.000000,  0.000000,  2.103681)
  67 Co ( 0.000000,  0.000000,  0.672389)
  68 Cr ( 0.000000,  0.000000,  0.502766)
  69 Cr ( 0.000000,  0.000000, -0.416548)
  70 Cr ( 0.000000,  0.000000, -0.889267)
  71 Cr ( 0.000000,  0.000000, -0.701220)
  72 Cr ( 0.000000,  0.000000, -0.042609)
  73 Fe ( 0.000000,  0.000000,  1.462330)
  74 Co ( 0.000000,  0.000000,  0.229950)
  75 Fe ( 0.000000,  0.000000,  2.181495)
  76 Ni ( 0.000000,  0.000000,  0.382449)
  77 Fe ( 0.000000,  0.000000,  2.429624)
  78 Ni ( 0.000000,  0.000000,  0.407189)
  79 Fe ( 0.000000,  0.000000,  2.138727)
  80 Fe ( 0.000000,  0.000000,  2.245957)
  81 Co ( 0.000000,  0.000000,  1.177591)
  82 Fe ( 0.000000,  0.000000,  2.150398)
  83 Co ( 0.000000,  0.000000,  1.269753)
  84 Ni ( 0.000000,  0.000000,  0.492512)
  85 Ni ( 0.000000,  0.000000,  0.339331)
  86 Fe ( 0.000000,  0.000000,  2.215817)
  87 Ni ( 0.000000,  0.000000,  0.243333)
  88 Fe ( 0.000000,  0.000000,  2.307047)
  89 Co ( 0.000000,  0.000000,  1.291770)
  90 Fe ( 0.000000,  0.000000,  2.082476)
  91 Ni ( 0.000000,  0.000000,  0.401827)
  92 Co ( 0.000000,  0.000000,  1.324763)
  93 Ni ( 0.000000,  0.000000,  0.442336)
  94 Co ( 0.000000,  0.000000,  1.027748)
  95 Fe ( 0.000000,  0.000000,  2.086583)
  96 Fe ( 0.000000,  0.000000,  2.196844)
  97 Ni ( 0.000000,  0.000000,  0.474262)
  98 Ni ( 0.000000,  0.000000,  0.433864)
  99 Cr ( 0.000000,  0.000000, -0.791104)
 100 Ni ( 0.000000,  0.000000,  0.648087)
 101 Co ( 0.000000,  0.000000,  1.691835)
 102 Fe ( 0.000000,  0.000000,  2.685111)
 103 Fe ( 0.000000,  0.000000,  2.402532)
 104 Ni ( 0.000000,  0.000000,  0.438107)
 105 Fe ( 0.000000,  0.000000,  2.613037)
 106 Ni ( 0.000000,  0.000000,  0.577207)
 107 Co ( 0.000000,  0.000000,  1.539299)
 108 Co ( 0.000000,  0.000000,  1.571060)
 109 Ni ( 0.000000,  0.000000,  0.669366)
 110 Cr ( 0.000000,  0.000000, -2.550125)
 111 Ni ( 0.000000,  0.000000,  0.417302)
 112 Cr ( 0.000000,  0.000000, -2.292803)
 113 Co ( 0.000000,  0.000000,  1.351669)
 114 Fe ( 0.000000,  0.000000,  2.684391)
 115 Co ( 0.000000,  0.000000,  1.361287)
 116 Cr ( 0.000000,  0.000000,  2.209108)
 117 Cr ( 0.000000,  0.000000, -2.436311)
 118 Ni ( 0.000000,  0.000000,  0.565152)
 119 Co ( 0.000000,  0.000000,  1.515161)
 120 Ni ( 0.000000,  0.000000,  0.442804)
 121 Ni ( 0.000000,  0.000000,  0.459742)
 122 Co ( 0.000000,  0.000000,  1.619263)
 123 Fe ( 0.000000,  0.000000,  2.620910)
 124 Cr ( 0.000000,  0.000000, -2.406393)

Energy contributions relative to reference atoms: (reference = -4451268.207082)

Kinetic:       +248.344095
Potential:     -301.599948
External:        +0.000000
XC:            -982.305070
Entropy (-ST):   -5.687828
Local:          +45.445677
--------------------------
Free energy:   -995.803074
Extrapolated:  -992.959160

Dipole-layer corrected work functions: 4.953843, 4.956322 eV

Spin contamination: 44.047368 electrons
Showing all kpts
                      Up                     Down
 Kpt  Band  Eigenvalues  Occupancy  Eigenvalues  Occupancy
  0   606     -0.01408    0.99411      0.84680    0.02988
  0   607     -0.00571    0.99360      0.85322    0.02807
  0   608      0.00708    0.99273      0.86409    0.02526
  0   609      0.02215    0.99156      0.87959    0.02171

  1   606      0.00784    0.99268      0.84702    0.02982
  1   607      0.01785    0.99191      0.85455    0.02771
  1   608      0.01913    0.99181      0.87058    0.02371
  1   609      0.02304    0.99149      0.88388    0.02081


Fermi level: 0.49878

No gap

Forces in eV/Ang:
  0 Cr    0.16765   -0.04582   -0.45231
  1 Fe    0.13845    0.12295   -0.37169
  2 Co   -0.30678   -0.28129    0.15402
  3 Cr    0.36740   -0.37016   -0.26188
  4 Ni   -0.19644    0.06426   -0.05849
  5 Ni   -0.06822    0.13140   -0.26055
  6 Co   -0.09138   -0.01546    0.03088
  7 Cr   -0.11099    0.37458   -0.25927
  8 Co    0.19313    0.00797    0.25997
  9 Fe    0.09803   -0.07338   -0.10401
 10 Cr    0.23492   -0.08737    0.11153
 11 Co    0.04614    0.13034    0.25616
 12 Fe   -0.19762    0.17734   -0.26832
 13 Cr   -0.25241   -0.06779   -0.11613
 14 Ni    0.27201   -0.16620    0.02492
 15 Co   -0.13238    0.14186    0.32335
 16 Co    0.04226   -0.22171   -0.07377
 17 Co   -0.40309    0.11203    0.08847
 18 Cr    0.22854    0.43027   -0.54595
 19 Ni    0.27948    0.20700    0.18203
 20 Cr   -0.18985   -0.23337   -0.17313
 21 Ni    0.14144   -0.21046    0.00363
 22 Co    0.02575    0.09017    0.11021
 23 Co   -0.25126    0.06770    0.28541
 24 Co   -0.01154   -0.33106    0.33757
 25 Co   -0.20900    0.08332    0.31035
 26 Fe   -0.07893   -0.16091    0.02481
 27 Cr    0.15513    0.02713   -0.59332
 28 Fe    0.02214    0.14066   -0.14128
 29 Cr   -0.08236   -0.17962   -0.25672
 30 Fe   -0.27672    0.04551    0.07729
 31 Fe    0.26116    0.12282   -0.00070
 32 Ni    0.10894   -0.01504    0.44959
 33 Fe   -0.28917   -0.24491   -0.20689
 34 Cr    0.00339    0.05874    0.42852
 35 Cr    0.05121    0.12442   -0.49893
 36 Fe    0.01477   -0.01598   -0.16124
 37 Ni    0.13143    0.16413   -0.16783
 38 Ni   -0.23918   -0.13058    0.08488
 39 Fe   -0.00429   -0.08349   -0.11734
 40 Cr    0.38352    0.19013   -0.21618
 41 Fe   -0.16466    0.18312   -0.15457
 42 Co   -0.07610   -0.00299   -0.02995
 43 Fe   -0.13248   -0.11661    0.24233
 44 Co   -0.01503    0.10592    0.16008
 45 Cr    0.06080   -0.21528   -0.14835
 46 Ni   -0.10698   -0.12568   -0.13444
 47 Ni   -0.07481   -0.25698    0.09127
 48 Cr    0.22972   -0.02551   -0.17669
 49 Co    0.20009    0.02970    0.06812
 50 Cr   -0.26932    0.15166   -0.19136
 51 Ni    0.01088   -0.04953    0.00718
 52 Fe    0.23610    0.04244   -0.26129
 53 Cr    0.03235   -0.12577   -0.13605
 54 Fe    0.18033    0.17436   -0.24708
 55 Cr    0.12290    0.10871    0.23940
 56 Fe   -0.14914   -0.05526   -0.20326
 57 Cr    0.35718   -0.25415   -0.35673
 58 Ni    0.05097   -0.05777   -0.11770
 59 Ni    0.01653   -0.20461   -0.17658
 60 Co    0.09571    0.07294    0.09514
 61 Cr   -0.30928    0.02232   -0.21644
 62 Co   -0.03509   -0.04113   -0.07201
 63 Cr    0.20808    0.06420   -0.23979
 64 Ni   -0.06967    0.06405   -0.17412
 65 Co   -0.10695    0.11815   -0.17240
 66 Fe    0.04482   -0.03540    0.22657
 67 Co   -0.00605    0.21576   -0.24810
 68 Cr   -0.04700    0.04279    0.20955
 69 Cr    0.08295    0.23781   -0.22701
 70 Cr   -0.37361    0.11741   -0.00161
 71 Cr    0.13390    0.02214   -0.03086
 72 Cr    0.17646   -0.17211    0.13324
 73 Fe    0.09547   -0.05167   -0.17727
 74 Co   -0.06339   -0.15890   -0.24220
 75 Fe   -0.13630    0.08998   -0.44577
 76 Ni   -0.00593   -0.09519   -0.02370
 77 Fe   -0.10315    0.11420    0.02885
 78 Ni   -0.12926    0.07998    0.03310
 79 Fe   -0.23743    0.22178    0.01276
 80 Fe   -0.02459    0.15320   -0.21571
 81 Co    0.25993    0.06707    0.08611
 82 Fe    0.07867    0.01029    0.45179
 83 Co   -0.14232   -0.11899    0.22273
 84 Ni    0.07975   -0.12428   -0.08692
 85 Ni   -0.08873    0.36119    0.21517
 86 Fe   -0.43077   -0.14416   -0.40906
 87 Ni    0.09917    0.05973   -0.20924
 88 Fe    0.07803    0.01176   -0.00403
 89 Co   -0.07357    0.15605    0.17509
 90 Fe   -0.12742   -0.08441    0.05538
 91 Ni    0.14870   -0.12456   -0.31975
 92 Co   -0.05499    0.12602   -0.02687
 93 Ni   -0.07142    0.13953   -0.15955
 94 Co    0.13084   -0.17422   -0.12291
 95 Fe   -0.27919   -0.09774    0.14991
 96 Fe    0.30660   -0.20362    0.17856
 97 Ni   -0.03733   -0.10156   -0.08517
 98 Ni    0.27516   -0.04857   -0.11951
 99 Cr   -0.05259   -0.04226   -0.31725
100 Ni    0.03841   -0.01544    0.32928
101 Co   -0.03238   -0.20401    0.08337
102 Fe   -0.13930    0.01999    0.63477
103 Fe    0.08794    0.11553    0.24426
104 Ni    0.08185    0.14899    0.41016
105 Fe    0.07867   -0.42738    0.50312
106 Ni    0.20535    0.04691    0.01761
107 Co   -0.17329    0.05414    0.23143
108 Co    0.19060    0.16666   -0.12988
109 Ni   -0.11966    0.09266    0.21928
110 Cr    0.13003   -0.02086    0.38264
111 Ni   -0.10873   -0.19211    0.12555
112 Cr   -0.21004   -0.87490    0.21955
113 Co   -0.12261   -0.15511   -0.14573
114 Fe   -0.42997    0.31237    0.15477
115 Co   -0.19162    0.15642   -0.21193
116 Cr    0.28640   -0.04457    0.69050
117 Cr    0.64954    0.70954    0.47042
118 Ni    0.04790   -0.05452    0.35358
119 Co   -0.00703    0.03556   -0.44367
120 Ni   -0.07491    0.11490    0.17086
121 Ni    0.12753    0.28647    0.15438
122 Co   -0.21078    0.17892    0.12030
123 Fe   -0.03901   -0.22271    0.25532
124 Cr    0.14911   -0.36749    0.55225

Timing:                              incl.     excl.
-----------------------------------------------------------
Forces:                             56.139    56.139   0.2% |
Hamiltonian:                         3.144     0.034   0.0% |
 Atomic:                             0.439     0.003   0.0% |
  XC Correction:                     0.435     0.435   0.0% |
 Calculate atomic Hamiltonians:      1.663     1.663   0.0% |
 Communicate:                        0.077     0.077   0.0% |
 Initialize Hamiltonian:             0.001     0.001   0.0% |
 Poisson:                            0.289     0.289   0.0% |
 XC 3D grid:                         0.641     0.641   0.0% |
LCAO initialization:               512.533     0.508   0.0% |
 LCAO eigensolver:                  37.603     0.051   0.0% |
  Calculate projections:             0.000     0.000   0.0% |
  DenseAtomicCorrection:             0.000     0.000   0.0% |
  Distribute overlap matrix:        17.214    17.214   0.0% |
  Orbital Layouts:                  20.218    20.218   0.1% |
  Potential matrix:                  0.010     0.010   0.0% |
  Sum over cells:                    0.110     0.110   0.0% |
 LCAO to grid:                     470.737   470.737   1.3% ||
 Set positions (LCAO WFS):           3.685     3.181   0.0% |
  Basic WFS set positions:           0.005     0.005   0.0% |
  Basis functions set positions:     0.001     0.001   0.0% |
  P tci:                             0.000     0.000   0.0% |
  ST tci:                            0.197     0.197   0.0% |
  mktci:                             0.302     0.302   0.0% |
PWDescriptor:                        0.423     0.423   0.0% |
SCF-cycle:                       34349.742     1.793   0.0% |
 Davidson:                       33198.199  7891.452  22.6% |--------|
  Apply H:                         647.969   632.298   1.8% ||
   HMM T:                           15.671    15.671   0.0% |
  Subspace diag:                  2852.569     0.120   0.0% |
   calc_h_matrix:                 1309.040   703.359   2.0% ||
    Apply H:                       605.681   586.870   1.7% ||
     HMM T:                         18.811    18.811   0.1% |
   diagonalize:                    246.717   246.717   0.7% |
   rotate_psi:                    1296.692  1296.692   3.7% ||
  calc. matrices:                 6568.919  5441.521  15.6% |-----|
   Apply H:                       1127.397  1090.480   3.1% ||
    HMM T:                          36.917    36.917   0.1% |
  diagonalize:                   12468.457 12468.457  35.7% |-------------|
  rotate_psi:                     2768.833  2768.833   7.9% |--|
 Density:                          705.990     0.007   0.0% |
  Atomic density matrices:           4.978     4.978   0.0% |
  Mix:                             348.609   348.609   1.0% |
  Multipole moments:                 0.124     0.124   0.0% |
  Pseudo density:                  352.272   352.260   1.0% |
   Symmetrize density:               0.012     0.012   0.0% |
 Hamiltonian:                      416.597     3.522   0.0% |
  Atomic:                           52.104     0.350   0.0% |
   XC Correction:                   51.754    51.754   0.1% |
  Calculate atomic Hamiltonians:   263.632   263.632   0.8% |
  Communicate:                       8.748     8.748   0.0% |
  Poisson:                           9.429     9.429   0.0% |
  XC 3D grid:                       79.162    79.162   0.2% |
 Orthonormalize:                    27.164     0.002   0.0% |
  calc_s_matrix:                     3.356     3.356   0.0% |
  inverse-cholesky:                  1.301     1.301   0.0% |
  projections:                      17.076    17.076   0.0% |
  rotate_psi_s:                      5.429     5.429   0.0% |
Set symmetry:                        0.002     0.002   0.0% |
Other:                              11.656    11.656   0.0% |
-----------------------------------------------------------
Total:                                     34933.639 100.0%

Date: Tue Apr 18 19:25:05 2023
