
  ___ ___ ___ _ _ _  
 |   |   |_  | | | | 
 | | | | | . | | | | 
 |__ |  _|___|_____|  22.8.0
 |___|_|             

User:   c.zeng@d0024
Date:   Tue Apr 18 21:55:36 2023
Arch:   x86_64
Pid:    77617
CWD:    /home/c.zeng/projects/hea-corrosion/hea-mlp/data-curation/surface-mcmc/dft-jobs/143
Python: 3.8.1
gpaw:   /home/c.zeng/usr/installs/gpaw/source/gpaw-22.8.0/gpaw
_gpaw:  /home/c.zeng/usr/installs/gpaw/source/gpaw-22.8.0/
        _gpaw.cpython-38-x86_64-linux-gnu.so
ase:    /home/c.zeng/.local/lib/python3.8/site-packages/ase-3.22.1-py3.8.egg/ase (version 3.22.1)
numpy:  /home/c.zeng/.local/lib/python3.8/site-packages/numpy (version 1.24.2)
scipy:  /home/c.zeng/.local/lib/python3.8/site-packages/scipy (version 1.10.1)
libxc:  4.2.3
units:  Angstrom and eV
cores: 30
OpenMP: False
OMP_NUM_THREADS: 1

Input parameters:
  convergence: {energy: 0.0001}
  kpts: [2 2 1]
  maxiter: 666
  mode: {ecut: 350.0,
         name: pw}
  occupations: {fixmagmom: False,
                name: fermi-dirac,
                width: 0.1}
  poissonsolver: {dipolelayer: xy}
  spinpol: True
  symmetry: {point_group: False}
  xc: PBE

System changes: positions, numbers, cell, pbc, initial_charges, initial_magmoms 

Initialize ...

species:
  Fe:
    name: Iron
    id: 37abbd8d6c3c35915a9b583b742da910
    Z: 26.0
    valence: 8
    core: 18
    charge: 0.0
    file: /home/c.zeng/usr/data/gpaw-setups-0.9.20000/Fe.PBE.gz
    compensation charges: {type: gauss,
                           rc: 0.33,
                           lmax: 2}
    cutoffs: {filter: 2.06,
              core: 2.67}
    valence states:
      #              energy  rcut
      - 4s(2.00)    -5.291   1.164
      - 4p(0.00)    -1.326   1.058
      - 3d(6.00)    -7.505   1.058
      -  s          21.920   1.164
      -  p          25.885   1.058
      -  d          19.706   1.058
  
    # Using partial waves for Fe as LCAO basis

  Cr:
    name: Chromium
    id: 33f258bda2ca9f93018e70263a35547b
    Z: 24.0
    valence: 6
    core: 18
    charge: 0.0
    file: /home/c.zeng/usr/data/gpaw-setups-0.9.20000/Cr.PBE.gz
    compensation charges: {type: gauss,
                           rc: 0.35,
                           lmax: 2}
    cutoffs: {filter: 2.14,
              core: 3.04}
    valence states:
      #              energy  rcut
      - 4s(1.00)    -4.007   1.164
      - 4p(0.00)    -0.989   1.217
      - 3d(5.00)    -2.913   1.111
      -  s          23.205   1.164
      -  p          26.223   1.217
      -  d          24.299   1.111
  
    # Using partial waves for Cr as LCAO basis

  Al:
    name: Aluminium
    id: 0292cae29f5d6237e50f6abdd43a7bdd
    Z: 13.0
    valence: 3
    core: 10
    charge: 0.0
    file: /home/c.zeng/usr/data/gpaw-setups-0.9.20000/Al.PBE.gz
    compensation charges: {type: gauss,
                           rc: 0.34,
                           lmax: 2}
    cutoffs: {filter: 1.91,
              core: 2.36}
    valence states:
      #              energy  rcut
      - 3s(2.00)    -7.753   1.085
      - 3p(1.00)    -2.712   1.085
      -  s          19.459   1.085
      -  p          24.499   1.085
      -  d           0.000   1.085
  
    # Using partial waves for Al as LCAO basis

  Co:
    name: Cobalt
    id: 339d20d5b0b93d2de9531a1bee871d91
    Z: 27.0
    valence: 9
    core: 18
    charge: 0.0
    file: /home/c.zeng/usr/data/gpaw-setups-0.9.20000/Co.PBE.gz
    compensation charges: {type: gauss,
                           rc: 0.32,
                           lmax: 2}
    cutoffs: {filter: 1.87,
              core: 2.55}
    valence states:
      #              energy  rcut
      - 4s(2.00)    -5.469   1.005
      - 4p(0.00)    -1.277   1.058
      - 3d(7.00)    -8.205   1.005
      -  s          21.742   1.005
      -  p          25.934   1.058
      -  d          19.007   1.005
  
    # Using partial waves for Co as LCAO basis

  Ni:
    name: Nickel
    id: 0d9f38a9d6e76a2886f07bb4381f212b
    Z: 28.0
    valence: 16
    core: 12
    charge: 0.0
    file: /home/c.zeng/usr/data/gpaw-setups-0.9.20000/Ni.PBE.gz
    compensation charges: {type: gauss,
                           rc: 0.36,
                           lmax: 2}
    cutoffs: {filter: 2.14,
              core: 1.98}
    valence states:
      #              energy  rcut
      - 4s(2.00)    -5.642   1.164
      - 3p(6.00)   -71.394   1.207
      - 4p(0.00)    -1.226   1.207
      - 3d(8.00)    -8.875   1.138
      -  s          21.570   1.164
      -  d          18.337   1.138
  
    # Using partial waves for Ni as LCAO basis

Reference energy: -4103091.665053  # eV

Spin-polarized calculation.
Magnetic moment: 158.800000

Convergence criteria:
 Maximum [total energy] change in last 3 cyles: 0.0001 eV / electron
 Maximum integral of absolute [dens]ity change: 0.0001 electrons / valence electron
 Maximum integral of absolute [eigenst]ate change: 4e-08 eV^2 / valence electron
 Maximum number of scf [iter]ations: 666
 (Square brackets indicate name in SCF output, whereas a 'c' in
 the SCF output indicates the quantity has converged.)

Symmetries present (total): 1

  ( 1  0  0)
  ( 0  1  0)
  ( 0  0  1)

4 k-points: 2 x 2 x 1 Monkhorst-Pack grid
2 k-points in the irreducible part of the Brillouin zone
       k-points in crystal coordinates                weights
   0:     0.25000000   -0.25000000    0.00000000          2/4
   1:     0.25000000    0.25000000    0.00000000          2/4

Wave functions: Plane wave expansion
  Cutoff energy: 350.000 eV
  Number of coefficients (min, max): 59263, 59339
  Pulay-stress correction: 0.000000 eV/Ang^3 (de/decut=0.000000)
  Using FFTW library
  ScaLapack parameters: grid=1x1, blocksize=None
  Wavefunction extrapolation:
    Improved wavefunction reuse through dual PAW basis 

Occupation numbers: Fermi-Dirac:
  width: 0.1000  # eV
 

Eigensolver
   Davidson(niter=2) 

Densities:
  Coarse grid: 56*56*128 grid
  Fine grid: 112*112*256 grid
  Total Charge: 0.000000 

Density mixing:
  Method: difference
  Backend: pulay
  Linear mixing parameter: 0.05
  old densities: 5
  Damping of long wavelength oscillations: 50 

Hamiltonian:
  XC and Coulomb potentials evaluated on a 112*112*256 grid
  Using the PBE Exchange-Correlation functional
  External potential:
    NoExternalPotential
 

XC parameters: PBE with 2 nearest neighbor stencil

Memory estimate:
  Process memory now: 379.29 MiB
  Calculator: 2263.81 MiB
    Density: 18.78 MiB
      Arrays: 7.39 MiB
      Localized functions: 8.44 MiB
      Mixer: 2.95 MiB
    Hamiltonian: 5.74 MiB
      Arrays: 5.49 MiB
      XC: 0.00 MiB
      Poisson: 0.00 MiB
      vbar: 0.26 MiB
    Wavefunctions: 2239.28 MiB
      Arrays psit_nG: 1414.30 MiB
      Eigensolver: 804.77 MiB
      Projections: 3.48 MiB
      Projectors: 1.15 MiB
      PW-descriptor: 15.58 MiB

Total number of cores used: 30
Parallelization over k-points: 2
Domain decomposition: 1 x 3 x 5

Number of atoms: 125
Number of atomic orbitals: 1149
Number of bands in calculation: 781
Number of valence electrons: 1136
Bands to converge: occupied

... initialized

Initializing position-dependent things.

Density initialized from atomic densities
Creating initial wave functions:
  781 bands from LCAO basis set

                                                                  
                                                                  
                                                                  
                                                                  
                                               Cr     Al          
                         Co    Ni    Al    Ni    Cr               
                                                                  
                          Cr    NNi   CFe   CNi   CNi   Co        
                Al    Cr   AFe   CFe    FFe   Al    Fe            
           Ni     Fe    Fe    Ni    Ni                            
                       Ni   FCo   CCr    Co    Co    Ni           
       Co    Fe   NCr   NNi   CAl    Cr   CCo   Co                
              Ni    Fe    Fe     Fe Ni Cr      Fe     Fe          
                   Fe    CCr   FCo   CCr   FCr   Al               
               Cr    Al    Ni     Co   FCr                        
           Cr    Ni    Co    Co NCoCr Cr    NNi   FCo   Al        
                      Ni   CNi   NCo    AFe   FNi   Co            
                  Ni    Fe   FCo   CCr   NCr    Ni                
       Co    Co        Cr                                         
                  FCr    Al    Co    Cr    Fe                     
              Cr    Fe    Fe     Cr    Fe                         
                                                                  
                                                                  
                                                                  
                                                                  
                                                                  

Positions:
   0 Fe    12.533128    1.440034   10.429626    ( 0.0000,  0.0000,  0.0000)
   1 Cr     2.529984    1.448599   10.596851    ( 0.0000,  0.0000,  1.5000)
   2 Fe     5.001844    1.491107   10.507206    ( 0.0000,  0.0000,  2.0000)
   3 Fe     7.517470    1.481371   10.443804    ( 0.0000,  0.0000,  0.0000)
   4 Cr     9.992855    1.449769   10.527665    ( 0.0000,  0.0000,  1.5000)
   5 Fe    13.789466    3.650838   10.562420    ( 0.0000,  0.0000,  0.0000)
   6 Fe     3.743028    3.607376   10.509643    ( 0.0000,  0.0000,  2.0000)
   7 Al     6.277985    3.603907   10.508586    ( 0.0000,  0.0000,  2.1000)
   8 Co     8.774670    3.629318   10.567703    ( 0.0000,  0.0000,  2.0000)
   9 Cr    11.256667    3.628289   10.556285    ( 0.0000,  0.0000,  1.5000)
  10 Ni    15.035471    5.774902   10.514867    ( 0.0000,  0.0000,  1.5000)
  11 Cr     5.000253    5.778068   10.458099    ( 0.0000,  0.0000,  0.0000)
  12 Fe     7.492975    5.732719   10.527548    ( 0.0000,  0.0000,  2.1000)
  13 Co    10.032594    5.738715   10.521208    ( 0.0000,  0.0000,  0.0000)
  14 Ni    12.531668    5.773428   10.506590    ( 0.0000,  0.0000,  0.0000)
  15 Co    16.282097    7.932335   10.424460    ( 0.0000,  0.0000,  1.5000)
  16 Cr     6.249076    7.915716   10.493733    ( 0.0000,  0.0000,  2.1000)
  17 Ni     8.739103    7.939274   10.318290    ( 0.0000,  0.0000,  0.0000)
  18 Al    11.262833    7.889621   10.504036    ( 0.0000,  0.0000,  2.1000)
  19 Fe    13.767197    7.897384   10.366605    ( 0.0000,  0.0000,  2.0000)
  20 Al    17.517670   10.103092   10.481904    ( 0.0000,  0.0000,  0.0000)
  21 Ni     7.497936   10.110681   10.626409    ( 0.0000,  0.0000,  2.0000)
  22 Cr     9.976265   10.147183   10.547802    ( 0.0000,  0.0000,  2.1000)
  23 Ni    12.481525   10.098897   10.273937    ( 0.0000,  0.0000,  0.0000)
  24 Fe    15.038329   10.106659   10.411838    ( 0.0000,  0.0000,  1.5000)
  25 Co     0.029584    0.040775   12.611442    ( 0.0000,  0.0000,  2.0000)
  26 Co     2.524286    0.017743   12.625649    ( 0.0000,  0.0000,  2.0000)
  27 Cr     5.009931    0.016306   12.476653    ( 0.0000,  0.0000,  2.0000)
  28 Fe    13.725795   10.834823   12.477504    ( 0.0000,  0.0000,  0.0000)
  29 Fe    16.291616   10.839907   12.543255    ( 0.0000,  0.0000,  2.0000)
  30 Cr    13.787334    2.177261   12.583938    ( 0.0000,  0.0000,  2.0000)
  31 Ni     3.767898    2.156913   12.580445    ( 0.0000,  0.0000,  0.0000)
  32 Fe     6.250320    2.155536   12.545368    ( 0.0000,  0.0000,  0.0000)
  33 Co     8.760760    2.165922   12.631314    ( 0.0000,  0.0000,  0.0000)
  34 Cr    11.291091    2.189404   12.569467    ( 0.0000,  0.0000,  2.0000)
  35 Ni    15.015728    4.333177   12.562892    ( 0.0000,  0.0000,  2.0000)
  36 Ni     5.006820    4.331518   12.549301    ( 0.0000,  0.0000,  0.0000)
  37 Ni     7.536414    4.362058   12.589016    ( 0.0000,  0.0000,  0.0000)
  38 Co    10.033535    4.360377   12.602577    ( 0.0000,  0.0000,  1.5000)
  39 Fe    12.523539    4.334760   12.563508    ( 0.0000,  0.0000,  2.0000)
  40 Co    16.274251    6.492117   12.533950    ( 0.0000,  0.0000,  1.5000)
  41 Co     6.308192    6.475432   12.559751    ( 0.0000,  0.0000,  2.1000)
  42 Co     8.776271    6.490035   12.490008    ( 0.0000,  0.0000,  2.0000)
  43 Fe    11.278289    6.490805   12.557021    ( 0.0000,  0.0000,  1.5000)
  44 Ni    13.752272    6.468516   12.517952    ( 0.0000,  0.0000,  2.1000)
  45 Cr     5.108056    8.658624   12.557785    ( 0.0000,  0.0000,  0.0000)
  46 Fe     7.566363    8.646547   12.581003    ( 0.0000,  0.0000,  1.5000)
  47 Co     9.994311    8.654038   12.473248    ( 0.0000,  0.0000,  2.0000)
  48 Fe    12.478693    8.644812   12.462622    ( 0.0000,  0.0000,  2.1000)
  49 Al    14.946058    8.624518   12.480087    ( 0.0000,  0.0000,  0.0000)
  50 Cr     1.256201    0.763084   14.702997    ( 0.0000,  0.0000,  2.1000)
  51 Ni     3.741141    0.768517   14.684241    ( 0.0000,  0.0000,  1.5000)
  52 Co     6.299995    0.774666   14.698271    ( 0.0000,  0.0000,  0.0000)
  53 Co     8.776010    0.777622   14.780255    ( 0.0000,  0.0000,  2.1000)
  54 Cr    11.299537    0.773215   14.649927    ( 0.0000,  0.0000,  1.5000)
  55 Cr     2.503641    2.894650   14.677166    ( 0.0000,  0.0000,  1.5000)
  56 Al     5.003149    2.898769   14.726979    ( 0.0000,  0.0000,  1.5000)
  57 Ni     7.507897    2.915183   14.810283    ( 0.0000,  0.0000,  0.0000)
  58 Co    10.051236    2.911302   14.719875    ( 0.0000,  0.0000,  1.5000)
  59 Cr    12.558998    2.904027   14.656326    ( 0.0000,  0.0000,  2.0000)
  60 Fe     3.714729    5.068312   14.654653    ( 0.0000,  0.0000,  0.0000)
  61 Cr     6.295139    5.069515   14.699915    ( 0.0000,  0.0000,  0.0000)
  62 Co     8.776914    5.060506   14.664779    ( 0.0000,  0.0000,  2.1000)
  63 Cr    11.297436    5.056712   14.652715    ( 0.0000,  0.0000,  0.0000)
  64 Cr    13.775594    5.062599   14.637129    ( 0.0000,  0.0000,  0.0000)
  65 Ni     5.020095    7.203792   14.693017    ( 0.0000,  0.0000,  1.5000)
  66 Cr     7.527582    7.223934   14.646111    ( 0.0000,  0.0000,  2.0000)
  67 Ni    10.007193    7.208139   14.579832    ( 0.0000,  0.0000,  2.1000)
  68 Co    12.551373    7.215565   14.635837    ( 0.0000,  0.0000,  1.5000)
  69 Co    15.022437    7.200789   14.781399    ( 0.0000,  0.0000,  2.1000)
  70 Fe     6.300157    9.420840   14.712918    ( 0.0000,  0.0000,  2.1000)
  71 Co     8.732283    9.401749   14.673585    ( 0.0000,  0.0000,  0.0000)
  72 Al    11.263746    9.439649   14.574753    ( 0.0000,  0.0000,  0.0000)
  73 Cr    13.786012    9.419517   14.774443    ( 0.0000,  0.0000,  0.0000)
  74 Ni    16.298882    9.432071   14.813071    ( 0.0000,  0.0000,  0.0000)
  75 Cr    12.551235    1.460849   16.768751    ( 0.0000,  0.0000,  2.0000)
  76 Ni     2.485776    1.461489   16.791235    ( 0.0000,  0.0000,  2.0000)
  77 Fe     4.988873    1.437953   16.800129    ( 0.0000,  0.0000,  0.0000)
  78 Fe     7.521264    1.441801   16.853904    ( 0.0000,  0.0000,  2.1000)
  79 Fe    10.041408    1.441801   16.816508    ( 0.0000,  0.0000,  0.0000)
  80 Co    13.786651    3.599104   16.753634    ( 0.0000,  0.0000,  2.1000)
  81 Ni     3.751487    3.571785   16.825197    ( 0.0000,  0.0000,  0.0000)
  82 Ni     6.255931    3.593012   16.814131    ( 0.0000,  0.0000,  1.5000)
  83 Al     8.779489    3.570907   16.858483    ( 0.0000,  0.0000,  2.0000)
  84 Cr    11.301319    3.615409   16.751961    ( 0.0000,  0.0000,  1.5000)
  85 Co    14.996321    5.774306   16.825755    ( 0.0000,  0.0000,  1.5000)
  86 Ni     4.982905    5.789733   16.828220    ( 0.0000,  0.0000,  0.0000)
  87 Co     7.569540    5.790156   16.758477    ( 0.0000,  0.0000,  0.0000)
  88 Cr    10.026136    5.746347   16.763908    ( 0.0000,  0.0000,  0.0000)
  89 Co    12.543367    5.747160   16.772185    ( 0.0000,  0.0000,  2.1000)
  90 Fe    16.270128    7.958744   16.878796    ( 0.0000,  0.0000,  2.0000)
  91 Al     6.261908    7.982584   16.782048    ( 0.0000,  0.0000,  2.1000)
  92 Co     8.742457    7.968610   16.764142    ( 0.0000,  0.0000,  2.1000)
  93 Fe    11.277906    7.926015   16.857984    ( 0.0000,  0.0000,  0.0000)
  94 Al    13.798645    7.959796   16.862475    ( 0.0000,  0.0000,  1.5000)
  95 Co    17.564450   10.140147   16.843601    ( 0.0000,  0.0000,  1.5000)
  96 Ni     7.506508   10.131539   16.775003    ( 0.0000,  0.0000,  1.5000)
  97 Co     9.982830   10.139106   16.778819    ( 0.0000,  0.0000,  1.5000)
  98 Co    12.538883   10.154728   16.858689    ( 0.0000,  0.0000,  2.0000)
  99 Cr    15.023737   10.130021   16.876066    ( 0.0000,  0.0000,  2.1000)
 100 Co     0.021688    0.020369   18.796081    ( 0.0000,  0.0000,  2.1000)
 101 Fe     2.494821    0.007467   18.769576    ( 0.0000,  0.0000,  2.1000)
 102 Cr     4.985998    0.002849   18.819329    ( 0.0000,  0.0000,  0.0000)
 103 Cr    13.754781   10.818030   18.872752    ( 0.0000,  0.0000,  2.1000)
 104 Al    16.317444   10.810593   18.850326    ( 0.0000,  0.0000,  1.5000)
 105 Ni     1.256161    2.173586   18.792882    ( 0.0000,  0.0000,  2.0000)
 106 Fe     3.725304    2.151503   18.833213    ( 0.0000,  0.0000,  2.0000)
 107 Fe     6.222195    2.156804   18.811081    ( 0.0000,  0.0000,  2.1000)
 108 Ni     8.770579    2.162528   19.045201    ( 0.0000,  0.0000,  0.0000)
 109 Ni    11.307466    2.180958   18.775534    ( 0.0000,  0.0000,  2.0000)
 110 Al     2.502140    4.316579   18.803537    ( 0.0000,  0.0000,  2.0000)
 111 Cr     4.984546    4.312123   18.946281    ( 0.0000,  0.0000,  0.0000)
 112 Fe     7.501088    4.367044   18.820386    ( 0.0000,  0.0000,  0.0000)
 113 Fe    10.059972    4.352084   18.800162    ( 0.0000,  0.0000,  2.0000)
 114 Fe    12.539763    4.316026   18.767286    ( 0.0000,  0.0000,  2.1000)
 115 Ni    16.262819    6.510059   18.894150    ( 0.0000,  0.0000,  2.0000)
 116 Cr     6.269967    6.534842   18.850238    ( 0.0000,  0.0000,  1.5000)
 117 Ni     8.788984    6.511186   18.794614    ( 0.0000,  0.0000,  1.5000)
 118 Fe    11.281904    6.480051   18.877595    ( 0.0000,  0.0000,  2.1000)
 119 Ni    13.777508    6.479303   18.838585    ( 0.0000,  0.0000,  0.0000)
 120 Co     5.014689    8.654765   18.845336    ( 0.0000,  0.0000,  2.0000)
 121 Ni     7.516337    8.678810   18.792882    ( 0.0000,  0.0000,  2.1000)
 122 Al     9.994976    8.686659   18.888573    ( 0.0000,  0.0000,  1.5000)
 123 Ni    12.542280    8.675037   18.940675    ( 0.0000,  0.0000,  0.0000)
 124 Cr    15.038373    8.673617   18.869083    ( 0.0000,  0.0000,  2.1000)

Unit cell:
           periodic     x           y           z      points  spacing
  1. axis:    yes   12.530300    0.000000    0.000000    56     0.1938
  2. axis:    yes    6.259130   10.841100    0.000000    56     0.1936
  3. axis:    no     0.000000    0.000000   29.353100   128     0.2293

  Lengths:  12.530300  12.518233  29.353100
  Angles:   90.000000  90.000000  59.999929

Effective grid spacing dv^(1/3) = 0.2150

     iter     time        total  log10-change:  magmom
                         energy  eigst   dens
iter:   1 22:02:49 -1067.824060                  +158.2177
iter:   2 22:05:08 -1065.981008  -0.31  -1.20    +125.2595
iter:   3 22:07:29 -1429.212829  -0.41  -1.16    +98.1772
iter:   4 22:09:49 -1304.995136  -0.26  -0.90    +73.7854
iter:   5 22:12:10 -1010.984008  -0.91  -0.97    +50.5497
iter:   6 22:14:30  -971.221352  -1.55  -1.27    +42.2778
iter:   7 22:16:50  -966.535117  -1.98  -1.35    +38.2251
iter:   8 22:19:11  -954.571685  -1.90  -1.37    +38.3527
iter:   9 22:21:31 -1017.942419  -1.38  -1.43    +39.6873
iter:  10 22:23:52 -1080.157213  -1.10  -1.22    +39.0737
iter:  11 22:26:12  -959.944109  -1.50  -1.14    +34.4766
iter:  12 22:28:33  -943.200978  -1.74  -1.44    +35.3704
iter:  13 22:30:53  -961.394703  -1.68  -1.63    +37.2212
iter:  14 22:33:14  -956.907319  -1.75  -1.51    +38.3278
iter:  15 22:35:34  -941.703690  -1.87  -1.52    +39.7092
iter:  16 22:37:55  -941.761157  -2.17  -1.76    +43.1193
iter:  17 22:40:15  -953.486502  -2.22  -1.85    +44.9394
iter:  18 22:42:36  -947.965877  -2.30  -1.61    +47.4140
iter:  19 22:44:56  -942.670919  -2.64  -1.72    +49.7207
iter:  20 22:47:16  -946.026383  -2.35  -1.92    +52.4565
iter:  21 22:49:36  -943.345242  -2.62  -1.86    +53.2365
iter:  22 22:51:57  -943.956722  -2.76  -1.95    +56.3248
iter:  23 22:54:17  -951.624874  -2.52  -1.97    +58.3344
iter:  24 22:56:37  -948.200211  -2.44  -1.75    +58.8787
iter:  25 22:58:56  -944.565562  -2.72  -1.85    +59.8094
iter:  26 23:01:16  -944.600387  -2.95  -2.03    +61.8186
iter:  27 23:03:36  -946.260088  -2.69  -2.11    +63.3371
iter:  28 23:05:56  -945.396991  -2.86  -2.01    +63.7187
iter:  29 23:08:15  -946.164185  -2.93  -2.10    +65.1259
iter:  30 23:10:35  -951.638863  -2.60  -2.06    +66.1461
iter:  31 23:12:55  -946.952636  -2.57  -1.81    +66.2398
iter:  32 23:15:16  -945.729715  -3.06  -2.07    +66.2020
iter:  33 23:17:35  -946.080383  -3.12  -2.23    +67.4688
iter:  34 23:19:55  -946.286576  -3.35  -2.24    +67.8994
iter:  35 23:22:16  -946.433953  -3.67  -2.21    +68.3025
iter:  36 23:24:36  -950.849126  -2.60  -2.23    +69.2465
iter:  37 23:26:56  -946.660010  -2.98  -1.89    +68.4416
iter:  38 23:29:16  -946.605636  -3.19  -2.27    +68.6302
iter:  39 23:31:36  -946.847384  -3.34  -2.36    +68.8200
iter:  40 23:33:55  -946.903323  -3.13  -2.34    +68.7891
iter:  41 23:36:15  -946.709891  -3.50  -2.42    +68.6864
iter:  42 23:38:35  -947.511426  -3.42  -2.55    +68.6335
iter:  43 23:40:55  -946.849669  -3.51  -2.25    +68.7634
iter:  44 23:43:16  -946.826963  -3.85  -2.54    +68.7931
iter:  45 23:45:36  -946.861595c -4.00  -2.60    +68.5138
iter:  46 23:47:56  -946.874276c -4.19  -2.64    +68.4213
iter:  47 23:50:16  -947.322631  -3.70  -2.70    +68.2609
iter:  48 23:52:36  -947.174321  -3.56  -2.39    +68.2922
iter:  49 23:54:56  -947.049123  -3.69  -2.48    +68.3095
iter:  50 23:57:16  -947.040752  -4.14  -2.62    +68.2493
iter:  51 23:59:37  -947.021412c -3.98  -2.68    +68.1048
iter:  52 00:01:57  -947.061991c -4.10  -2.80    +67.9933
iter:  53 00:04:18  -947.080636c -4.00  -2.73    +67.9226
iter:  54 00:06:38  -946.996908c -4.26  -2.71    +67.9167
iter:  55 00:08:58  -947.013261c -4.47  -3.11    +67.9701
iter:  56 00:11:18  -947.013498c -4.93  -3.11    +67.9593
iter:  57 00:13:39  -947.023768c -4.80  -3.14    +67.9157
iter:  58 00:16:00  -947.047213c -4.93  -3.15    +67.9239
iter:  59 00:18:20  -947.035444c -5.04  -2.96    +67.8904
iter:  60 00:20:41  -947.081924c -4.60  -3.17    +67.8660
iter:  61 00:23:01  -947.057538c -4.86  -2.92    +67.8647
iter:  62 00:25:21  -947.082898c -4.85  -3.10    +67.8551
iter:  63 00:27:42  -947.095046c -4.86  -3.00    +67.8415
iter:  64 00:30:02  -947.089869c -4.75  -2.97    +67.8042
iter:  65 00:32:23  -947.101960c -4.50  -3.00    +67.8175
iter:  66 00:34:44  -947.134977c -4.30  -2.91    +67.8507
iter:  67 00:37:04  -947.603884  -3.70  -2.82    +67.8554
iter:  68 00:39:25  -947.093656  -4.15  -2.37    +67.8637
iter:  69 00:41:45  -947.183291  -4.06  -3.01    +67.9146
iter:  70 00:44:06  -947.083380c -4.42  -2.74    +67.9192
iter:  71 00:46:26  -947.091208c -5.00  -3.12    +67.9755
iter:  72 00:48:46  -947.089687c -5.11  -3.09    +68.0161
iter:  73 00:51:07  -947.137707c -4.56  -3.14    +68.0658
iter:  74 00:53:28  -947.113751c -4.52  -2.86    +68.0578
iter:  75 00:55:49  -947.103293c -4.63  -2.96    +68.0851
iter:  76 00:58:09  -947.119959c -4.41  -3.08    +68.1329
iter:  77 01:00:29  -947.094967c -4.73  -3.05    +68.1333
iter:  78 01:02:50  -947.096394c -4.88  -3.29    +68.1721
iter:  79 01:05:10  -947.102078c -5.21  -3.32    +68.1971
iter:  80 01:07:30  -947.095768c -5.26  -3.18    +68.2384
iter:  81 01:09:50  -947.096045c -5.75  -3.45    +68.2632
iter:  82 01:12:11  -947.098058c -5.62  -3.55    +68.2927
iter:  83 01:14:31  -947.102666c -5.11  -3.56    +68.3692
iter:  84 01:16:52  -947.104546c -5.38  -3.54    +68.4055
iter:  85 01:19:12  -947.107349c -5.15  -3.57    +68.4619
iter:  86 01:21:33  -947.114908c -4.83  -3.56    +68.5646
iter:  87 01:23:54  -947.111267c -5.23  -3.38    +68.4625
iter:  88 01:26:14  -947.122123c -3.96  -3.34    +68.8664
iter:  89 01:28:34  -947.115938c -5.05  -3.27    +68.7355
iter:  90 01:30:55  -947.113242c -5.26  -3.47    +68.7839
iter:  91 01:33:15  -947.111993c -5.54  -3.51    +68.7694
iter:  92 01:35:36  -947.134740c -4.86  -3.66    +68.7726
iter:  93 01:37:56  -947.108836c -5.37  -3.04    +68.7615
iter:  94 01:40:16  -947.109096c -5.78  -3.90    +68.7462
iter:  95 01:42:37  -947.109462c -6.27  -3.84    +68.7457
iter:  96 01:44:58  -947.109882c -6.21  -3.94    +68.7131
iter:  97 01:47:18  -947.110017c -6.23  -3.77    +68.7005
iter:  98 01:49:38  -947.111596c -5.74  -3.88    +68.6798
iter:  99 01:51:59  -947.110139c -6.11  -3.49    +68.6822
iter: 100 01:54:19  -947.110005c -6.17  -3.92    +68.6663
iter: 101 01:56:40  -947.109498c -6.37  -4.10c   +68.6610
iter: 102 01:59:00  -947.110285c -6.31  -4.06c   +68.6590
iter: 103 02:01:21  -947.109919c -6.42  -3.79    +68.6560
iter: 104 02:03:42  -947.110375c -6.52  -4.15c   +68.6479
iter: 105 02:06:02  -947.109742c -6.79  -3.96    +68.6381
iter: 106 02:08:23  -947.109763c -6.90  -4.31c   +68.6325
iter: 107 02:10:43  -947.109971c -6.95  -4.44c   +68.6280
iter: 108 02:13:03  -947.109744c -7.39  -4.45c   +68.6262
iter: 109 02:15:24  -947.109900c -7.11  -4.50c   +68.6237
iter: 110 02:17:44  -947.109858c -7.00  -4.42c   +68.6173
iter: 111 02:20:05  -947.110146c -7.05  -4.11c   +68.6183
iter: 112 02:22:25  -947.109860c -7.31  -4.23c   +68.6126
iter: 113 02:24:46  -947.109760c -7.41c -4.58c   +68.6076

Converged after 113 iterations.

Dipole moment: (45.335785, 31.754612, -0.021116) |e|*Ang

Total magnetic moment: (0.000000, 0.000000, 68.607553)
Local magnetic moments:
   0 Fe ( 0.000000,  0.000000, -2.211324)
   1 Cr ( 0.000000,  0.000000, -1.812083)
   2 Fe ( 0.000000,  0.000000,  2.116390)
   3 Fe ( 0.000000,  0.000000, -2.190005)
   4 Cr ( 0.000000,  0.000000, -1.482747)
   5 Fe ( 0.000000,  0.000000, -2.120375)
   6 Fe ( 0.000000,  0.000000,  2.433556)
   7 Al ( 0.000000,  0.000000, -0.021214)
   8 Co ( 0.000000,  0.000000,  1.081958)
   9 Cr ( 0.000000,  0.000000, -1.393187)
  10 Ni ( 0.000000,  0.000000,  0.319642)
  11 Cr ( 0.000000,  0.000000, -2.504776)
  12 Fe ( 0.000000,  0.000000,  2.429195)
  13 Co ( 0.000000,  0.000000,  1.412275)
  14 Ni ( 0.000000,  0.000000,  0.343051)
  15 Co ( 0.000000,  0.000000,  1.116845)
  16 Cr ( 0.000000,  0.000000,  2.213295)
  17 Ni ( 0.000000,  0.000000,  0.398570)
  18 Al ( 0.000000,  0.000000, -0.056590)
  19 Fe ( 0.000000,  0.000000,  2.675125)
  20 Al ( 0.000000,  0.000000, -0.009212)
  21 Ni ( 0.000000,  0.000000,  0.020052)
  22 Cr ( 0.000000,  0.000000,  1.979945)
  23 Ni ( 0.000000,  0.000000,  0.258541)
  24 Fe ( 0.000000,  0.000000,  2.400905)
  25 Co ( 0.000000,  0.000000,  0.078076)
  26 Co ( 0.000000,  0.000000,  0.789954)
  27 Cr ( 0.000000,  0.000000, -1.394110)
  28 Fe ( 0.000000,  0.000000,  2.076409)
  29 Fe ( 0.000000,  0.000000,  2.068359)
  30 Cr ( 0.000000,  0.000000,  0.609125)
  31 Ni ( 0.000000,  0.000000,  0.083262)
  32 Fe ( 0.000000,  0.000000, -2.033784)
  33 Co ( 0.000000,  0.000000,  1.208308)
  34 Cr ( 0.000000,  0.000000,  0.491825)
  35 Ni ( 0.000000,  0.000000,  0.160198)
  36 Ni ( 0.000000,  0.000000,  0.080917)
  37 Ni ( 0.000000,  0.000000,  0.323938)
  38 Co ( 0.000000,  0.000000,  1.160874)
  39 Fe ( 0.000000,  0.000000,  1.698069)
  40 Co ( 0.000000,  0.000000,  1.389047)
  41 Co ( 0.000000,  0.000000,  0.921210)
  42 Co ( 0.000000,  0.000000,  1.589206)
  43 Fe ( 0.000000,  0.000000,  2.183749)
  44 Ni ( 0.000000,  0.000000,  0.437068)
  45 Cr ( 0.000000,  0.000000, -1.951326)
  46 Fe ( 0.000000,  0.000000,  2.296357)
  47 Co ( 0.000000,  0.000000,  1.172680)
  48 Fe ( 0.000000,  0.000000,  2.071845)
  49 Al ( 0.000000,  0.000000, -0.052822)
  50 Cr ( 0.000000,  0.000000,  0.012265)
  51 Ni ( 0.000000,  0.000000,  0.225545)
  52 Co ( 0.000000,  0.000000,  0.594017)
  53 Co ( 0.000000,  0.000000,  1.257681)
  54 Cr ( 0.000000,  0.000000, -1.279348)
  55 Cr ( 0.000000,  0.000000,  0.202172)
  56 Al ( 0.000000,  0.000000, -0.024173)
  57 Ni ( 0.000000,  0.000000,  0.222682)
  58 Co ( 0.000000,  0.000000,  0.810019)
  59 Cr ( 0.000000,  0.000000,  0.101578)
  60 Fe ( 0.000000,  0.000000,  2.115106)
  61 Cr ( 0.000000,  0.000000,  1.313850)
  62 Co ( 0.000000,  0.000000,  1.014601)
  63 Cr ( 0.000000,  0.000000, -0.270831)
  64 Cr ( 0.000000,  0.000000, -1.120879)
  65 Ni ( 0.000000,  0.000000,  0.266477)
  66 Cr ( 0.000000,  0.000000, -1.908578)
  67 Ni ( 0.000000,  0.000000,  0.238741)
  68 Co ( 0.000000,  0.000000,  1.006152)
  69 Co ( 0.000000,  0.000000,  1.213506)
  70 Fe ( 0.000000,  0.000000,  2.128679)
  71 Co ( 0.000000,  0.000000,  1.267893)
  72 Al ( 0.000000,  0.000000, -0.027221)
  73 Cr ( 0.000000,  0.000000,  1.663542)
  74 Ni ( 0.000000,  0.000000,  0.219340)
  75 Cr ( 0.000000,  0.000000, -0.041163)
  76 Ni ( 0.000000,  0.000000,  0.386791)
  77 Fe ( 0.000000,  0.000000,  2.203013)
  78 Fe ( 0.000000,  0.000000,  2.167540)
  79 Fe ( 0.000000,  0.000000,  1.932255)
  80 Co ( 0.000000,  0.000000,  0.878505)
  81 Ni ( 0.000000,  0.000000,  0.339730)
  82 Ni ( 0.000000,  0.000000,  0.382618)
  83 Al ( 0.000000,  0.000000, -0.034110)
  84 Cr ( 0.000000,  0.000000, -0.553942)
  85 Co ( 0.000000,  0.000000,  1.331806)
  86 Ni ( 0.000000,  0.000000,  0.262097)
  87 Co ( 0.000000,  0.000000,  0.362034)
  88 Cr ( 0.000000,  0.000000, -1.473579)
  89 Co ( 0.000000,  0.000000,  0.931874)
  90 Fe ( 0.000000,  0.000000,  2.322361)
  91 Al ( 0.000000,  0.000000, -0.035393)
  92 Co ( 0.000000,  0.000000,  1.300189)
  93 Fe ( 0.000000,  0.000000,  2.437812)
  94 Al ( 0.000000,  0.000000, -0.037593)
  95 Co ( 0.000000,  0.000000,  1.058973)
  96 Ni ( 0.000000,  0.000000,  0.400812)
  97 Co ( 0.000000,  0.000000,  1.235999)
  98 Co ( 0.000000,  0.000000,  0.743074)
  99 Cr ( 0.000000,  0.000000, -1.383060)
 100 Co ( 0.000000,  0.000000,  1.357630)
 101 Fe ( 0.000000,  0.000000,  2.511159)
 102 Cr ( 0.000000,  0.000000, -2.270641)
 103 Cr ( 0.000000,  0.000000, -2.039376)
 104 Al ( 0.000000,  0.000000, -0.026476)
 105 Ni ( 0.000000,  0.000000,  0.392518)
 106 Fe ( 0.000000,  0.000000,  2.397873)
 107 Fe ( 0.000000,  0.000000,  2.275419)
 108 Ni ( 0.000000,  0.000000,  0.416474)
 109 Ni ( 0.000000,  0.000000,  0.311918)
 110 Al ( 0.000000,  0.000000, -0.035570)
 111 Cr ( 0.000000,  0.000000, -2.649138)
 112 Fe ( 0.000000,  0.000000,  2.506177)
 113 Fe ( 0.000000,  0.000000,  2.175780)
 114 Fe ( 0.000000,  0.000000,  2.473361)
 115 Ni ( 0.000000,  0.000000,  0.164662)
 116 Cr ( 0.000000,  0.000000,  2.305840)
 117 Ni ( 0.000000,  0.000000,  0.310694)
 118 Fe ( 0.000000,  0.000000,  2.565721)
 119 Ni ( 0.000000,  0.000000,  0.245675)
 120 Co ( 0.000000,  0.000000,  0.992451)
 121 Ni ( 0.000000,  0.000000,  0.349002)
 122 Al ( 0.000000,  0.000000, -0.045309)
 123 Ni ( 0.000000,  0.000000,  0.116925)
 124 Cr ( 0.000000,  0.000000,  1.837427)

Energy contributions relative to reference atoms: (reference = -4103091.665053)

Kinetic:       +271.341175
Potential:     -294.809935
External:        +0.000000
XC:            -961.595778
Entropy (-ST):   -5.425263
Local:          +40.667409
--------------------------
Free energy:   -949.822392
Extrapolated:  -947.109760

Dipole-layer corrected work functions: 4.913392, 4.941520 eV

Spin contamination: 40.837719 electrons
Showing all kpts
                      Up                     Down
 Kpt  Band  Eigenvalues  Occupancy  Eigenvalues  Occupancy
  0   566      0.00278    0.99201      0.81433    0.03579
  0   567      0.01082    0.99135      0.83364    0.02969
  0   568      0.02254    0.99028      0.83853    0.02831
  0   569      0.02967    0.98957      0.84901    0.02557

  1   566     -0.00069    0.99228      0.82588    0.03201
  1   567      0.01727    0.99078      0.83464    0.02940
  1   568      0.02598    0.98995      0.84629    0.02626
  1   569      0.04427    0.98795      0.85500    0.02412


Fermi level: 0.48496

No gap

Forces in eV/Ang:
  0 Fe    0.02011    0.47285    0.39905
  1 Cr    0.10546   -0.13678   -0.17233
  2 Fe    0.04645   -0.62897    0.08056
  3 Fe   -0.17243   -0.56347    0.65268
  4 Cr   -0.12096    0.27592    0.48335
  5 Fe   -0.30852   -0.56916   -0.05724
  6 Fe   -0.17558   -0.05409    0.18694
  7 Al    0.27243   -0.13676   -0.72804
  8 Co    0.35694   -0.12495    0.54100
  9 Cr   -0.04910   -0.06350    0.31521
 10 Ni   -0.06213    0.19264    0.05910
 11 Cr   -0.43331    0.83140    0.18912
 12 Fe    0.82340    0.09292    0.07960
 13 Co   -0.33640   -0.12501    0.28348
 14 Ni   -0.05482   -0.17402   -0.00460
 15 Co   -0.43968   -0.04833    0.59576
 16 Cr    0.06117   -0.03358   -0.05466
 17 Ni    0.05421   -0.23069    0.92447
 18 Al   -0.43651    0.02540   -1.40824
 19 Fe    0.33025    0.16246   -0.00927
 20 Al    0.46081    0.23782   -1.07210
 21 Ni   -0.07005    0.13102   -0.29404
 22 Cr   -0.15842    0.12316   -0.18494
 23 Ni    0.26252    0.22522    0.76983
 24 Fe   -0.56332    0.18138    0.05715
 25 Co   -0.10423   -0.00614    0.37160
 26 Co   -0.09000   -0.15885    0.22247
 27 Cr   -0.06910    0.65395   -0.65634
 28 Fe    0.20178    0.34733    0.10726
 29 Fe   -0.31330    0.06809    0.81005
 30 Cr   -0.16448    0.21889   -0.38064
 31 Ni    0.00197    0.21276    0.27083
 32 Fe    0.80615   -0.15664    0.50912
 33 Co    0.15316    0.06424   -0.08628
 34 Cr   -0.54089    0.06596   -0.11974
 35 Ni    0.26239   -0.11749    0.31850
 36 Ni   -0.07794    0.17653    0.45480
 37 Ni    0.05497   -0.48257    0.56287
 38 Co   -0.26973   -0.33456   -0.06303
 39 Fe    0.05938   -0.02493   -0.18378
 40 Co    0.56105    0.21320    0.13396
 41 Co   -0.57297    0.03611    0.14097
 42 Co   -0.15891   -0.00899    0.23050
 43 Fe   -0.08773   -0.26585    0.41993
 44 Ni    0.30376    0.26403    0.50049
 45 Cr   -0.04139   -0.73435    0.81997
 46 Fe    0.05777    0.25677    0.19248
 47 Co   -0.12741    0.01249    0.58181
 48 Fe    0.18336    0.38395    0.40197
 49 Al    0.70527   -0.09422    0.87465
 50 Cr    0.22061   -0.51975   -0.25160
 51 Ni    0.17518   -0.36958   -0.04464
 52 Co    0.14932   -0.55499   -0.21810
 53 Co    0.15987   -0.31162   -0.50009
 54 Cr   -0.50463   -0.31218    0.01904
 55 Cr   -1.06906    0.03528    0.11880
 56 Al    0.52023   -0.22222   -0.41989
 57 Ni    0.31179   -0.07835   -0.91244
 58 Co   -0.15231   -0.13202   -0.49877
 59 Cr   -0.18578    0.31822    0.23418
 60 Fe   -0.16402    0.23615    0.23238
 61 Cr    0.32026    0.87761    0.06611
 62 Co    0.14131    0.12362   -0.10608
 63 Cr   -0.28600   -0.01589    0.01579
 64 Cr   -0.10889    0.27793    0.49674
 65 Ni   -0.32378    0.30139   -0.34673
 66 Cr    0.50224   -0.30750   -0.40597
 67 Ni    0.09577    0.05476    0.51916
 68 Co    0.18700    0.04273    0.06890
 69 Co    0.17867    0.08938   -0.47535
 70 Fe   -0.37274    0.31219   -0.44930
 71 Co   -0.01679    0.06465   -0.00379
 72 Al   -0.58577   -0.48397    1.00408
 73 Cr    0.60442    0.48924   -0.33227
 74 Ni    0.01638   -0.16874   -0.56003
 75 Cr    0.01616   -0.00004    0.19057
 76 Ni    0.21193   -0.01774   -0.39027
 77 Fe    0.23841   -0.70538    0.16651
 78 Fe   -0.18885   -0.64097   -0.15944
 79 Fe   -0.03011   -0.11277   -0.54594
 80 Co   -0.09874    0.02383   -0.61587
 81 Ni    0.02784    0.45824   -0.59552
 82 Ni   -0.14896    0.61406    0.12690
 83 Al   -0.85065   -0.12050   -0.80133
 84 Cr    0.86770    0.08198   -0.01868
 85 Co    0.52595    0.10424   -0.87882
 86 Ni    0.07289   -0.34364   -0.33730
 87 Co   -0.37846   -0.07909    0.09474
 88 Cr    0.07750    0.94312   -0.17859
 89 Co   -0.10212   -0.11488   -0.35498
 90 Fe    0.32816   -0.28923   -0.62818
 91 Al   -0.07579   -0.19738   -0.13014
 92 Co    0.61874   -0.11397   -0.57525
 93 Fe   -0.48245   -0.13521   -0.97827
 94 Al   -1.11550   -0.90937   -0.53242
 95 Co   -0.15550    0.11237   -0.78016
 96 Ni    0.29855    0.28958   -0.25172
 97 Co   -0.05581   -0.23113   -0.37386
 98 Co   -0.33918    0.13913    0.04948
 99 Cr    0.50877    0.04278   -1.62591
100 Co    0.16605   -0.16732   -0.19767
101 Fe   -0.16441    0.05386    0.14247
102 Cr   -0.07788    0.65198   -0.00735
103 Cr   -0.08903    0.34954    0.30878
104 Al    0.90066    0.94130    1.56010
105 Ni   -0.12773   -0.07770    0.13057
106 Fe    0.04938   -0.05943    0.14828
107 Fe    0.44440   -0.43736    0.27021
108 Ni   -0.08498    0.21726   -0.84081
109 Ni   -0.06815   -0.05045    0.39484
110 Al   -0.71314    0.42426    0.89266
111 Cr    1.21945    0.06434   -0.26367
112 Fe    0.21891   -0.19740    0.44118
113 Fe    0.15473    0.00015    0.20711
114 Fe   -0.59387   -0.06463   -0.05783
115 Ni    0.12408   -0.14994   -0.20924
116 Cr   -0.24909    0.01476    0.41557
117 Ni   -0.12001   -0.04821   -0.12041
118 Fe    0.28997   -0.00370   -0.03241
119 Ni   -0.14074    0.08049    0.09048
120 Co    0.08147    0.04424   -0.21606
121 Ni   -0.03103    0.14765    0.15756
122 Al   -0.34671   -0.79592    0.64692
123 Ni   -0.34007   -0.16174   -0.32350
124 Cr   -0.22651    0.03383    1.17935

Timing:                              incl.     excl.
-----------------------------------------------------------
Forces:                             36.551    36.551   0.2% |
Hamiltonian:                         1.379     0.010   0.0% |
 Atomic:                             0.378     0.001   0.0% |
  XC Correction:                     0.376     0.376   0.0% |
 Calculate atomic Hamiltonians:      0.443     0.443   0.0% |
 Communicate:                        0.135     0.135   0.0% |
 Initialize Hamiltonian:             0.000     0.000   0.0% |
 Poisson:                            0.085     0.085   0.0% |
 XC 3D grid:                         0.329     0.329   0.0% |
LCAO initialization:               272.316     0.543   0.0% |
 LCAO eigensolver:                  13.624     0.010   0.0% |
  Calculate projections:             0.000     0.000   0.0% |
  DenseAtomicCorrection:             0.000     0.000   0.0% |
  Distribute overlap matrix:         8.925     8.925   0.1% |
  Orbital Layouts:                   4.661     4.661   0.0% |
  Potential matrix:                  0.003     0.003   0.0% |
  Sum over cells:                    0.026     0.026   0.0% |
 LCAO to grid:                     255.975   255.975   1.6% ||
 Set positions (LCAO WFS):           2.175     1.890   0.0% |
  Basic WFS set positions:           0.004     0.004   0.0% |
  Basis functions set positions:     0.001     0.001   0.0% |
  P tci:                             0.000     0.000   0.0% |
  ST tci:                            0.108     0.108   0.0% |
  mktci:                             0.172     0.172   0.0% |
PWDescriptor:                        0.101     0.101   0.0% |
SCF-cycle:                       15872.805     0.839   0.0% |
 Davidson:                       15508.722  5063.020  31.3% |------------|
  Apply H:                         291.670   287.273   1.8% ||
   HMM T:                            4.397     4.397   0.0% |
  Subspace diag:                  1709.645     0.037   0.0% |
   calc_h_matrix:                  697.838   444.796   2.7% ||
    Apply H:                       253.042   248.549   1.5% ||
     HMM T:                          4.492     4.492   0.0% |
   diagonalize:                    152.892   152.892   0.9% |
   rotate_psi:                     858.877   858.877   5.3% |-|
  calc. matrices:                 4011.602  3549.438  21.9% |--------|
   Apply H:                        462.164   453.327   2.8% ||
    HMM T:                           8.837     8.837   0.1% |
  diagonalize:                    2607.760  2607.760  16.1% |-----|
  rotate_psi:                     1825.027  1825.027  11.3% |----|
 Density:                          197.718     0.003   0.0% |
  Atomic density matrices:           2.598     2.598   0.0% |
  Mix:                              66.001    66.001   0.4% |
  Multipole moments:                 0.075     0.075   0.0% |
  Pseudo density:                  129.041   129.036   0.8% |
   Symmetrize density:               0.005     0.005   0.0% |
 Hamiltonian:                      148.031     1.128   0.0% |
  Atomic:                           43.850     0.141   0.0% |
   XC Correction:                   43.709    43.709   0.3% |
  Calculate atomic Hamiltonians:    50.795    50.795   0.3% |
  Communicate:                      11.676    11.676   0.1% |
  Poisson:                           3.941     3.941   0.0% |
  XC 3D grid:                       36.642    36.642   0.2% |
 Orthonormalize:                    17.495     0.000   0.0% |
  calc_s_matrix:                     2.133     2.133   0.0% |
  inverse-cholesky:                  0.831     0.831   0.0% |
  projections:                      10.759    10.759   0.1% |
  rotate_psi_s:                      3.771     3.771   0.0% |
Set symmetry:                        0.001     0.001   0.0% |
Other:                               7.305     7.305   0.0% |
-----------------------------------------------------------
Total:                                     16190.458 100.0%

Date: Wed Apr 19 02:25:27 2023
