
  ___ ___ ___ _ _ _  
 |   |   |_  | | | | 
 | | | | | . | | | | 
 |__ |  _|___|_____|  22.8.0
 |___|_|             

User:   c.zeng@d0100
Date:   Mon Apr 17 15:52:12 2023
Arch:   x86_64
Pid:    132080
CWD:    /home/c.zeng/projects/hea-corrosion/hea-mlp/data-curation/surface-md/dft-jobs/62
Python: 3.8.1
gpaw:   /home/c.zeng/usr/installs/gpaw/source/gpaw-22.8.0/gpaw
_gpaw:  /home/c.zeng/usr/installs/gpaw/source/gpaw-22.8.0/
        _gpaw.cpython-38-x86_64-linux-gnu.so
ase:    /home/c.zeng/.local/lib/python3.8/site-packages/ase-3.22.1-py3.8.egg/ase (version 3.22.1)
numpy:  /home/c.zeng/.local/lib/python3.8/site-packages/numpy (version 1.24.2)
scipy:  /home/c.zeng/.local/lib/python3.8/site-packages/scipy (version 1.10.1)
libxc:  4.2.3
units:  Angstrom and eV
cores: 30
OpenMP: False
OMP_NUM_THREADS: 1

Input parameters:
  convergence: {energy: 0.0001}
  kpts: [2 2 1]
  maxiter: 666
  mode: {ecut: 350.0,
         name: pw}
  occupations: {fixmagmom: False,
                name: fermi-dirac,
                width: 0.1}
  poissonsolver: {dipolelayer: xy}
  spinpol: True
  symmetry: {point_group: False}
  xc: PBE

System changes: positions, numbers, cell, pbc, initial_charges, initial_magmoms 

Initialize ...

species:
  Cr:
    name: Chromium
    id: 33f258bda2ca9f93018e70263a35547b
    Z: 24.0
    valence: 6
    core: 18
    charge: 0.0
    file: /home/c.zeng/usr/data/gpaw-setups-0.9.20000/Cr.PBE.gz
    compensation charges: {type: gauss,
                           rc: 0.35,
                           lmax: 2}
    cutoffs: {filter: 2.14,
              core: 3.04}
    valence states:
      #              energy  rcut
      - 4s(1.00)    -4.007   1.164
      - 4p(0.00)    -0.989   1.217
      - 3d(5.00)    -2.913   1.111
      -  s          23.205   1.164
      -  p          26.223   1.217
      -  d          24.299   1.111
  
    # Using partial waves for Cr as LCAO basis

  Al:
    name: Aluminium
    id: 0292cae29f5d6237e50f6abdd43a7bdd
    Z: 13.0
    valence: 3
    core: 10
    charge: 0.0
    file: /home/c.zeng/usr/data/gpaw-setups-0.9.20000/Al.PBE.gz
    compensation charges: {type: gauss,
                           rc: 0.34,
                           lmax: 2}
    cutoffs: {filter: 1.91,
              core: 2.36}
    valence states:
      #              energy  rcut
      - 3s(2.00)    -7.753   1.085
      - 3p(1.00)    -2.712   1.085
      -  s          19.459   1.085
      -  p          24.499   1.085
      -  d           0.000   1.085
  
    # Using partial waves for Al as LCAO basis

  Fe:
    name: Iron
    id: 37abbd8d6c3c35915a9b583b742da910
    Z: 26.0
    valence: 8
    core: 18
    charge: 0.0
    file: /home/c.zeng/usr/data/gpaw-setups-0.9.20000/Fe.PBE.gz
    compensation charges: {type: gauss,
                           rc: 0.33,
                           lmax: 2}
    cutoffs: {filter: 2.06,
              core: 2.67}
    valence states:
      #              energy  rcut
      - 4s(2.00)    -5.291   1.164
      - 4p(0.00)    -1.326   1.058
      - 3d(6.00)    -7.505   1.058
      -  s          21.920   1.164
      -  p          25.885   1.058
      -  d          19.706   1.058
  
    # Using partial waves for Fe as LCAO basis

  Co:
    name: Cobalt
    id: 339d20d5b0b93d2de9531a1bee871d91
    Z: 27.0
    valence: 9
    core: 18
    charge: 0.0
    file: /home/c.zeng/usr/data/gpaw-setups-0.9.20000/Co.PBE.gz
    compensation charges: {type: gauss,
                           rc: 0.32,
                           lmax: 2}
    cutoffs: {filter: 1.87,
              core: 2.55}
    valence states:
      #              energy  rcut
      - 4s(2.00)    -5.469   1.005
      - 4p(0.00)    -1.277   1.058
      - 3d(7.00)    -8.205   1.005
      -  s          21.742   1.005
      -  p          25.934   1.058
      -  d          19.007   1.005
  
    # Using partial waves for Co as LCAO basis

  Ni:
    name: Nickel
    id: 0d9f38a9d6e76a2886f07bb4381f212b
    Z: 28.0
    valence: 16
    core: 12
    charge: 0.0
    file: /home/c.zeng/usr/data/gpaw-setups-0.9.20000/Ni.PBE.gz
    compensation charges: {type: gauss,
                           rc: 0.36,
                           lmax: 2}
    cutoffs: {filter: 2.14,
              core: 1.98}
    valence states:
      #              energy  rcut
      - 4s(2.00)    -5.642   1.164
      - 3p(6.00)   -71.394   1.207
      - 4p(0.00)    -1.226   1.207
      - 3d(8.00)    -8.875   1.138
      -  s          21.570   1.164
      -  d          18.337   1.138
  
    # Using partial waves for Ni as LCAO basis

Reference energy: -3927717.499734  # eV

Spin-polarized calculation.
Magnetic moment: 149.100000

Convergence criteria:
 Maximum [total energy] change in last 3 cyles: 0.0001 eV / electron
 Maximum integral of absolute [dens]ity change: 0.0001 electrons / valence electron
 Maximum integral of absolute [eigenst]ate change: 4e-08 eV^2 / valence electron
 Maximum number of scf [iter]ations: 666
 (Square brackets indicate name in SCF output, whereas a 'c' in
 the SCF output indicates the quantity has converged.)

Symmetries present (total): 1

  ( 1  0  0)
  ( 0  1  0)
  ( 0  0  1)

4 k-points: 2 x 2 x 1 Monkhorst-Pack grid
2 k-points in the irreducible part of the Brillouin zone
       k-points in crystal coordinates                weights
   0:     0.25000000   -0.25000000    0.00000000          2/4
   1:     0.25000000    0.25000000    0.00000000          2/4

Wave functions: Plane wave expansion
  Cutoff energy: 350.000 eV
  Number of coefficients (min, max): 60143, 60161
  Pulay-stress correction: 0.000000 eV/Ang^3 (de/decut=0.000000)
  Using FFTW library
  ScaLapack parameters: grid=1x1, blocksize=None
  Wavefunction extrapolation:
    Improved wavefunction reuse through dual PAW basis 

Occupation numbers: Fermi-Dirac:
  width: 0.1000  # eV
 

Eigensolver
   Davidson(niter=2) 

Densities:
  Coarse grid: 56*56*128 grid
  Fine grid: 112*112*256 grid
  Total Charge: 0.000000 

Density mixing:
  Method: difference
  Backend: pulay
  Linear mixing parameter: 0.05
  old densities: 5
  Damping of long wavelength oscillations: 50 

Hamiltonian:
  XC and Coulomb potentials evaluated on a 112*112*256 grid
  Using the PBE Exchange-Correlation functional
  External potential:
    NoExternalPotential
 

XC parameters: PBE with 2 nearest neighbor stencil

Memory estimate:
  Process memory now: 380.44 MiB
  Calculator: 2209.57 MiB
    Density: 18.91 MiB
      Arrays: 7.39 MiB
      Localized functions: 8.57 MiB
      Mixer: 2.95 MiB
    Hamiltonian: 5.75 MiB
      Arrays: 5.49 MiB
      XC: 0.00 MiB
      Poisson: 0.00 MiB
      vbar: 0.26 MiB
    Wavefunctions: 2184.92 MiB
      Arrays psit_nG: 1382.48 MiB
      Eigensolver: 782.37 MiB
      Projections: 3.31 MiB
      Projectors: 1.16 MiB
      PW-descriptor: 15.59 MiB

Total number of cores used: 30
Parallelization over k-points: 2
Domain decomposition: 1 x 3 x 5

Number of atoms: 125
Number of atomic orbitals: 1116
Number of bands in calculation: 753
Number of valence electrons: 1098
Bands to converge: occupied

... initialized

Initializing position-dependent things.

Density initialized from atomic densities
Creating initial wave functions:
  753 bands from LCAO basis set

                                                                  
                                                                  
                                                                  
                                                                  
                                                                  
                                                                  
                          Co  Fe        Fe    Ni    Fe            
                                     Ni           Cr              
                        Co  Cr     Co    FeCo  Ni     Ni          
                    Al    Cr Cr Al   CCo   CAl  Co                
                     Fe  CoNi     Co   Ni      Ni      Ni         
         Cr    Fe           Ni Ni Cr  Cr    Ni    Al              
                Co    Nie  CNi   FeCr  AlAl   Fe   Ni             
          Cr      Fe   Fe   Al    Ni           Ni                 
            Co    Co    Ni   ACo    CCr Al Co  Cr    Cr           
              Cr   Fe     Co  NCo   Ni     Co    Cr    Cr         
                               NiFe  CFeFe Co           Al        
          Co   Fe  CrFe  CrNi  FeCo   Fe    Al   Al               
          Al    Co    Cr  FeCr  Fe Al Co    Fe     Fe             
                              Fe                                  
                 CAl  NiNi  Al    CrNi   CCo  Ni                  
                          Fe          Cr                          
             Cr    Al           Cr                                
                                                                  
                                                                  
                                                                  
                                                                  
                                                                  
                                                                  

Positions:
   0 Cr    12.802543    1.781219   10.592808    ( 0.0000,  0.0000,  0.0000)
   1 Cr     2.568652    1.937217    9.962026    ( 0.0000,  0.0000,  0.0000)
   2 Al     5.059423    2.101641   10.232508    ( 0.0000,  0.0000,  0.0000)
   3 Fe     7.883731    1.699197   10.699984    ( 0.0000,  0.0000,  2.0000)
   4 Cr    10.434686    1.784711   10.397631    ( 0.0000,  0.0000,  0.0000)
   5 Co    13.784157    4.186809   10.568066    ( 0.0000,  0.0000,  2.1000)
   6 Co     3.836443    4.212433   10.812925    ( 0.0000,  0.0000,  2.1000)
   7 Ni     6.488241    3.995764   10.799045    ( 0.0000,  0.0000,  1.5000)
   8 Fe     8.922198    4.203581   10.967873    ( 0.0000,  0.0000,  2.0000)
   9 Ni    11.400992    4.463896   10.457651    ( 0.0000,  0.0000,  1.5000)
  10 Ni    15.056239    6.130555    9.429313    ( 0.0000,  0.0000,  1.5000)
  11 Ni     5.194447    5.977727    9.665444    ( 0.0000,  0.0000,  1.5000)
  12 Al     7.637980    6.109546    9.465153    ( 0.0000,  0.0000,  0.0000)
  13 Cr    10.090194    6.308989    9.567056    ( 0.0000,  0.0000,  0.0000)
  14 Cr    12.811981    6.100431    9.461386    ( 0.0000,  0.0000,  0.0000)
  15 Fe    16.437528    8.420992    9.737142    ( 0.0000,  0.0000,  2.0000)
  16 Fe     6.191211    8.296924    9.973871    ( 0.0000,  0.0000,  2.0000)
  17 Fe     8.722025    8.533556    9.645230    ( 0.0000,  0.0000,  2.0000)
  18 Co    11.223816    8.451494   10.126750    ( 0.0000,  0.0000,  2.1000)
  19 Fe    13.802425    8.245928    9.915349    ( 0.0000,  0.0000,  2.0000)
  20 Al    17.808145   10.473246   10.184715    ( 0.0000,  0.0000,  0.0000)
  21 Ni     7.606234   10.605067   10.406907    ( 0.0000,  0.0000,  1.5000)
  22 Co    10.018644   10.702215   10.488343    ( 0.0000,  0.0000,  2.1000)
  23 Co    12.497744   10.514736   10.250141    ( 0.0000,  0.0000,  2.1000)
  24 Al    15.168902   10.508148    9.986505    ( 0.0000,  0.0000,  0.0000)
  25 Al     6.431090   11.124749   12.383060    ( 0.0000,  0.0000,  0.0000)
  26 Fe     9.003038   10.887662   12.566771    ( 0.0000,  0.0000,  2.0000)
  27 Al     5.195726    0.298135   12.437274    ( 0.0000,  0.0000,  0.0000)
  28 Ni    14.215560   11.002504   12.388093    ( 0.0000,  0.0000,  1.5000)
  29 Cr    16.511106   10.769450   12.291526    ( 0.0000,  0.0000,  0.0000)
  30 Al     1.318734    2.601739   12.868991    ( 0.0000,  0.0000,  0.0000)
  31 Co     3.847481    2.544178   12.789621    ( 0.0000,  0.0000,  2.1000)
  32 Cr     6.362517    2.418221   12.791148    ( 0.0000,  0.0000,  0.0000)
  33 Cr     8.723320    2.400139   12.810986    ( 0.0000,  0.0000,  0.0000)
  34 Al    11.226279    2.774438   12.665129    ( 0.0000,  0.0000,  0.0000)
  35 Ni     2.841787    4.582288   13.130227    ( 0.0000,  0.0000,  1.5000)
  36 Co     5.278480    4.658919   12.950924    ( 0.0000,  0.0000,  2.1000)
  37 Fe     7.624043    4.430727   12.930631    ( 0.0000,  0.0000,  2.0000)
  38 Fe    10.146167    5.188435   12.946896    ( 0.0000,  0.0000,  2.0000)
  39 Fe    12.903822    4.704175   13.184607    ( 0.0000,  0.0000,  2.0000)
  40 Cr     4.003973    6.764089   11.629017    ( 0.0000,  0.0000,  0.0000)
  41 Cr     6.419936    6.475243   11.634459    ( 0.0000,  0.0000,  0.0000)
  42 Fe     8.932011    6.792338   11.499670    ( 0.0000,  0.0000,  2.0000)
  43 Fe    11.571323    6.692673   11.663868    ( 0.0000,  0.0000,  2.0000)
  44 Al    13.983341    6.522929   11.742112    ( 0.0000,  0.0000,  0.0000)
  45 Cr    18.078994    8.610958   12.280568    ( 0.0000,  0.0000,  0.0000)
  46 Ni     7.913413    8.811161   12.025074    ( 0.0000,  0.0000,  1.5000)
  47 Ni    10.321710    8.758440   12.393314    ( 0.0000,  0.0000,  1.5000)
  48 Co    13.020372    8.742567   12.262800    ( 0.0000,  0.0000,  2.1000)
  49 Cr    15.473982    8.657096   12.073134    ( 0.0000,  0.0000,  0.0000)
  50 Co     1.564791    1.007231   14.815718    ( 0.0000,  0.0000,  2.1000)
  51 Fe     3.924327    0.722916   14.521413    ( 0.0000,  0.0000,  2.0000)
  52 Fe     6.398651    0.899634   14.558093    ( 0.0000,  0.0000,  2.0000)
  53 Ni     8.910075    0.513025   15.026074    ( 0.0000,  0.0000,  1.5000)
  54 Co    11.239926    0.735957   14.588404    ( 0.0000,  0.0000,  2.1000)
  55 Cr     2.622493    3.210593   15.062899    ( 0.0000,  0.0000,  0.0000)
  56 Fe     4.978022    2.999565   15.148676    ( 0.0000,  0.0000,  2.0000)
  57 Co     7.540608    2.956123   14.971050    ( 0.0000,  0.0000,  2.1000)
  58 Co     9.958358    2.916038   15.123252    ( 0.0000,  0.0000,  2.1000)
  59 Fe    12.552065    2.843803   14.844562    ( 0.0000,  0.0000,  2.0000)
  60 Fe     3.827792    5.366565   15.382758    ( 0.0000,  0.0000,  2.0000)
  61 Al     6.297346    5.130028   15.282100    ( 0.0000,  0.0000,  0.0000)
  62 Ni     8.833332    5.085863   15.329195    ( 0.0000,  0.0000,  1.5000)
  63 Cr    11.307175    5.105298   15.192683    ( 0.0000,  0.0000,  0.0000)
  64 Co    13.938373    5.185440   15.351882    ( 0.0000,  0.0000,  2.1000)
  65 Fe     5.291096    7.394914   14.522281    ( 0.0000,  0.0000,  2.0000)
  66 Al     7.782214    6.870176   13.969808    ( 0.0000,  0.0000,  0.0000)
  67 Ni     9.987830    7.269966   14.464595    ( 0.0000,  0.0000,  1.5000)
  68 Al    12.424421    6.974258   13.990172    ( 0.0000,  0.0000,  0.0000)
  69 Cr    15.129243    7.149227   14.138616    ( 0.0000,  0.0000,  0.0000)
  70 Cr     6.620745    9.499191   14.250229    ( 0.0000,  0.0000,  0.0000)
  71 Fe     9.020102    9.324707   14.546754    ( 0.0000,  0.0000,  2.0000)
  72 Al    11.374715    9.527724   14.403392    ( 0.0000,  0.0000,  0.0000)
  73 Fe    13.996342    9.431191   14.237748    ( 0.0000,  0.0000,  2.0000)
  74 Ni    16.176654    9.369240   14.283883    ( 0.0000,  0.0000,  1.5000)
  75 Cr    12.488005    1.161134   16.898324    ( 0.0000,  0.0000,  0.0000)
  76 Co     2.483691    1.221776   16.972212    ( 0.0000,  0.0000,  2.1000)
  77 Co     4.891405    1.313375   16.866257    ( 0.0000,  0.0000,  2.1000)
  78 Ni     7.487455    1.305182   16.636907    ( 0.0000,  0.0000,  1.5000)
  79 Co     9.937015    1.103587   17.115579    ( 0.0000,  0.0000,  2.1000)
  80 Al    13.612951    3.956775   17.401290    ( 0.0000,  0.0000,  0.0000)
  81 Co     3.622665    3.411810   17.167580    ( 0.0000,  0.0000,  2.1000)
  82 Fe     6.305826    3.604843   17.183152    ( 0.0000,  0.0000,  2.0000)
  83 Ni     8.650509    3.261826   17.405104    ( 0.0000,  0.0000,  1.5000)
  84 Cr    11.172226    3.549811   17.366379    ( 0.0000,  0.0000,  0.0000)
  85 Ni    15.349786    6.015332   17.699178    ( 0.0000,  0.0000,  1.5000)
  86 Fe     5.039611    5.775794   17.678344    ( 0.0000,  0.0000,  2.0000)
  87 Ni     7.517347    5.915705   17.585759    ( 0.0000,  0.0000,  1.5000)
  88 Co    10.057460    6.150696   17.743734    ( 0.0000,  0.0000,  2.1000)
  89 Ni    12.354108    5.849770   17.566750    ( 0.0000,  0.0000,  1.5000)
  90 Al    16.305277    7.596042   16.380595    ( 0.0000,  0.0000,  0.0000)
  91 Co     6.117525    7.624908   16.605704    ( 0.0000,  0.0000,  2.1000)
  92 Ni     8.518602    7.724728   16.433653    ( 0.0000,  0.0000,  1.5000)
  93 Cr    11.370069    7.865150   16.282327    ( 0.0000,  0.0000,  0.0000)
  94 Ni    13.790838    7.606107   16.326469    ( 0.0000,  0.0000,  1.5000)
  95 Ni    17.628760    9.865653   16.137680    ( 0.0000,  0.0000,  1.5000)
  96 Cr     7.232523    9.939713   16.525365    ( 0.0000,  0.0000,  0.0000)
  97 Cr    10.171432   10.030065   16.541110    ( 0.0000,  0.0000,  0.0000)
  98 Co    12.696007   10.169866   16.420977    ( 0.0000,  0.0000,  2.1000)
  99 Co    15.031849    9.591502   16.656912    ( 0.0000,  0.0000,  2.1000)
 100 Co     5.820425   10.419101   18.389250    ( 0.0000,  0.0000,  2.1000)
 101 Cr     2.246295   -0.492243   18.841089    ( 0.0000,  0.0000,  0.0000)
 102 Fe    11.252792   10.480816   18.684443    ( 0.0000,  0.0000,  2.0000)
 103 Ni    13.897176   10.615644   18.533033    ( 0.0000,  0.0000,  1.5000)
 104 Fe    16.269489   10.217411   18.981789    ( 0.0000,  0.0000,  2.0000)
 105 Cr     1.007979    1.808526   19.117490    ( 0.0000,  0.0000,  0.0000)
 106 Fe     3.549826    1.750727   19.118879    ( 0.0000,  0.0000,  2.0000)
 107 Ni     6.367537    1.676682   18.836209    ( 0.0000,  0.0000,  1.5000)
 108 Ni     8.755823    1.713201   19.040298    ( 0.0000,  0.0000,  1.5000)
 109 Cr    11.191370    1.656138   19.258052    ( 0.0000,  0.0000,  0.0000)
 110 Al    14.929144    3.572627   20.251635    ( 0.0000,  0.0000,  0.0000)
 111 Al     5.005358    3.959048   19.404603    ( 0.0000,  0.0000,  0.0000)
 112 Cr     7.659049    3.836707   19.622593    ( 0.0000,  0.0000,  0.0000)
 113 Al     9.959685    4.113280   19.556811    ( 0.0000,  0.0000,  0.0000)
 114 Co    12.259545    4.126166   19.470044    ( 0.0000,  0.0000,  2.1000)
 115 Cr    16.467129    6.198044   19.982872    ( 0.0000,  0.0000,  0.0000)
 116 Co     6.273684    6.166869   19.781857    ( 0.0000,  0.0000,  2.1000)
 117 Fe     8.485171    6.975553   20.329937    ( 0.0000,  0.0000,  2.0000)
 118 Ni    11.107417    6.749285   19.641671    ( 0.0000,  0.0000,  1.5000)
 119 Co    13.876635    6.126379   19.534340    ( 0.0000,  0.0000,  2.1000)
 120 Ni    17.597386    8.175824   18.509757    ( 0.0000,  0.0000,  1.5000)
 121 Cr     7.287346    8.139282   18.707460    ( 0.0000,  0.0000,  0.0000)
 122 Co    10.048922    8.418829   18.412159    ( 0.0000,  0.0000,  2.1000)
 123 Fe    12.451150    8.254572   18.351016    ( 0.0000,  0.0000,  2.0000)
 124 Ni    15.082681    8.155250   18.639005    ( 0.0000,  0.0000,  1.5000)

Unit cell:
           periodic     x           y           z      points  spacing
  1. axis:    yes   12.614700    0.000000    0.000000    56     0.1951
  2. axis:    yes    6.308550   10.926700    0.000000    56     0.1951
  3. axis:    no     0.000000    0.000000   29.353100   128     0.2293

  Lengths:  12.614700  12.617075  29.353100
  Angles:   90.000000  90.000000  59.999934

Effective grid spacing dv^(1/3) = 0.2160

     iter     time        total  log10-change:  magmom
                         energy  eigst   dens
iter:   1 15:58:33 -1155.542356                  +149.4303
iter:   2 16:00:40 -1531.326130  +0.39  -1.08    +80.4128
iter:   3 16:02:47 -3264.289111  +1.49  -0.85    +54.2125
iter:   4 16:04:55  -999.829239  +0.37  -0.53    +31.2392
iter:   5 16:07:03  -961.635828  -0.05  -1.16    +26.4243
iter:   6 16:09:10  -958.116754  -0.53  -1.20    +25.6691
iter:   7 16:11:18  -935.944459  -1.04  -1.21    +26.6806
iter:   8 16:13:25  -940.935963  -0.97  -1.25    +27.7078
iter:   9 16:15:33 -1610.494104  -0.25  -1.22    +30.5511
iter:  10 16:17:41  -919.688315  -0.82  -0.82    +27.9039
iter:  11 16:19:48  -938.160734  -1.48  -1.32    +28.2845
iter:  12 16:21:56  -914.511544  -1.33  -1.27    +30.9026
iter:  13 16:24:04  -918.604665  -1.42  -1.40    +31.9160
iter:  14 16:26:11  -914.440389  -1.52  -1.38    +36.2323
iter:  15 16:28:19  -905.163361  -1.48  -1.43    +37.3080
iter:  16 16:30:26 -1133.458318  -1.01  -1.51    +40.8402
iter:  17 16:32:34  -921.511389  -1.28  -1.02    +39.4813
iter:  18 16:34:41  -912.078942  -1.72  -1.45    +37.9838
iter:  19 16:36:48  -896.816998  -2.05  -1.48    +41.1596
iter:  20 16:38:56  -895.148297  -2.64  -1.66    +44.9302
iter:  21 16:41:03  -897.597096  -2.47  -1.69    +47.2160
iter:  22 16:43:11  -969.521435  -1.75  -1.66    +51.0234
iter:  23 16:45:19  -900.735438  -1.88  -1.23    +51.5357
iter:  24 16:47:26  -896.691920  -2.53  -1.65    +52.0607
iter:  25 16:49:33  -899.731818  -2.41  -1.74    +54.9205
iter:  26 16:51:41  -905.138688  -2.23  -1.75    +56.4391
iter:  27 16:53:48  -903.249268  -2.23  -1.66    +57.9627
iter:  28 16:55:56  -900.568380  -2.63  -1.70    +60.2938
iter:  29 16:58:04  -914.643666  -2.22  -1.87    +62.0537
iter:  30 17:00:11  -902.311758  -2.29  -1.59    +62.6761
iter:  31 17:02:19  -903.064806  -2.54  -1.90    +64.4141
iter:  32 17:04:26  -907.150688  -2.46  -2.00    +66.4100
iter:  33 17:06:34  -914.808188  -2.07  -1.82    +67.3703
iter:  34 17:08:42  -904.186047  -2.46  -1.65    +67.9040
iter:  35 17:10:50  -906.006523  -2.58  -2.05    +69.7569
iter:  36 17:12:57  -905.106011  -2.72  -1.97    +70.0789
iter:  37 17:15:06  -904.277722  -3.11  -2.03    +71.5897
iter:  38 17:17:17  -904.664363  -3.27  -2.19    +72.8537
iter:  39 17:19:27  -906.078831  -3.00  -2.19    +74.5863
iter:  40 17:21:38  -904.895488  -3.18  -2.04    +74.8861
iter:  41 17:23:49  -905.491691  -3.19  -2.26    +75.2053
iter:  42 17:25:59  -905.575573  -3.02  -2.21    +75.9229
iter:  43 17:28:10  -905.637702  -3.17  -2.28    +76.2207
iter:  44 17:30:21  -905.353494  -3.30  -2.30    +76.5263
iter:  45 17:32:31  -905.265503  -3.72  -2.51    +76.6464
iter:  46 17:34:42  -905.661993  -3.45  -2.64    +77.0288
iter:  47 17:36:52  -905.394810  -3.79  -2.41    +77.0425
iter:  48 17:39:03  -905.409841  -4.18  -2.66    +77.1200
iter:  49 17:41:13  -905.571203  -3.75  -2.71    +77.2481
iter:  50 17:43:23  -905.514677  -4.66  -2.61    +77.1171
iter:  51 17:45:35  -905.627308  -4.04  -2.63    +77.0047
iter:  52 17:47:55  -905.640670  -3.81  -2.57    +76.8188
iter:  53 17:50:14  -905.711912c -4.18  -2.57    +76.8204
iter:  54 17:52:33  -905.675395c -3.95  -2.54    +76.7087
iter:  55 17:54:52  -905.680356c -4.60  -2.53    +76.6903
iter:  56 17:57:12  -905.944942  -3.77  -2.56    +76.6124
iter:  57 17:59:31  -905.806647  -3.79  -2.46    +76.6440
iter:  58 18:01:51  -905.696931  -3.87  -2.52    +76.4562
iter:  59 18:04:10  -907.081445  -3.10  -2.59    +76.4160
iter:  60 18:06:29  -905.955505  -3.23  -2.12    +76.3226
iter:  61 18:08:48  -905.639452  -3.31  -2.38    +76.3137
iter:  62 18:11:08  -905.669814  -3.73  -2.59    +76.2144
iter:  63 18:13:37  -905.789611  -3.71  -2.62    +76.2230
iter:  64 18:16:09  -905.659618  -4.07  -2.50    +76.1531
iter:  65 18:18:42  -906.112994  -3.52  -2.63    +76.0737
iter:  66 18:21:14  -905.618632  -3.76  -2.34    +76.1101
iter:  67 18:23:45  -905.709754  -4.28  -2.74    +76.1777
iter:  68 18:26:16  -905.625018c -4.40  -2.59    +76.1149
iter:  69 18:28:48  -905.626842c -4.41  -2.77    +76.0798
iter:  70 18:31:20  -905.600992c -4.21  -2.81    +76.1233
iter:  71 18:33:51  -905.748928  -3.99  -2.97    +76.1576
iter:  72 18:36:23  -905.614668  -4.17  -2.61    +76.2303
iter:  73 18:38:54  -905.598923  -4.95  -2.91    +76.2750
iter:  74 18:41:26  -905.605506c -5.44  -3.07    +76.2703
iter:  75 18:43:57  -905.596258c -5.30  -3.00    +76.2859
iter:  76 18:46:29  -905.593181c -5.24  -3.19    +76.2975
iter:  77 18:49:00  -905.601921c -5.05  -3.28    +76.3758
iter:  78 18:51:32  -905.608021c -5.01  -3.29    +76.4322
iter:  79 18:54:04  -905.604180c -5.22  -3.29    +76.4012
iter:  80 18:56:36  -905.606992c -5.11  -3.36    +76.4711
iter:  81 18:59:08  -905.610861c -5.31  -3.41    +76.5597
iter:  82 19:01:40  -905.614756c -5.47  -3.37    +76.6050
iter:  83 19:04:12  -905.612610c -5.43  -3.31    +76.5884
iter:  84 19:06:44  -905.651951c -4.91  -3.30    +76.6472
iter:  85 19:09:16  -905.631385c -5.29  -2.93    +76.6495
iter:  86 19:11:48  -905.628674c -5.00  -3.08    +76.6863
iter:  87 19:14:20  -905.633033c -5.11  -3.10    +76.8348
iter:  88 19:16:52  -905.641524c -5.16  -3.06    +76.9375
iter:  89 19:19:24  -905.668698c -4.26  -2.98    +76.9887
iter:  90 19:21:55  -905.619297c -4.70  -2.79    +76.9988
iter:  91 19:24:27  -905.617793c -5.07  -3.18    +77.0381
iter:  92 19:26:59  -905.612378c -5.19  -3.16    +77.0495
iter:  93 19:29:31  -905.617370c -5.01  -3.28    +77.0165
iter:  94 19:32:03  -905.632648c -4.87  -3.31    +76.9918
iter:  95 19:34:35  -905.613924c -5.44  -3.09    +76.9990
iter:  96 19:37:07  -905.617441c -5.25  -3.47    +76.9792
iter:  97 19:39:39  -905.624787c -5.27  -3.40    +76.9684
iter:  98 19:42:10  -905.616707c -5.54  -3.19    +77.0077
iter:  99 19:44:42  -905.615223c -5.58  -3.44    +76.9869
iter: 100 19:47:14  -905.616122c -5.39  -3.57    +76.9619
iter: 101 19:49:46  -905.616979c -5.55  -3.52    +76.9367
iter: 102 19:52:18  -905.615989c -6.21  -3.51    +76.9483
iter: 103 19:54:50  -905.617042c -5.72  -3.64    +76.9481
iter: 104 19:57:21  -905.616836c -5.87  -3.55    +76.9493
iter: 105 19:59:52  -905.617470c -6.03  -3.63    +76.9657
iter: 106 20:02:22  -905.617202c -5.70  -3.60    +76.9701
iter: 107 20:04:52  -905.616948c -6.01  -3.51    +76.9581
iter: 108 20:07:22  -905.616564c -5.73  -3.63    +76.9035
iter: 109 20:09:53  -905.616481c -6.10  -3.79    +76.9092
iter: 110 20:12:23  -905.616642c -6.55  -3.86    +76.9341
iter: 111 20:14:53  -905.616762c -6.52  -3.90    +76.9413
iter: 112 20:17:24  -905.618811c -5.99  -3.98    +76.9487
iter: 113 20:19:53  -905.618186c -5.84  -3.64    +76.9490
iter: 114 20:22:23  -905.616980c -6.34  -3.53    +76.9358
iter: 115 20:24:52  -905.617593c -6.44  -3.95    +76.9409
iter: 116 20:27:22  -905.617368c -6.61  -3.76    +76.9376
iter: 117 20:29:52  -905.617575c -6.58  -4.00c   +76.9410
iter: 118 20:32:21  -905.618075c -6.15  -3.82    +76.9385
iter: 119 20:34:51  -905.618075c -6.27  -3.87    +76.9380
iter: 120 20:37:21  -905.617800c -6.46  -3.72    +76.9376
iter: 121 20:39:50  -905.618036c -6.65  -3.99    +76.9458
iter: 122 20:42:20  -905.618121c -6.59  -3.78    +76.9461
iter: 123 20:44:50  -905.618166c -6.49  -3.88    +76.9466
iter: 124 20:47:19  -905.620118c -5.87  -3.81    +76.9596
iter: 125 20:49:49  -905.618135c -6.18  -3.64    +76.9587
iter: 126 20:52:18  -905.619045c -6.19  -3.97    +76.9692
iter: 127 20:54:48  -905.618601c -6.45  -3.91    +76.9690
iter: 128 20:57:18  -905.618450c -6.92  -3.82    +76.9663
iter: 129 20:59:47  -905.618500c -7.22  -4.01c   +76.9685
iter: 130 21:02:17  -905.619292c -6.44  -4.06c   +76.9734
iter: 131 21:04:47  -905.618675c -6.66  -3.94    +76.9738
iter: 132 21:07:16  -905.618915c -6.72  -4.07c   +76.9797
iter: 133 21:09:46  -905.618847c -7.14  -4.11c   +76.9830
iter: 134 21:12:16  -905.619085c -6.84  -4.10c   +76.9890
iter: 135 21:14:45  -905.619210c -6.99  -4.51c   +76.9861
iter: 136 21:17:15  -905.619285c -6.67  -4.40c   +76.9984
iter: 137 21:19:44  -905.619538c -6.86  -4.19c   +77.0042
iter: 138 21:22:14  -905.619503c -7.71c -4.52c   +77.0042

Converged after 138 iterations.

Dipole moment: (33.270605, 78.546886, 0.108407) |e|*Ang

Total magnetic moment: (0.000000, 0.000000, 77.004235)
Local magnetic moments:
   0 Cr ( 0.000000,  0.000000,  2.422375)
   1 Cr ( 0.000000,  0.000000, -3.246143)
   2 Al ( 0.000000,  0.000000, -0.027635)
   3 Fe ( 0.000000,  0.000000,  2.383661)
   4 Cr ( 0.000000,  0.000000, -2.765564)
   5 Co ( 0.000000,  0.000000,  1.314519)
   6 Co ( 0.000000,  0.000000,  1.541932)
   7 Ni ( 0.000000,  0.000000,  0.258780)
   8 Fe ( 0.000000,  0.000000,  2.506773)
   9 Ni ( 0.000000,  0.000000,  0.248977)
  10 Ni ( 0.000000,  0.000000,  0.093357)
  11 Ni ( 0.000000,  0.000000,  0.231980)
  12 Al ( 0.000000,  0.000000, -0.021877)
  13 Cr ( 0.000000,  0.000000, -2.760668)
  14 Cr ( 0.000000,  0.000000, -2.742944)
  15 Fe ( 0.000000,  0.000000,  2.396945)
  16 Fe ( 0.000000,  0.000000,  2.268177)
  17 Fe ( 0.000000,  0.000000,  2.830207)
  18 Co ( 0.000000,  0.000000,  1.497336)
  19 Fe ( 0.000000,  0.000000,  2.499958)
  20 Al ( 0.000000,  0.000000, -0.026244)
  21 Ni ( 0.000000,  0.000000,  0.342004)
  22 Co ( 0.000000,  0.000000,  1.408460)
  23 Co ( 0.000000,  0.000000,  1.600015)
  24 Al ( 0.000000,  0.000000, -0.043273)
  25 Al ( 0.000000,  0.000000, -0.018581)
  26 Fe ( 0.000000,  0.000000,  2.517807)
  27 Al ( 0.000000,  0.000000, -0.036830)
  28 Ni ( 0.000000,  0.000000,  0.359263)
  29 Cr ( 0.000000,  0.000000,  1.820428)
  30 Al ( 0.000000,  0.000000, -0.026529)
  31 Co ( 0.000000,  0.000000,  1.234708)
  32 Cr ( 0.000000,  0.000000, -0.726417)
  33 Cr ( 0.000000,  0.000000, -1.236555)
  34 Al ( 0.000000,  0.000000, -0.018973)
  35 Ni ( 0.000000,  0.000000,  0.234449)
  36 Co ( 0.000000,  0.000000,  1.147007)
  37 Fe ( 0.000000,  0.000000,  1.779817)
  38 Fe ( 0.000000,  0.000000,  2.492009)
  39 Fe ( 0.000000,  0.000000,  2.172018)
  40 Cr ( 0.000000,  0.000000, -0.552444)
  41 Cr ( 0.000000,  0.000000,  0.421728)
  42 Fe ( 0.000000,  0.000000,  2.138885)
  43 Fe ( 0.000000,  0.000000,  2.143986)
  44 Al ( 0.000000,  0.000000, -0.014373)
  45 Cr ( 0.000000,  0.000000,  0.013307)
  46 Ni ( 0.000000,  0.000000,  0.328239)
  47 Ni ( 0.000000,  0.000000,  0.382394)
  48 Co ( 0.000000,  0.000000,  1.212553)
  49 Cr ( 0.000000,  0.000000,  0.064650)
  50 Co ( 0.000000,  0.000000,  1.148993)
  51 Fe ( 0.000000,  0.000000,  2.231996)
  52 Fe ( 0.000000,  0.000000,  2.159706)
  53 Ni ( 0.000000,  0.000000,  0.613131)
  54 Co ( 0.000000,  0.000000,  1.517718)
  55 Cr ( 0.000000,  0.000000, -1.784224)
  56 Fe ( 0.000000,  0.000000,  2.295009)
  57 Co ( 0.000000,  0.000000,  1.277112)
  58 Co ( 0.000000,  0.000000,  1.525978)
  59 Fe ( 0.000000,  0.000000,  2.339828)
  60 Fe ( 0.000000,  0.000000,  2.205202)
  61 Al ( 0.000000,  0.000000, -0.061385)
  62 Ni ( 0.000000,  0.000000,  0.300176)
  63 Cr ( 0.000000,  0.000000, -2.560672)
  64 Co ( 0.000000,  0.000000,  1.101657)
  65 Fe ( 0.000000,  0.000000,  2.238341)
  66 Al ( 0.000000,  0.000000, -0.023150)
  67 Ni ( 0.000000,  0.000000,  0.290264)
  68 Al ( 0.000000,  0.000000, -0.026068)
  69 Cr ( 0.000000,  0.000000, -2.410803)
  70 Cr ( 0.000000,  0.000000, -1.749393)
  71 Fe ( 0.000000,  0.000000,  2.059451)
  72 Al ( 0.000000,  0.000000, -0.035193)
  73 Fe ( 0.000000,  0.000000,  2.471478)
  74 Ni ( 0.000000,  0.000000,  0.374708)
  75 Cr ( 0.000000,  0.000000, -1.902719)
  76 Co ( 0.000000,  0.000000,  1.282022)
  77 Co ( 0.000000,  0.000000,  1.435812)
  78 Ni ( 0.000000,  0.000000,  0.561172)
  79 Co ( 0.000000,  0.000000,  1.474342)
  80 Al ( 0.000000,  0.000000, -0.021543)
  81 Co ( 0.000000,  0.000000,  1.246941)
  82 Fe ( 0.000000,  0.000000,  2.540217)
  83 Ni ( 0.000000,  0.000000,  0.338492)
  84 Cr ( 0.000000,  0.000000,  2.348028)
  85 Ni ( 0.000000,  0.000000,  0.404809)
  86 Fe ( 0.000000,  0.000000,  2.356419)
  87 Ni ( 0.000000,  0.000000,  0.445077)
  88 Co ( 0.000000,  0.000000,  1.683633)
  89 Ni ( 0.000000,  0.000000,  0.411075)
  90 Al ( 0.000000,  0.000000, -0.039823)
  91 Co ( 0.000000,  0.000000,  1.242257)
  92 Ni ( 0.000000,  0.000000,  0.394367)
  93 Cr ( 0.000000,  0.000000,  1.322943)
  94 Ni ( 0.000000,  0.000000,  0.296802)
  95 Ni ( 0.000000,  0.000000,  0.296492)
  96 Cr ( 0.000000,  0.000000,  1.855957)
  97 Cr ( 0.000000,  0.000000, -1.558182)
  98 Co ( 0.000000,  0.000000,  1.508898)
  99 Co ( 0.000000,  0.000000,  1.524785)
 100 Co ( 0.000000,  0.000000,  0.920258)
 101 Cr ( 0.000000,  0.000000, -2.940084)
 102 Fe ( 0.000000,  0.000000,  2.710452)
 103 Ni ( 0.000000,  0.000000,  0.593134)
 104 Fe ( 0.000000,  0.000000,  2.916012)
 105 Cr ( 0.000000,  0.000000,  2.603698)
 106 Fe ( 0.000000,  0.000000,  2.530807)
 107 Ni ( 0.000000,  0.000000,  0.507564)
 108 Ni ( 0.000000,  0.000000,  0.332466)
 109 Cr ( 0.000000,  0.000000, -2.782943)
 110 Al ( 0.000000,  0.000000, -0.021077)
 111 Al ( 0.000000,  0.000000, -0.026460)
 112 Cr ( 0.000000,  0.000000, -3.107546)
 113 Al ( 0.000000,  0.000000, -0.016080)
 114 Co ( 0.000000,  0.000000,  0.991449)
 115 Cr ( 0.000000,  0.000000, -3.270158)
 116 Co ( 0.000000,  0.000000,  1.390801)
 117 Fe ( 0.000000,  0.000000,  3.031643)
 118 Ni ( 0.000000,  0.000000,  0.720254)
 119 Co ( 0.000000,  0.000000,  1.742174)
 120 Ni ( 0.000000,  0.000000,  0.262063)
 121 Cr ( 0.000000,  0.000000, -2.289890)
 122 Co ( 0.000000,  0.000000,  1.321306)
 123 Fe ( 0.000000,  0.000000,  2.629398)
 124 Ni ( 0.000000,  0.000000,  0.488233)

Energy contributions relative to reference atoms: (reference = -3927717.499734)

Kinetic:       +301.584377
Potential:     -306.246607
External:        +0.000000
XC:            -935.156874
Entropy (-ST):   -5.108916
Local:          +36.754059
--------------------------
Free energy:   -908.173961
Extrapolated:  -905.619503

Dipole-layer corrected work functions: 4.598072, 4.455756 eV

Spin contamination: 49.806905 electrons
Showing all kpts
                      Up                     Down
 Kpt  Band  Eigenvalues  Occupancy  Eigenvalues  Occupancy
  0   547      0.09697    0.99830      1.08504    0.02921
  0   548      0.10847    0.99810      1.10277    0.02458
  0   549      0.12275    0.99780      1.11127    0.02262
  0   550      0.13163    0.99760      1.11959    0.02085

  1   547      0.08736    0.99846      1.08962    0.02794
  1   548      0.09715    0.99830      1.09499    0.02651
  1   549      0.11199    0.99803      1.10261    0.02462
  1   550      0.12359    0.99779      1.11571    0.02166


Fermi level: 0.73467

No gap

Forces in eV/Ang:
  0 Cr   -0.41098    2.04747   -1.14047
  1 Cr   -0.81066    0.28952    0.89821
  2 Al    1.09304   -0.60078    0.46053
  3 Fe   -0.94536    1.23000   -0.00379
  4 Cr   -1.01875    0.97495    0.44785
  5 Co    0.76638   -0.09198    0.78766
  6 Co   -0.21841    0.19138    0.27936
  7 Ni   -0.30517    0.25231   -0.23714
  8 Fe    0.37695   -0.17805   -0.24673
  9 Ni   -0.23564   -0.97643    1.07785
 10 Ni    1.61836    0.10235    1.26842
 11 Ni   -0.47180    0.03844    0.01159
 12 Al   -0.87566   -0.50113   -0.55821
 13 Cr    0.68484   -0.05551    0.08264
 14 Cr   -1.01272    0.23927   -0.24915
 15 Fe   -0.33631   -1.33946    0.68005
 16 Fe    1.11883   -0.64905    0.29425
 17 Fe    0.44744   -0.01724    0.58823
 18 Co    0.31118    0.04936   -0.00253
 19 Fe   -0.18457    0.82537    0.31083
 20 Al    0.45338   -0.40202   -1.26012
 21 Ni    0.33379   -0.45344   -0.60523
 22 Co    0.78182   -0.41572   -0.41524
 23 Co    0.57955   -0.01970    0.66882
 24 Al   -0.81691   -0.31644   -0.16320
 25 Al    0.21061   -0.10966    1.61180
 26 Fe   -0.60604    0.92657    0.24416
 27 Al    0.19970   -0.97582   -1.26530
 28 Ni   -1.31907   -0.09974    0.30316
 29 Cr    0.29501    1.11673    1.13763
 30 Al    1.24842   -0.86359   -1.27704
 31 Co    0.54454   -0.69139   -0.32049
 32 Cr    0.18721    1.09618   -0.09611
 33 Cr    0.36334   -0.31924    0.12064
 34 Al    0.03774    0.07208    0.15751
 35 Ni   -0.85683    1.79830   -0.41852
 36 Co   -0.74940    0.25682    0.11923
 37 Fe    0.48203    0.89825    0.78646
 38 Fe   -0.06033   -0.43280    0.37820
 39 Fe   -0.72815    0.50284   -0.46153
 40 Cr   -0.09297   -0.17150    0.42911
 41 Cr   -0.29959    0.04921    1.19323
 42 Fe    0.63488   -0.46112    0.59152
 43 Fe   -0.51488   -0.33141   -0.54278
 44 Al    1.07127   -0.95868    0.27551
 45 Cr   -0.67912   -0.13200   -0.23034
 46 Ni   -0.88204   -0.03548    0.33890
 47 Ni    0.25748    0.03157   -0.32670
 48 Co   -0.96475    0.16660   -0.71313
 49 Cr   -0.38827   -0.13754   -0.80904
 50 Co   -0.98050   -0.92476   -0.43040
 51 Fe   -0.54785    1.18921    1.15725
 52 Fe    0.24806   -0.64229    0.11642
 53 Ni   -0.10785    0.41531   -1.64540
 54 Co    0.62192    0.47188   -0.34163
 55 Cr   -0.28814   -0.90530    0.34456
 56 Fe    0.16880    0.01904   -0.98353
 57 Co    0.49618    0.18438    0.12601
 58 Co    0.42768   -0.42623   -0.14784
 59 Fe   -0.34529    0.47260    1.35739
 60 Fe    0.11796   -0.63054   -0.19050
 61 Al    0.34689    0.59336   -0.07798
 62 Ni   -0.14666    0.23406    0.46896
 63 Cr   -0.07949   -0.80505    1.09890
 64 Co   -0.27918    0.57754   -0.35434
 65 Fe   -0.63139   -0.25475   -1.74426
 66 Al   -0.61262    0.81381   -0.54312
 67 Ni    1.25939   -0.98829   -0.80523
 68 Al    0.49640    1.07847    0.26880
 69 Cr    0.28448   -0.67114   -0.77883
 70 Cr   -0.05298   -0.33761    0.79601
 71 Fe   -1.80161    0.84056   -0.27462
 72 Al    1.71375   -0.54193   -0.69572
 73 Fe   -1.75551   -0.28489    1.29956
 74 Ni    2.52447   -0.29544    0.27978
 75 Cr    0.33332    0.89001   -0.90773
 76 Co   -0.02308    0.23035    0.01892
 77 Co    0.45730   -0.12304    0.19684
 78 Ni   -0.37367    0.25878    1.47641
 79 Co    0.60222   -0.38549   -0.59917
 80 Al    1.90096   -1.33528   -0.01191
 81 Co    0.07812    0.61719    0.73129
 82 Fe   -0.54661   -0.61090    0.40967
 83 Ni    0.88161    1.61923   -1.14874
 84 Cr   -0.49538   -0.73641   -0.73459
 85 Ni   -1.28891   -1.90380   -0.32309
 86 Fe    0.44001   -0.46188   -0.06143
 87 Ni    0.42808   -1.23862    0.26308
 88 Co   -1.32495   -0.76689   -1.09590
 89 Ni    0.53870    0.79650   -0.08326
 90 Al    0.20666    1.26399    0.28166
 91 Co    0.94791   -0.17210   -1.11172
 92 Ni    1.04881    0.44615   -0.12151
 93 Cr   -0.74261   -0.38798    0.86552
 94 Ni   -0.36765   -0.28390   -0.47977
 95 Ni   -1.48779   -0.12255    0.64338
 96 Cr    2.28113    0.10080    0.12648
 97 Cr   -1.08142   -0.21005    0.60105
 98 Co   -0.39121   -1.02219    0.24472
 99 Co    0.19361    1.40263   -0.02192
100 Co    0.95410   -0.05144    1.13173
101 Cr    0.14198    0.48358   -0.40139
102 Fe    0.54561    0.40249   -0.26521
103 Ni   -0.27463   -0.93332    0.04242
104 Fe   -0.65673    0.24052   -0.46611
105 Cr   -0.97944   -0.44815   -0.92510
106 Fe    0.91063   -0.41238   -0.90964
107 Ni   -0.92371    0.74419    0.12203
108 Ni    0.12833   -0.69802    0.93814
109 Cr    0.23290    0.31959   -0.06768
110 Al   -0.10278    1.73214   -0.39986
111 Al   -0.24916   -1.05623    0.17505
112 Cr   -2.35146    0.79005   -0.21892
113 Al    0.88440    0.68930    0.19803
114 Co    1.43720    0.14663   -0.15198
115 Cr   -0.70860    0.57910   -0.37018
116 Co    0.24183   -0.22606   -0.63476
117 Fe    0.48043   -0.56507   -1.20372
118 Ni    0.53309   -1.04791    0.52091
119 Co   -0.61113   -0.27943   -0.17025
120 Ni   -1.26031   -0.02317    0.88375
121 Cr    0.72788    0.03004   -0.16864
122 Co   -1.07002    0.21951    0.02706
123 Fe    1.03056    0.57911    0.55679
124 Ni   -0.66551    0.30217    0.10801

Timing:                              incl.     excl.
-----------------------------------------------------------
Forces:                             41.578    41.578   0.2% |
Hamiltonian:                         1.784     0.010   0.0% |
 Atomic:                             0.353     0.001   0.0% |
  XC Correction:                     0.352     0.352   0.0% |
 Calculate atomic Hamiltonians:      0.856     0.856   0.0% |
 Communicate:                        0.146     0.146   0.0% |
 Initialize Hamiltonian:             0.000     0.000   0.0% |
 Poisson:                            0.088     0.088   0.0% |
 XC 3D grid:                         0.331     0.331   0.0% |
LCAO initialization:               235.338     0.539   0.0% |
 LCAO eigensolver:                  10.914     0.010   0.0% |
  Calculate projections:             0.000     0.000   0.0% |
  DenseAtomicCorrection:             0.000     0.000   0.0% |
  Distribute overlap matrix:         6.685     6.685   0.0% |
  Orbital Layouts:                   4.192     4.192   0.0% |
  Potential matrix:                  0.003     0.003   0.0% |
  Sum over cells:                    0.024     0.024   0.0% |
 LCAO to grid:                     221.846   221.846   1.1% |
 Set positions (LCAO WFS):           2.039     1.766   0.0% |
  Basic WFS set positions:           0.004     0.004   0.0% |
  Basis functions set positions:     0.001     0.001   0.0% |
  P tci:                             0.000     0.000   0.0% |
  ST tci:                            0.103     0.103   0.0% |
  mktci:                             0.167     0.167   0.0% |
PWDescriptor:                        0.097     0.097   0.0% |
SCF-cycle:                       19561.636     3.192   0.0% |
 Davidson:                       18965.551  6384.811  32.2% |------------|
  Apply H:                         350.101   344.446   1.7% ||
   HMM T:                            5.655     5.655   0.0% |
  Subspace diag:                  2085.313     0.053   0.0% |
   calc_h_matrix:                  858.397   544.144   2.7% ||
    Apply H:                       314.252   308.461   1.6% ||
     HMM T:                          5.791     5.791   0.0% |
   diagonalize:                    176.621   176.621   0.9% |
   rotate_psi:                    1050.243  1050.243   5.3% |-|
  calc. matrices:                 4889.199  4309.973  21.7% |--------|
   Apply H:                        579.226   567.948   2.9% ||
    HMM T:                          11.278    11.278   0.1% |
  diagonalize:                    3031.227  3031.227  15.3% |-----|
  rotate_psi:                     2224.900  2224.900  11.2% |---|
 Density:                          325.288     0.004   0.0% |
  Atomic density matrices:           3.402     3.402   0.0% |
  Mix:                             147.219   147.219   0.7% |
  Multipole moments:                 0.096     0.096   0.0% |
  Pseudo density:                  174.566   174.560   0.9% |
   Symmetrize density:               0.006     0.006   0.0% |
 Hamiltonian:                      251.534     1.468   0.0% |
  Atomic:                           52.390     0.183   0.0% |
   XC Correction:                   52.207    52.207   0.3% |
  Calculate atomic Hamiltonians:   124.810   124.810   0.6% |
  Communicate:                      18.764    18.764   0.1% |
  Poisson:                           5.275     5.275   0.0% |
  XC 3D grid:                       48.826    48.826   0.2% |
 Orthonormalize:                    16.071     0.001   0.0% |
  calc_s_matrix:                     1.937     1.937   0.0% |
  inverse-cholesky:                  0.734     0.734   0.0% |
  projections:                       9.991     9.991   0.1% |
  rotate_psi_s:                      3.409     3.409   0.0% |
Set symmetry:                        0.001     0.001   0.0% |
Other:                               7.706     7.706   0.0% |
-----------------------------------------------------------
Total:                                     19848.140 100.0%

Date: Mon Apr 17 21:23:00 2023
