
  ___ ___ ___ _ _ _  
 |   |   |_  | | | | 
 | | | | | . | | | | 
 |__ |  _|___|_____|  22.8.0
 |___|_|             

User:   c.zeng@d0103
Date:   Fri Apr 14 05:00:29 2023
Arch:   x86_64
Pid:    31996
CWD:    /home/c.zeng/projects/hea-corrosion/hea-mlp/data-curation/bulk-mcmc/dft-jobs/108
Python: 3.8.1
gpaw:   /home/c.zeng/usr/installs/gpaw/source/gpaw-22.8.0/gpaw
_gpaw:  /home/c.zeng/usr/installs/gpaw/source/gpaw-22.8.0/
        _gpaw.cpython-38-x86_64-linux-gnu.so
ase:    /home/c.zeng/.local/lib/python3.8/site-packages/ase-3.22.1-py3.8.egg/ase (version 3.22.1)
numpy:  /shared/centos7/python/3.8.1/lib/python3.8/site-packages/numpy (version 1.17.4)
scipy:  /shared/centos7/python/3.8.1/lib/python3.8/site-packages/scipy (version 1.4.1)
libxc:  4.2.3
units:  Angstrom and eV
cores: 30
OpenMP: False
OMP_NUM_THREADS: 1

Input parameters:
  convergence: {energy: 0.0001}
  kpts: [2 2 2]
  maxiter: 666
  mode: {ecut: 350.0,
         name: pw}
  occupations: {fixmagmom: False,
                name: fermi-dirac,
                width: 0.1}
  spinpol: True
  xc: PBE

System changes: positions, numbers, cell, pbc, initial_charges, initial_magmoms 

Initialize ...

species:
  Co:
    name: Cobalt
    id: 339d20d5b0b93d2de9531a1bee871d91
    Z: 27.0
    valence: 9
    core: 18
    charge: 0.0
    file: /home/c.zeng/usr/data/gpaw-setups-0.9.20000/Co.PBE.gz
    compensation charges: {type: gauss,
                           rc: 0.32,
                           lmax: 2}
    cutoffs: {filter: 1.87,
              core: 2.55}
    valence states:
      #              energy  rcut
      - 4s(2.00)    -5.469   1.005
      - 4p(0.00)    -1.277   1.058
      - 3d(7.00)    -8.205   1.005
      -  s          21.742   1.005
      -  p          25.934   1.058
      -  d          19.007   1.005
  
    # Using partial waves for Co as LCAO basis

  Fe:
    name: Iron
    id: 37abbd8d6c3c35915a9b583b742da910
    Z: 26.0
    valence: 8
    core: 18
    charge: 0.0
    file: /home/c.zeng/usr/data/gpaw-setups-0.9.20000/Fe.PBE.gz
    compensation charges: {type: gauss,
                           rc: 0.33,
                           lmax: 2}
    cutoffs: {filter: 2.06,
              core: 2.67}
    valence states:
      #              energy  rcut
      - 4s(2.00)    -5.291   1.164
      - 4p(0.00)    -1.326   1.058
      - 3d(6.00)    -7.505   1.058
      -  s          21.920   1.164
      -  p          25.885   1.058
      -  d          19.706   1.058
  
    # Using partial waves for Fe as LCAO basis

  Ni:
    name: Nickel
    id: 0d9f38a9d6e76a2886f07bb4381f212b
    Z: 28.0
    valence: 16
    core: 12
    charge: 0.0
    file: /home/c.zeng/usr/data/gpaw-setups-0.9.20000/Ni.PBE.gz
    compensation charges: {type: gauss,
                           rc: 0.36,
                           lmax: 2}
    cutoffs: {filter: 2.14,
              core: 1.98}
    valence states:
      #              energy  rcut
      - 4s(2.00)    -5.642   1.164
      - 3p(6.00)   -71.394   1.207
      - 4p(0.00)    -1.226   1.207
      - 3d(8.00)    -8.875   1.138
      -  s          21.570   1.164
      -  d          18.337   1.138
  
    # Using partial waves for Ni as LCAO basis

  Al:
    name: Aluminium
    id: 0292cae29f5d6237e50f6abdd43a7bdd
    Z: 13.0
    valence: 3
    core: 10
    charge: 0.0
    file: /home/c.zeng/usr/data/gpaw-setups-0.9.20000/Al.PBE.gz
    compensation charges: {type: gauss,
                           rc: 0.34,
                           lmax: 2}
    cutoffs: {filter: 1.91,
              core: 2.36}
    valence states:
      #              energy  rcut
      - 3s(2.00)    -7.753   1.085
      - 3p(1.00)    -2.712   1.085
      -  s          19.459   1.085
      -  p          24.499   1.085
      -  d           0.000   1.085
  
    # Using partial waves for Al as LCAO basis

  Cr:
    name: Chromium
    id: 33f258bda2ca9f93018e70263a35547b
    Z: 24.0
    valence: 6
    core: 18
    charge: 0.0
    file: /home/c.zeng/usr/data/gpaw-setups-0.9.20000/Cr.PBE.gz
    compensation charges: {type: gauss,
                           rc: 0.35,
                           lmax: 2}
    cutoffs: {filter: 2.14,
              core: 3.04}
    valence states:
      #              energy  rcut
      - 4s(1.00)    -4.007   1.164
      - 4p(0.00)    -0.989   1.217
      - 3d(5.00)    -2.913   1.111
      -  s          23.205   1.164
      -  p          26.223   1.217
      -  d          24.299   1.111
  
    # Using partial waves for Cr as LCAO basis

Reference energy: -3548577.034362  # eV

Spin-polarized calculation.
Magnetic moment: 136.400000

Convergence criteria:
 Maximum [total energy] change in last 3 cyles: 0.0001 eV / electron
 Maximum integral of absolute [dens]ity change: 0.0001 electrons / valence electron
 Maximum integral of absolute [eigenst]ate change: 4e-08 eV^2 / valence electron
 Maximum number of scf [iter]ations: 666
 (Square brackets indicate name in SCF output, whereas a 'c' in
 the SCF output indicates the quantity has converged.)

Symmetries present (total): 1

  ( 1  0  0)
  ( 0  1  0)
  ( 0  0  1)

8 k-points: 2 x 2 x 2 Monkhorst-Pack grid
4 k-points in the irreducible part of the Brillouin zone
       k-points in crystal coordinates                weights
   0:     0.25000000   -0.25000000   -0.25000000          2/8
   1:     0.25000000   -0.25000000    0.25000000          2/8
   2:     0.25000000    0.25000000   -0.25000000          2/8
   3:     0.25000000    0.25000000    0.25000000          2/8

Wave functions: Plane wave expansion
  Cutoff energy: 350.000 eV
  Number of coefficients (min, max): 18331, 18331
  Pulay-stress correction: 0.000000 eV/Ang^3 (de/decut=0.000000)
  Using FFTW library
  ScaLapack parameters: grid=1x1, blocksize=None
  Wavefunction extrapolation:
    Improved wavefunction reuse through dual PAW basis 

Occupation numbers: Fermi-Dirac:
  width: 0.1000  # eV
 

Eigensolver
   Davidson(niter=2) 

Densities:
  Coarse grid: 48*48*48 grid
  Fine grid: 96*96*96 grid
  Total Charge: 0.000000 

Density mixing:
  Method: difference
  Backend: pulay
  Linear mixing parameter: 0.05
  old densities: 5
  Damping of long wavelength oscillations: 50 

Hamiltonian:
  XC and Coulomb potentials evaluated on a 96*96*96 grid
  Using the PBE Exchange-Correlation functional
  External potential:
    NoExternalPotential
 

XC parameters: PBE with 2 nearest neighbor stencil

Memory estimate:
  Process memory now: 248.21 MiB
  Calculator: 1030.73 MiB
    Density: 5.48 MiB
      Arrays: 2.05 MiB
      Localized functions: 2.61 MiB
      Mixer: 0.82 MiB
    Hamiltonian: 1.60 MiB
      Arrays: 1.52 MiB
      XC: 0.00 MiB
      Poisson: 0.00 MiB
      vbar: 0.08 MiB
    Wavefunctions: 1023.65 MiB
      Arrays psit_nG: 754.10 MiB
      Eigensolver: 259.26 MiB
      Projections: 5.19 MiB
      Projectors: 0.71 MiB
      PW-descriptor: 4.39 MiB

Total number of cores used: 30
Parallelization over k-points: 2
Domain decomposition: 5 x 3 x 1

Number of atoms: 108
Number of atomic orbitals: 994
Number of bands in calculation: 674
Number of valence electrons: 980
Bands to converge: occupied

... initialized

Initializing position-dependent things.

Density initialized from atomic densities
Creating initial wave functions:
  674 bands from LCAO basis set

        Co-------Co---------------.  
       /|  Co       Fe            |  
      / |   AlCr     CrCo     CrCo|  
     / Ni       CAl     Ni        |  
    /   CCo      Ni      FAl      |  
   /    | CoCo     Co      CoCo   |  
  /   Co|  NiFeAl   NiNi    CrCr  |  
 *      Cr  CrCoNi   CoNiNi   FeNi|  
 |Fe   NiNiCr   CrNCr   FeCr      |  
 | Fe   | NiAl   NiNiCr    Cr     |  
 |     Co  CoFeNi   FeNiAl  NiAl  |  
 |      Fe    FeNi   FeAlFe   AlCr|  
 |Cr    |CoNi   NFeFe   FeFe     Fe  
 |      .-FeCr-----FeCr--FeCoNi---.  
 |     Cr    CoCr     FeCo  Cr Fe/   
 |    / Al      Co       Cr     /    
 Cr  /            Cr           /     
 |  /      Ni      Cr       Fe/      
 | / Co              Fe      /       
 |/                     Co  /        
 *-------------------------*         

Positions:
   0 Co    10.732479   -0.010418   10.721263    ( 0.0000,  0.0000,  2.1000)
   1 Fe    10.706231    1.787006    1.816653    ( 0.0000,  0.0000,  1.5000)
   2 Co     1.827923    0.046024    1.820803    ( 0.0000,  0.0000,  0.0000)
   3 Co     1.781666    1.794790   10.668295    ( 0.0000,  0.0000,  0.0000)
   4 Co     3.605675   -0.024615   10.696977    ( 0.0000,  0.0000,  0.0000)
   5 Ni     3.626284    1.755611    1.827590    ( 0.0000,  0.0000,  2.0000)
   6 Fe     5.347186   -0.032870    1.798425    ( 0.0000,  0.0000,  2.0000)
   7 Al     5.383406    1.755353   -0.004078    ( 0.0000,  0.0000,  2.0000)
   8 Fe     7.108694   -0.021619    0.052076    ( 0.0000,  0.0000,  0.0000)
   9 Cr     7.129131    1.783639    1.838109    ( 0.0000,  0.0000,  2.0000)
  10 Al     8.928414   -0.004386    1.840918    ( 0.0000,  0.0000,  2.0000)
  11 Co     8.945645    1.852509    0.063651    ( 0.0000,  0.0000,  0.0000)
  12 Co    10.721403    3.615743   10.707625    ( 0.0000,  0.0000,  2.1000)
  13 Fe    10.714905    5.407607    1.816064    ( 0.0000,  0.0000,  2.0000)
  14 Al     1.786931    3.537020    1.885127    ( 0.0000,  0.0000,  0.0000)
  15 Co     1.774396    5.426328   10.657058    ( 0.0000,  0.0000,  0.0000)
  16 Co     3.564340    3.564490   10.690115    ( 0.0000,  0.0000,  0.0000)
  17 Co     3.570334    5.434059    1.813919    ( 0.0000,  0.0000,  0.0000)
  18 Co     5.350145    3.574934    1.808708    ( 0.0000,  0.0000,  0.0000)
  19 Al     5.345084    5.410577   10.703464    ( 0.0000,  0.0000,  2.1000)
  20 Fe     7.157695    3.624514    0.002553    ( 0.0000,  0.0000,  2.1000)
  21 Fe     7.157792    5.380200    1.803904    ( 0.0000,  0.0000,  0.0000)
  22 Cr     8.944980    3.620622    1.842988    ( 0.0000,  0.0000,  0.0000)
  23 Al     8.940316    5.370571   -0.005231    ( 0.0000,  0.0000,  0.0000)
  24 Co    10.674578    7.138041   10.683446    ( 0.0000,  0.0000,  2.0000)
  25 Fe    10.668413    8.869012    1.800001    ( 0.0000,  0.0000,  0.0000)
  26 Fe     1.807904    7.157309    1.806960    ( 0.0000,  0.0000,  1.5000)
  27 Co     1.808086    8.895217   10.689064    ( 0.0000,  0.0000,  0.0000)
  28 Cr     3.612462    7.185391   10.698339    ( 0.0000,  0.0000,  2.0000)
  29 Ni     3.598277    8.905404    1.808097    ( 0.0000,  0.0000,  1.5000)
  30 Fe     5.362229    7.149643    1.778835    ( 0.0000,  0.0000,  2.1000)
  31 Fe     5.368084    8.904170   10.708750    ( 0.0000,  0.0000,  2.0000)
  32 Co     7.127640    7.124156   10.700741    ( 0.0000,  0.0000,  2.0000)
  33 Fe     7.139982    8.914904    1.783157    ( 0.0000,  0.0000,  0.0000)
  34 Co     8.884516    7.107975    1.798232    ( 0.0000,  0.0000,  2.0000)
  35 Cr     8.895410    8.880302    0.005476    ( 0.0000,  0.0000,  0.0000)
  36 Cr    10.737840    0.006469    3.587908    ( 0.0000,  0.0000,  1.5000)
  37 Cr     0.009110    1.816214    5.359506    ( 0.0000,  0.0000,  1.5000)
  38 Cr     1.833434   -0.010553    5.335488    ( 0.0000,  0.0000,  2.1000)
  39 Cr     1.814369    1.777409    3.664755    ( 0.0000,  0.0000,  1.5000)
  40 Ni     3.608002   -0.027958    3.615958    ( 0.0000,  0.0000,  2.1000)
  41 Ni     3.597397    1.774364    5.368180    ( 0.0000,  0.0000,  1.5000)
  42 Co     5.355185   -0.018813    5.365682    ( 0.0000,  0.0000,  2.1000)
  43 Cr     5.354005    1.762698    3.609396    ( 0.0000,  0.0000,  1.5000)
  44 Cr     7.096449    0.004839    3.553950    ( 0.0000,  0.0000,  0.0000)
  45 Fe     7.124574    1.817747    5.354692    ( 0.0000,  0.0000,  2.1000)
  46 Fe     8.888698   10.712332    5.289714    ( 0.0000,  0.0000,  0.0000)
  47 Co     8.931727    1.815495    3.558979    ( 0.0000,  0.0000,  1.5000)
  48 Ni    10.700248    3.599864    3.631730    ( 0.0000,  0.0000,  0.0000)
  49 Al    -0.007893    5.382698    5.388017    ( 0.0000,  0.0000,  2.0000)
  50 Fe     1.794265    3.594073    5.365264    ( 0.0000,  0.0000,  2.0000)
  51 Co     1.782020    5.398675    3.628600    ( 0.0000,  0.0000,  1.5000)
  52 Cr     3.583351    3.582086    3.661657    ( 0.0000,  0.0000,  1.5000)
  53 Fe     3.572253    5.392895    5.375354    ( 0.0000,  0.0000,  1.5000)
  54 Ni     5.361747    3.593312    5.376780    ( 0.0000,  0.0000,  2.1000)
  55 Fe     5.348633    5.403146    3.628053    ( 0.0000,  0.0000,  0.0000)
  56 Cr     7.166745    3.584809    3.633875    ( 0.0000,  0.0000,  0.0000)
  57 Ni     7.149503    5.367108    5.369102    ( 0.0000,  0.0000,  2.1000)
  58 Fe     8.930869    3.577164    5.375332    ( 0.0000,  0.0000,  0.0000)
  59 Fe     8.940702    5.382345    3.619239    ( 0.0000,  0.0000,  2.0000)
  60 Cr    10.717414    7.117990    3.608013    ( 0.0000,  0.0000,  1.5000)
  61 Ni    10.744381    8.888719    5.331252    ( 0.0000,  0.0000,  1.5000)
  62 Ni     1.794962    7.151487    5.364771    ( 0.0000,  0.0000,  0.0000)
  63 Co     1.818208    8.914453    3.615261    ( 0.0000,  0.0000,  1.5000)
  64 Fe     3.588305    7.165673    3.591211    ( 0.0000,  0.0000,  2.1000)
  65 Cr     3.591168    8.919954    5.360224    ( 0.0000,  0.0000,  2.1000)
  66 Ni     5.360428    7.147734    5.374228    ( 0.0000,  0.0000,  2.1000)
  67 Fe     5.341814    8.914764    3.584723    ( 0.0000,  0.0000,  0.0000)
  68 Al     7.129249    7.125850    3.593677    ( 0.0000,  0.0000,  0.0000)
  69 Fe     7.100223    8.892258    5.376018    ( 0.0000,  0.0000,  0.0000)
  70 Cr     8.918303    7.140303    5.371193    ( 0.0000,  0.0000,  2.0000)
  71 Ni     8.906186    8.874212    3.587994    ( 0.0000,  0.0000,  1.5000)
  72 Cr     0.119377   10.701749    7.140164    ( 0.0000,  0.0000,  0.0000)
  73 Fe     0.030718    1.806049    8.929851    ( 0.0000,  0.0000,  2.1000)
  74 Al     1.830550   -0.004511    8.938600    ( 0.0000,  0.0000,  2.1000)
  75 Co     1.836758    1.805813    7.113412    ( 0.0000,  0.0000,  2.0000)
  76 Ni     3.562903   -0.022955    7.119030    ( 0.0000,  0.0000,  2.0000)
  77 Cr     3.576478    1.763277    8.893223    ( 0.0000,  0.0000,  2.0000)
  78 Cr     5.345063   10.686330    8.914389    ( 0.0000,  0.0000,  2.0000)
  79 Ni     5.352558    1.755900    7.113926    ( 0.0000,  0.0000,  0.0000)
  80 Fe     7.098261   10.714369    7.120349    ( 0.0000,  0.0000,  1.5000)
  81 Cr     7.138309    1.797192    8.899174    ( 0.0000,  0.0000,  0.0000)
  82 Cr     8.894810   10.661132    8.939297    ( 0.0000,  0.0000,  0.0000)
  83 Al     8.927760    1.796388    7.142759    ( 0.0000,  0.0000,  1.5000)
  84 Fe     0.015366    3.574709    7.137977    ( 0.0000,  0.0000,  0.0000)
  85 Cr    -0.017679    5.373273    8.884763    ( 0.0000,  0.0000,  2.1000)
  86 Cr     1.787842    3.561692    8.869848    ( 0.0000,  0.0000,  1.5000)
  87 Ni     1.785719    5.382398    7.128520    ( 0.0000,  0.0000,  2.0000)
  88 Al     3.567643    3.596465    7.102625    ( 0.0000,  0.0000,  2.1000)
  89 Fe     3.577679    5.405248    8.871392    ( 0.0000,  0.0000,  2.0000)
  90 Ni     5.369596    3.593312    8.903688    ( 0.0000,  0.0000,  0.0000)
  91 Ni     5.358702    5.401699    7.119073    ( 0.0000,  0.0000,  2.1000)
  92 Cr     7.150436    3.604581    7.099987    ( 0.0000,  0.0000,  2.0000)
  93 Ni     7.158199    5.390858    8.905983    ( 0.0000,  0.0000,  1.5000)
  94 Ni     8.930826    3.597912    8.885374    ( 0.0000,  0.0000,  0.0000)
  95 Cr     8.935737    5.388735    7.127651    ( 0.0000,  0.0000,  0.0000)
  96 Ni    10.717929    7.165190    7.144378    ( 0.0000,  0.0000,  2.1000)
  97 Ni    10.739341    8.898756    8.943093    ( 0.0000,  0.0000,  1.5000)
  98 Co     1.793750    7.182882    8.888666    ( 0.0000,  0.0000,  1.5000)
  99 Ni     1.836501    8.904825    7.123094    ( 0.0000,  0.0000,  2.1000)
 100 Co     3.587511    7.157223    7.133645    ( 0.0000,  0.0000,  2.1000)
 101 Co     3.596025    8.923803    8.905018    ( 0.0000,  0.0000,  1.5000)
 102 Co     5.369413    7.149278    8.921112    ( 0.0000,  0.0000,  2.0000)
 103 Ni     5.343776    8.916533    7.143070    ( 0.0000,  0.0000,  2.1000)
 104 Ni     7.139778    7.140400    7.139349    ( 0.0000,  0.0000,  2.1000)
 105 Ni     7.106892    8.889835    8.908727    ( 0.0000,  0.0000,  1.5000)
 106 Co     8.907419    7.146362    8.906765    ( 0.0000,  0.0000,  2.0000)
 107 Cr     8.922313    8.892279    7.115031    ( 0.0000,  0.0000,  2.0000)

Unit cell:
           periodic     x           y           z      points  spacing
  1. axis:    yes   10.722400    0.000000    0.000000    48     0.2234
  2. axis:    yes    0.000000   10.722400    0.000000    48     0.2234
  3. axis:    yes    0.000000    0.000000   10.722400    48     0.2234

  Lengths:  10.722400  10.722400  10.722400
  Angles:   90.000000  90.000000  90.000000

Effective grid spacing dv^(1/3) = 0.2234

     iter     time        total  log10-change:  magmom
                         energy  eigst   dens
iter:   1 05:06:02  -928.575603                  +135.8661
iter:   2 05:08:33  -909.159295  -0.43  -1.31    +99.3108
iter:   3 05:10:59  -887.422425  -0.85  -1.28    +70.3011
iter:   4 05:13:31  -857.714151  -1.42  -1.32    +59.6580
iter:   5 05:16:02  -855.344139  -1.81  -1.45    +53.7305
iter:   6 05:18:33  -856.318504  -1.90  -1.46    +51.0185
iter:   7 05:21:05  -856.680263  -1.67  -1.50    +49.5413
iter:   8 05:23:36  -850.356394  -1.75  -1.51    +49.0167
iter:   9 05:26:07  -862.474700  -1.61  -1.68    +48.9450
iter:  10 05:28:38  -848.602227  -1.91  -1.60    +48.2467
iter:  11 05:31:10  -850.400914  -2.30  -1.87    +49.0188
iter:  12 05:33:41  -848.634456  -2.60  -1.84    +49.4444
iter:  13 05:36:13  -849.501206  -2.58  -1.93    +50.4023
iter:  14 05:38:44  -849.794492  -2.62  -1.94    +51.2790
iter:  15 05:41:16  -851.355705  -2.49  -2.02    +51.8600
iter:  16 05:43:46  -851.446311  -2.46  -1.97    +52.7237
iter:  17 05:46:15  -850.465489  -2.66  -1.99    +52.9225
iter:  18 05:48:46  -850.233352  -2.80  -2.12    +53.8399
iter:  19 05:51:18  -850.357706  -2.76  -2.16    +54.3401
iter:  20 05:53:49  -849.964565  -3.14  -2.18    +54.6966
iter:  21 05:56:21  -850.284519  -3.11  -2.27    +55.6768
iter:  22 05:58:53  -850.280160  -3.16  -2.27    +55.9182
iter:  23 06:01:25  -850.254874c -3.28  -2.29    +57.0000
iter:  24 06:03:57  -850.455419  -3.33  -2.37    +57.4859
iter:  25 06:06:29  -850.366942  -3.66  -2.36    +57.6465
iter:  26 06:09:00  -850.560376  -3.45  -2.43    +58.2518
iter:  27 06:11:33  -850.627237  -3.61  -2.44    +58.6611
iter:  28 06:14:05  -850.825799  -3.37  -2.45    +59.4893
iter:  29 06:16:37  -850.885273  -3.52  -2.47    +59.8490
iter:  30 06:19:09  -851.060857  -3.31  -2.50    +60.6029
iter:  31 06:21:42  -850.981515  -3.52  -2.44    +60.7802
iter:  32 06:24:13  -851.127351  -3.45  -2.58    +61.2644
iter:  33 06:26:45  -851.096555  -3.86  -2.51    +61.3624
iter:  34 06:29:18  -851.177753c -3.70  -2.60    +61.6626
iter:  35 06:31:50  -851.221785  -3.84  -2.63    +61.8136
iter:  36 06:34:22  -851.307763  -3.76  -2.65    +61.8231
iter:  37 06:36:55  -851.266455c -4.06  -2.64    +61.9648
iter:  38 06:39:27  -851.433821  -3.60  -2.75    +62.0774
iter:  39 06:41:59  -851.346917  -3.94  -2.59    +62.2220
iter:  40 06:44:31  -851.388445c -3.99  -2.76    +62.4007
iter:  41 06:47:00  -851.405616c -4.15  -2.76    +62.4357
iter:  42 06:49:33  -851.416080c -4.42  -2.78    +62.5942
iter:  43 06:52:07  -851.451913c -4.28  -2.83    +62.5988
iter:  44 06:54:41  -851.497360c -4.44  -2.83    +62.7688
iter:  45 06:57:16  -851.517047c -4.36  -2.74    +62.7930
iter:  46 06:59:50  -851.525129c -4.16  -2.75    +63.0750
iter:  47 07:02:25  -851.527283c -4.22  -2.79    +63.1641
iter:  48 07:04:59  -851.538406c -3.97  -2.92    +63.1835
iter:  49 07:07:33  -851.520953c -4.46  -3.00    +63.0086
iter:  50 07:10:08  -851.528200c -4.82  -3.23    +63.0430
iter:  51 07:12:43  -851.541357c -4.69  -3.32    +63.0063
iter:  52 07:15:18  -851.552169c -4.82  -3.33    +63.0773
iter:  53 07:17:52  -851.568979c -4.60  -3.33    +63.1426
iter:  54 07:20:27  -851.574097c -5.16  -3.23    +63.1824
iter:  55 07:23:02  -851.575391c -5.51  -3.20    +63.1910
iter:  56 07:25:36  -851.577463c -5.09  -3.22    +63.2722
iter:  57 07:28:11  -851.582725c -5.38  -3.31    +63.2608
iter:  58 07:30:45  -851.575841c -5.46  -3.28    +63.2664
iter:  59 07:33:20  -851.589149c -4.94  -3.34    +63.2568
iter:  60 07:35:53  -851.584045c -5.52  -3.27    +63.2321
iter:  61 07:38:24  -851.586534c -5.21  -3.33    +63.2069
iter:  62 07:40:59  -851.591965c -4.82  -3.39    +63.2253
iter:  63 07:43:34  -851.591509c -5.19  -3.31    +63.2467
iter:  64 07:46:08  -851.593693c -5.45  -3.43    +63.2579
iter:  65 07:48:43  -851.595534c -5.41  -3.50    +63.2676
iter:  66 07:51:18  -851.597998c -5.49  -3.48    +63.2823
iter:  67 07:53:53  -851.601806c -5.48  -3.60    +63.2807
iter:  68 07:56:27  -851.603700c -5.57  -3.56    +63.3044
iter:  69 07:59:02  -851.607681c -5.41  -3.69    +63.3105
iter:  70 08:01:37  -851.607194c -5.95  -3.64    +63.3010
iter:  71 08:04:11  -851.611343c -5.59  -3.73    +63.3106
iter:  72 08:06:45  -851.610148c -6.15  -3.71    +63.3248
iter:  73 08:09:20  -851.614293c -5.62  -3.77    +63.3540
iter:  74 08:11:55  -851.613485c -6.40  -3.78    +63.3453
iter:  75 08:14:29  -851.617511c -5.67  -3.83    +63.3846
iter:  76 08:17:04  -851.618077c -6.17  -3.80    +63.3789
iter:  77 08:19:38  -851.621024c -5.75  -3.85    +63.3831
iter:  78 08:22:11  -851.627458c -5.27  -3.85    +63.4075
iter:  79 08:24:43  -851.622809c -5.91  -3.78    +63.3921
iter:  80 08:27:18  -851.613245c -4.91  -3.86    +63.3494
iter:  81 08:29:52  -851.612020c -5.66  -3.93    +63.3208
iter:  82 08:32:27  -851.616546c -5.65  -3.89    +63.3499
iter:  83 08:35:01  -851.612548c -5.72  -3.98    +63.3670
iter:  84 08:37:36  -851.613394c -6.30  -4.02c   +63.4029
iter:  85 08:40:11  -851.616049c -5.82  -4.01c   +63.3812
iter:  86 08:42:46  -851.620649c -5.54  -4.06c   +63.3996
iter:  87 08:45:20  -851.618205c -6.34  -4.04c   +63.3947
iter:  88 08:47:55  -851.621698c -5.78  -4.04c   +63.3883
iter:  89 08:50:29  -851.622410c -6.45  -4.08c   +63.3922
iter:  90 08:53:05  -851.626700c -5.62  -4.00c   +63.4220
iter:  91 08:55:39  -851.623065c -6.08  -3.91    +63.4027
iter:  92 08:58:14  -851.617345c -5.26  -4.01c   +63.3914
iter:  93 09:00:43  -851.621760c -5.82  -4.05c   +63.4152
iter:  94 09:03:03  -851.618400c -6.04  -4.04c   +63.4057
iter:  95 09:05:24  -851.615207c -5.67  -4.21c   +63.4159
iter:  96 09:07:43  -851.621284c -5.52  -4.14c   +63.4238
iter:  97 09:10:02  -851.609851c -4.90  -4.09c   +63.4059
iter:  98 09:12:36  -851.588509c -4.01  -3.99    +63.3526
iter:  99 09:15:28  -851.575767c -3.91  -3.50    +63.2991
iter: 100 09:17:47  -851.569500c -3.72  -3.30    +63.2335
iter: 101 09:20:06  -851.571266c -3.97  -3.14    +63.2018
iter: 102 09:22:26  -851.575508c -4.00  -3.07    +63.1768
iter: 103 09:24:46  -851.576335c -4.42  -3.01    +63.1796
iter: 104 09:27:05  -851.574539c -5.16  -2.99    +63.1897
iter: 105 09:29:24  -851.566750c -4.64  -3.01    +63.2030
iter: 106 09:31:43  -851.566323c -4.56  -3.00    +63.2016
iter: 107 09:34:03  -851.583452c -4.15  -2.97    +63.1662
iter: 108 09:36:23  -851.558675c -4.16  -2.88    +63.1845
iter: 109 09:38:42  -851.589648c -4.08  -3.00    +63.1578
iter: 110 09:41:02  -851.535498c -4.57  -2.88    +63.1503
iter: 111 09:43:21  -851.543450c -4.69  -3.27    +63.1031
iter: 112 09:45:40  -851.545454c -4.78  -3.23    +63.1604
iter: 113 09:47:59  -851.548905c -4.85  -3.31    +63.1179
iter: 114 09:50:19  -851.544961c -4.91  -3.31    +63.0705
iter: 115 09:52:38  -851.547105c -5.29  -3.45    +63.0769
iter: 116 09:54:57  -851.550078c -5.35  -3.66    +63.0615
iter: 117 09:57:15  -851.551273c -5.68  -3.58    +63.0461
iter: 118 09:59:34  -851.554435c -5.47  -3.69    +63.0076
iter: 119 10:01:53  -851.557770c -5.53  -3.66    +62.9787
iter: 120 10:04:57  -851.543896c -4.53  -3.60    +63.1164
iter: 121 10:07:17  -851.557847c -4.69  -3.68    +62.9846
iter: 122 10:09:36  -851.551347c -5.37  -3.57    +63.0626
iter: 123 10:11:56  -851.553224c -5.84  -3.72    +63.0299
iter: 124 10:14:14  -851.554459c -5.97  -3.64    +63.0238
iter: 125 10:16:33  -851.556340c -5.55  -3.73    +63.0110
iter: 126 10:18:52  -851.560294c -5.28  -3.53    +63.0281
iter: 127 10:21:12  -851.557240c -5.64  -3.50    +63.0146
iter: 128 10:23:32  -851.559490c -5.45  -3.52    +63.0348
iter: 129 10:25:51  -851.560452c -5.54  -3.57    +63.0372
iter: 130 10:28:11  -851.560564c -5.52  -3.54    +63.0246
iter: 131 10:30:31  -851.561200c -5.71  -3.62    +62.9743
iter: 132 10:32:51  -851.564232c -5.38  -3.66    +62.9618
iter: 133 10:35:10  -851.563600c -5.66  -3.59    +62.9623
iter: 134 10:37:30  -851.565853c -5.57  -3.61    +62.9601
iter: 135 10:39:49  -851.565057c -5.97  -3.58    +62.9669
iter: 136 10:42:08  -851.567215c -5.67  -3.71    +62.9641
iter: 137 10:44:26  -851.566605c -6.17  -3.67    +62.9653
iter: 138 10:46:46  -851.567878c -5.57  -3.71    +62.9773
iter: 139 10:49:05  -851.568670c -5.89  -3.83    +62.9696
iter: 140 10:51:24  -851.569824c -5.72  -3.83    +62.9659
iter: 141 10:53:42  -851.570700c -5.78  -3.94    +62.9662
iter: 142 10:56:01  -851.571044c -6.24  -3.89    +62.9639
iter: 143 10:58:19  -851.572668c -5.88  -3.96    +62.9709
iter: 144 11:01:23  -851.572495c -6.75  -4.05c   +62.9701
iter: 145 11:03:42  -851.574231c -6.00  -4.06c   +62.9754
iter: 146 11:06:02  -851.569689c -5.32  -4.05c   +62.9736
iter: 147 11:08:21  -851.553886c -3.81  -4.11c   +62.9727
iter: 148 11:10:40  -851.552445c -4.41  -3.71    +62.9833
iter: 149 11:12:59  -851.552294c -4.89  -3.60    +62.9846
iter: 150 11:15:18  -851.553190c -4.81  -3.56    +62.9861
iter: 151 11:17:38  -851.552771c -5.61  -3.48    +62.9841
iter: 152 11:19:57  -851.552634c -5.72  -3.52    +62.9864
iter: 153 11:22:15  -851.553773c -5.29  -3.50    +62.9958
iter: 154 11:24:34  -851.553632c -4.97  -3.46    +62.9930
iter: 155 11:26:53  -851.562603c -4.61  -3.34    +63.0051
iter: 156 11:29:11  -851.550972c -4.92  -3.18    +62.9562
iter: 157 11:31:30  -851.549715c -5.46  -3.39    +62.9627
iter: 158 11:33:49  -851.553121c -5.26  -3.60    +62.9391
iter: 159 11:36:07  -851.550776c -5.44  -3.51    +62.9324
iter: 160 11:38:26  -851.551451c -5.53  -3.64    +62.9356
iter: 161 11:40:45  -851.551945c -5.90  -3.75    +62.9207
iter: 162 11:43:03  -851.552999c -5.67  -3.74    +62.9150
iter: 163 11:45:21  -851.553211c -5.78  -3.78    +62.8896
iter: 164 11:47:40  -851.553447c -5.74  -3.78    +62.8761
iter: 165 11:49:57  -851.554310c -5.98  -3.80    +62.8830
iter: 166 11:52:30  -851.555148c -5.84  -4.02c   +62.8683
iter: 167 11:55:22  -851.555566c -6.02  -3.88    +62.8690
iter: 168 11:57:40  -851.556098c -6.32  -4.05c   +62.8654
iter: 169 11:59:59  -851.559150c -5.24  -4.07c   +62.8529
iter: 170 12:02:18  -851.551725c -4.55  -3.94    +62.8976
iter: 171 12:04:37  -851.550278c -5.25  -4.01c   +62.8821
iter: 172 12:06:55  -851.551683c -5.97  -4.09c   +62.8711
iter: 173 12:09:14  -851.551437c -6.75  -4.08c   +62.8688
iter: 174 12:11:32  -851.552518c -6.17  -4.24c   +62.8573
iter: 175 12:13:52  -851.551936c -7.13  -4.18c   +62.8610
iter: 176 12:16:11  -851.552881c -6.44  -4.39c   +62.8595
iter: 177 12:18:29  -851.553693c -6.09  -4.45c   +62.8460
iter: 178 12:20:48  -851.554642c -6.00  -4.46c   +62.8306
iter: 179 12:23:06  -851.555578c -5.95  -4.48c   +62.8240
iter: 180 12:25:25  -851.555492c -6.76  -4.46c   +62.8240
iter: 181 12:27:43  -851.556545c -6.14  -4.34c   +62.8205
iter: 182 12:30:02  -851.554209c -5.53  -4.29c   +62.8463
iter: 183 12:32:21  -851.543490c -4.02  -4.67c   +62.9558
iter: 184 12:34:40  -851.558047c -4.00  -3.68    +62.8139
iter: 185 12:36:58  -851.553536c -5.45  -4.15c   +62.8493
iter: 186 12:39:16  -851.547737c -4.57  -4.68c   +62.8938
iter: 187 12:42:03  -851.550558c -5.59  -3.90    +62.8650
iter: 188 12:44:38  -851.566284c -3.87  -4.14c   +62.7328
iter: 189 12:46:56  -851.541376c -3.56  -3.74    +62.9411
iter: 190 12:49:15  -851.551764c -4.47  -3.60    +62.8391
iter: 191 12:51:33  -851.561745c -4.13  -4.29c   +62.7589
iter: 192 12:53:52  -851.540770c -3.63  -3.91    +62.9257
iter: 193 12:56:11  -851.553676c -4.17  -3.57    +62.8130
iter: 194 12:58:30  -851.558539c -4.52  -4.51c   +62.7838
iter: 195 13:00:49  -851.547200c -4.17  -4.12c   +62.8644
iter: 196 13:03:07  -851.532284c -3.61  -3.84    +62.9677
iter: 197 13:05:26  -851.557499c -3.45  -3.35    +62.8015
iter: 198 13:07:45  -851.572270c -3.72  -4.19c   +62.7484
iter: 199 13:10:04  -851.546816c -3.66  -3.59    +62.8532
iter: 200 13:12:24  -851.528856c -3.39  -3.82    +62.9241
iter: 201 13:14:42  -851.557446c -3.36  -3.27    +62.8111
iter: 202 13:17:01  -851.577028c -3.55  -4.20c   +62.7671
iter: 203 13:19:19  -851.545715c -3.51  -3.50    +62.8324
iter: 204 13:21:38  -851.527427c -3.31  -3.74    +62.8614
iter: 205 13:23:57  -851.556956c -3.30  -3.23    +62.8141
iter: 206 13:26:14  -851.579565c -3.45  -4.26c   +62.7966
iter: 207 13:28:33  -851.545301c -3.44  -3.46    +62.8125
iter: 208 13:30:52  -851.527480c -3.27  -3.70    +62.7993
iter: 209 13:33:51  -851.557145c -3.26  -3.20    +62.8144
iter: 210 13:36:16  -851.582972c -3.38  -4.23c   +62.8232
iter: 211 13:38:35  -851.545229c -3.39  -3.41    +62.7897
iter: 212 13:40:53  -851.528126c -3.23  -3.69    +62.7436
iter: 213 13:43:11  -851.557402c -3.23  -3.18    +62.8121
iter: 214 13:45:29  -851.586111c -3.32  -4.19c   +62.8464
iter: 215 13:47:48  -851.545385c -3.34  -3.37    +62.7703
iter: 216 13:50:07  -851.529798c -3.23  -3.68    +62.6923
iter: 217 13:52:25  -851.557771c -3.22  -3.17    +62.8070
iter: 218 13:54:43  -851.588938c -3.28  -4.16c   +62.8645
iter: 219 13:57:02  -851.545328c -3.30  -3.34    +62.7488
iter: 220 13:59:20  -851.530500c -3.19  -3.67    +62.6499
iter: 221 14:01:38  -851.557789c -3.20  -3.15    +62.7996
iter: 222 14:03:57  -851.590443c -3.25  -4.14c   +62.8755
iter: 223 14:06:15  -851.545870c -3.29  -3.32    +62.7324
iter: 224 14:08:33  -851.532752c -3.20  -3.67    +62.6138
iter: 225 14:10:52  -851.558378c -3.21  -3.16    +62.7915
iter: 226 14:13:10  -851.592235c -3.24  -4.09c   +62.8827
iter: 227 14:15:29  -851.545897c -3.26  -3.30    +62.7125
iter: 228 14:17:47  -851.533447c -3.17  -3.66    +62.5826
iter: 229 14:20:05  -851.558352c -3.19  -3.14    +62.7812
iter: 230 14:22:54  -851.592547c -3.23  -4.09c   +62.8825
iter: 231 14:25:28  -851.546629c -3.26  -3.29    +62.6992
iter: 232 14:27:46  -851.535660c -3.20  -3.66    +62.5578
iter: 233 14:30:05  -851.558779c -3.21  -3.15    +62.7701
iter: 234 14:32:23  -851.591690c -3.25  -4.06c   +62.8762
iter: 235 14:34:41  -851.546572c -3.27  -3.30    +62.6804
iter: 236 14:37:00  -851.535985c -3.16  -3.66    +62.5332
iter: 237 14:39:18  -851.558616c -3.18  -3.13    +62.7588
iter: 238 14:41:36  -851.591715c -3.24  -4.07c   +62.8698
iter: 239 14:43:55  -851.547474c -3.28  -3.29    +62.6711
iter: 240 14:46:13  -851.538241c -3.21  -3.66    +62.5202
iter: 241 14:48:32  -851.558627c -3.23  -3.15    +62.7449
iter: 242 14:50:51  -851.587654c -3.31  -4.09c   +62.8494
iter: 243 14:53:09  -851.547291c -3.31  -3.33    +62.6532
iter: 244 14:55:27  -851.538335c -3.17  -3.65    +62.5008
iter: 245 14:57:45  -851.558443c -3.18  -3.12    +62.7347
iter: 246 15:00:04  -851.588200c -3.28  -4.09c   +62.8418
iter: 247 15:02:21  -851.548313c -3.33  -3.32    +62.6494
iter: 248 15:04:38  -851.540457c -3.22  -3.67    +62.4963
iter: 249 15:06:56  -851.558521c -3.24  -3.15    +62.7212
iter: 250 15:09:15  -851.583189c -3.38  -4.10c   +62.8186
iter: 251 15:11:33  -851.548345c -3.40  -3.37    +62.6355
iter: 252 15:13:50  -851.540939c -3.19  -3.67    +62.4685
iter: 253 15:16:18  -851.558558c -3.20  -3.13    +62.7083
iter: 254 15:19:13  -851.583437c -3.37  -4.09c   +62.8124
iter: 255 15:21:31  -851.549256c -3.42  -3.37    +62.6307
iter: 256 15:23:50  -851.542590c -3.25  -3.69    +62.4804
iter: 257 15:26:09  -851.558221c -3.28  -3.16    +62.6993
iter: 258 15:28:27  -851.574405c -3.59  -4.14c   +62.7604
iter: 259 15:30:46  -851.551581c -3.73  -3.50    +62.6366
iter: 260 15:33:04  -851.543556c -3.28  -3.85    +62.5007
iter: 261 15:35:22  -851.560270c -3.29  -3.19    +62.7000
iter: 262 15:37:41  -851.564949c -4.12  -3.93    +62.7193
iter: 263 15:40:00  -851.562625c -5.32  -3.76    +62.7065
iter: 264 15:42:18  -851.563324c -5.63  -3.88    +62.6981
iter: 265 15:44:37  -851.562925c -6.11  -3.85    +62.6964
iter: 266 15:46:55  -851.562541c -6.37  -3.85    +62.7049
iter: 267 15:49:14  -851.564155c -5.84  -3.87    +62.6960
iter: 268 15:51:34  -851.563411c -5.49  -3.71    +62.7145
iter: 269 15:53:52  -851.565658c -5.47  -3.61    +62.7198
iter: 270 15:56:11  -851.563990c -5.84  -3.65    +62.7153
iter: 271 15:58:30  -851.564491c -6.05  -3.85    +62.7234
iter: 272 16:00:48  -851.565143c -6.05  -3.92    +62.7254
iter: 273 16:03:07  -851.565162c -6.27  -3.80    +62.7264
iter: 274 16:05:25  -851.565837c -6.02  -3.90    +62.7320
iter: 275 16:07:44  -851.564880c -6.06  -3.84    +62.7146
iter: 276 16:10:04  -851.565926c -5.98  -3.86    +62.7292
iter: 277 16:12:43  -851.565637c -6.23  -3.75    +62.7194
iter: 278 16:15:02  -851.566869c -5.91  -3.83    +62.7537
iter: 279 16:17:20  -851.568509c -5.59  -3.82    +62.7633
iter: 280 16:19:39  -851.568357c -6.18  -3.75    +62.7671
iter: 281 16:21:58  -851.569948c -5.93  -3.77    +62.7811
iter: 282 16:24:16  -851.568922c -6.45  -3.68    +62.7838
iter: 283 16:26:36  -851.570716c -5.63  -3.72    +62.8108
iter: 284 16:28:59  -851.570063c -5.83  -3.69    +62.8067
iter: 285 16:31:20  -851.571317c -5.79  -3.74    +62.7981
iter: 286 16:33:39  -851.571052c -6.16  -3.74    +62.7991
iter: 287 16:35:58  -851.571965c -5.88  -3.84    +62.8122
iter: 288 16:38:16  -851.572650c -6.15  -3.81    +62.8185
iter: 289 16:40:41  -851.573220c -6.15  -3.85    +62.8287
iter: 290 16:43:04  -851.576103c -5.25  -3.92    +62.8599
iter: 291 16:45:23  -851.571174c -4.85  -3.90    +62.7835
iter: 292 16:47:41  -851.566141c -4.64  -3.95    +62.6971
iter: 293 16:49:59  -851.566842c -5.90  -3.90    +62.7239
iter: 294 16:52:18  -851.566474c -6.26  -4.08c   +62.7203
iter: 295 16:54:43  -851.567034c -6.10  -4.15c   +62.7348
iter: 296 16:57:02  -851.564318c -5.27  -4.38c   +62.6870
iter: 297 16:59:25  -851.562284c -5.11  -4.24c   +62.6489
iter: 298 17:01:44  -851.557773c -4.22  -3.99    +62.5354
iter: 299 17:04:09  -851.554563c -3.97  -3.58    +62.4106
iter: 300 17:06:29  -851.560167c -3.99  -3.35    +62.6027
iter: 301 17:08:42  -851.556951c -4.70  -3.79    +62.5090
iter: 302 17:11:02  -851.555258c -4.31  -3.51    +62.4385
iter: 303 17:13:20  -851.557988c -4.26  -3.36    +62.5532
iter: 304 17:15:38  -851.557341c -5.12  -3.59    +62.5161
iter: 305 17:18:04  -851.556728c -5.51  -3.46    +62.5133
iter: 306 17:20:24  -851.556519c -5.66  -3.45    +62.5287
iter: 307 17:22:49  -851.556763c -5.52  -3.50    +62.5332
iter: 308 17:25:13  -851.558704c -5.36  -3.44    +62.5104
iter: 309 17:27:31  -851.559346c -4.82  -3.37    +62.5055
iter: 310 17:29:50  -851.556800c -5.06  -3.27    +62.5265
iter: 311 17:32:18  -851.559484c -5.17  -3.47    +62.5116
iter: 312 17:34:45  -851.554694c -5.38  -3.38    +62.4975
iter: 313 17:37:15  -851.555544c -5.39  -3.63    +62.5174
iter: 314 17:39:36  -851.556299c -5.64  -3.59    +62.5040
iter: 315 17:41:55  -851.557125c -5.59  -3.70    +62.4936
iter: 316 17:44:13  -851.556363c -5.76  -3.68    +62.4922
iter: 317 17:46:31  -851.556898c -5.64  -3.74    +62.4880
iter: 318 17:49:03  -851.557138c -5.92  -3.73    +62.5115
iter: 319 17:51:23  -851.558549c -5.78  -3.93    +62.5052
iter: 320 17:53:47  -851.557332c -5.97  -3.77    +62.5057
iter: 321 17:56:16  -851.558160c -6.00  -3.94    +62.5209
iter: 322 17:58:45  -851.558631c -6.19  -4.01c   +62.5180
iter: 323 18:01:12  -851.558907c -6.18  -4.11c   +62.5245
iter: 324 18:03:44  -851.559153c -6.40  -4.30c   +62.5284
iter: 325 18:06:12  -851.559711c -6.22  -4.20c   +62.5439
iter: 326 18:08:45  -851.560070c -6.62  -4.29c   +62.5468
iter: 327 18:11:12  -851.560609c -6.19  -4.36c   +62.5539
iter: 328 18:13:31  -851.560249c -7.18  -4.37c   +62.5491
iter: 329 18:15:49  -851.558158c -5.32  -4.47c   +62.5120
iter: 330 18:18:08  -851.557588c -5.88  -4.26c   +62.5040
iter: 331 18:20:27  -851.557172c -6.10  -4.19c   +62.4949
iter: 332 18:22:51  -851.555690c -5.18  -4.11c   +62.4409
iter: 333 18:25:11  -851.555427c -5.54  -3.83    +62.4105
iter: 334 18:27:35  -851.556162c -6.26  -3.74    +62.4277
iter: 335 18:29:55  -851.555258c -5.84  -3.79    +62.4102
iter: 336 18:32:22  -851.555261c -6.05  -3.72    +62.4117
iter: 337 18:34:43  -851.555816c -5.84  -3.69    +62.4147
iter: 338 18:37:02  -851.555144c -5.80  -3.63    +62.3979
iter: 339 18:39:31  -851.555465c -6.06  -3.64    +62.4328
iter: 340 18:42:01  -851.557464c -5.57  -3.74    +62.4509
iter: 341 18:44:29  -851.559418c -5.14  -3.60    +62.4505
iter: 342 18:46:58  -851.555396c -5.45  -3.46    +62.4116
iter: 343 18:49:30  -851.556254c -5.87  -3.83    +62.4409
iter: 344 18:51:55  -851.557189c -5.88  -4.09c   +62.4405
iter: 345 18:54:17  -851.557589c -5.83  -4.07c   +62.4520
iter: 346 18:56:36  -851.558542c -6.07  -4.15c   +62.4721
iter: 347 18:58:54  -851.558696c -6.40  -4.26c   +62.4809
iter: 348 19:01:12  -851.559462c -6.15  -4.34c   +62.4920
iter: 349 19:03:31  -851.558802c -6.67  -4.33c   +62.4807
iter: 350 19:05:50  -851.556715c -5.27  -4.40c   +62.4480
iter: 351 19:08:14  -851.558105c -5.94  -4.14c   +62.4703
iter: 352 19:10:42  -851.557332c -6.32  -4.38c   +62.4546
iter: 353 19:13:03  -851.557347c -6.97  -4.21c   +62.4503
iter: 354 19:15:31  -851.557904c -6.41  -4.33c   +62.4625
iter: 355 19:17:52  -851.557514c -6.83  -4.29c   +62.4645
iter: 356 19:20:14  -851.557855c -6.67  -4.40c   +62.4853
iter: 357 19:22:46  -851.558018c -6.34  -4.23c   +62.4617
iter: 358 19:25:06  -851.558793c -6.10  -4.59c   +62.4703
iter: 359 19:27:35  -851.557910c -6.30  -4.42c   +62.4602
iter: 360 19:29:56  -851.553432c -4.52  -4.69c   +62.3791
iter: 361 19:32:27  -851.554428c -5.96  -3.77    +62.3906
iter: 362 19:34:48  -851.557189c -4.98  -3.87    +62.4287
iter: 363 19:37:17  -851.556945c -6.42  -4.32c   +62.4308
iter: 364 19:40:01  -851.558155c -5.66  -4.29c   +62.4473
iter: 365 19:42:31  -851.557560c -6.52  -4.54c   +62.4432
iter: 366 19:44:56  -851.559092c -5.58  -4.40c   +62.4657
iter: 367 19:47:17  -851.558141c -6.20  -4.45c   +62.4552
iter: 368 19:49:36  -851.558925c -6.34  -4.72c   +62.4719
iter: 369 19:52:02  -851.555249c -4.85  -4.66c   +62.3912
iter: 370 19:54:22  -851.541672c -3.42  -4.02c   +61.9914
iter: 371 19:56:55  -851.567717c -3.21  -3.21    +62.6403
iter: 372 19:59:18  -851.570627c -4.18  -3.67    +62.6815
iter: 373 20:01:45  -851.571221c -4.96  -3.60    +62.6914
iter: 374 20:04:06  -851.565818c -4.87  -3.59    +62.5807
iter: 375 20:06:26  -851.568698c -5.47  -3.76    +62.6353
iter: 376 20:08:52  -851.567568c -6.26  -3.67    +62.6246
iter: 377 20:11:12  -851.569582c -5.65  -3.71    +62.6588
iter: 378 20:13:44  -851.568526c -6.37  -3.59    +62.6557
iter: 379 20:16:04  -851.570260c -5.61  -3.69    +62.6833
iter: 380 20:18:29  -851.570389c -5.18  -3.58    +62.6833
iter: 381 20:20:51  -851.569120c -5.66  -3.56    +62.6865
iter: 382 20:23:22  -851.569183c -5.98  -3.78    +62.7039
iter: 383 20:25:44  -851.570026c -6.25  -3.84    +62.7142
iter: 384 20:28:10  -851.571104c -5.87  -3.85    +62.7269
iter: 385 20:30:42  -851.570235c -6.61  -3.85    +62.7244
iter: 386 20:33:04  -851.570495c -6.38  -3.91    +62.7427
iter: 387 20:35:23  -851.571620c -5.94  -3.87    +62.7390
iter: 388 20:37:53  -851.572010c -5.87  -3.85    +62.7455
iter: 389 20:40:25  -851.572384c -5.78  -4.00c   +62.7485
iter: 390 20:42:46  -851.572239c -6.31  -3.85    +62.7500
iter: 391 20:45:19  -851.573222c -6.09  -4.11c   +62.7646
iter: 392 20:47:49  -851.572942c -6.95  -4.18c   +62.7624
iter: 393 20:50:16  -851.573385c -6.45  -4.20c   +62.7647
iter: 394 20:52:45  -851.573815c -6.48  -4.15c   +62.7655
iter: 395 20:55:03  -851.574297c -6.43  -4.19c   +62.7659
iter: 396 20:57:32  -851.575183c -6.15  -4.14c   +62.7725
iter: 397 21:00:03  -851.572162c -5.26  -4.14c   +62.7291
iter: 398 21:02:23  -851.566076c -4.13  -4.05c   +62.5539
iter: 399 21:04:55  -851.564489c -4.48  -3.55    +62.4377
iter: 400 21:07:28  -851.564259c -5.10  -3.47    +62.3833
iter: 401 21:09:54  -851.564585c -5.35  -3.44    +62.3367
iter: 402 21:12:15  -851.564863c -5.71  -3.41    +62.3021
iter: 403 21:14:45  -851.571127c -5.02  -3.39    +62.3134
iter: 404 21:17:05  -851.564442c -5.06  -3.20    +62.2991
iter: 405 21:19:27  -851.564832c -5.31  -3.36    +62.2743
iter: 406 21:21:53  -851.569510c -4.73  -3.36    +62.2529
iter: 407 21:24:21  -851.564968c -4.68  -3.25    +62.2518
iter: 408 21:26:43  -851.560245c -5.30  -3.31    +62.3192
iter: 409 21:29:12  -851.559976c -5.57  -3.66    +62.3103
iter: 410 21:31:38  -851.561706c -5.53  -3.78    +62.3440
iter: 411 21:34:08  -851.561093c -5.78  -3.67    +62.3640
iter: 412 21:36:31  -851.561746c -5.88  -3.86    +62.3871
iter: 413 21:38:59  -851.562496c -5.91  -3.90    +62.3887
iter: 414 21:41:23  -851.562090c -5.92  -3.86    +62.4093
iter: 415 21:43:55  -851.562718c -6.19  -3.97    +62.4396
iter: 416 21:46:19  -851.563196c -6.14  -4.12c   +62.4535
iter: 417 21:48:50  -851.563860c -6.05  -4.20c   +62.4685
iter: 418 21:51:11  -851.563710c -6.71  -4.12c   +62.4684
iter: 419 21:53:30  -851.564392c -6.23  -4.34c   +62.4963
iter: 420 21:55:49  -851.564341c -7.18  -4.44c   +62.4917
iter: 421 21:58:07  -851.564789c -6.47  -4.41c   +62.5079
iter: 422 22:00:36  -851.564486c -7.17  -4.46c   +62.4974
iter: 423 22:02:58  -851.562584c -5.25  -4.52c   +62.4216
iter: 424 22:05:29  -851.562648c -6.21  -4.13c   +62.4151
iter: 425 22:07:49  -851.563089c -6.35  -4.05c   +62.4193
iter: 426 22:10:17  -851.563945c -6.17  -4.03c   +62.4332
iter: 427 22:12:44  -851.558749c -4.46  -4.06c   +62.3457
iter: 428 22:15:03  -851.558690c -5.36  -3.76    +62.3573
iter: 429 22:17:35  -851.559146c -5.80  -3.76    +62.4003
iter: 430 22:20:13  -851.559450c -5.68  -3.68    +62.3984
iter: 431 22:22:44  -851.559061c -5.86  -3.73    +62.4120
iter: 432 22:25:07  -851.559049c -5.48  -3.69    +62.4412
iter: 433 22:27:28  -851.558980c -5.99  -3.81    +62.4457
iter: 434 22:29:47  -851.558890c -6.08  -3.83    +62.4259
iter: 435 22:32:08  -851.559715c -6.19  -4.10c   +62.4373
iter: 436 22:34:31  -851.559524c -6.08  -3.98    +62.4429
iter: 437 22:36:59  -851.560296c -6.14  -3.99    +62.4616
iter: 438 22:39:28  -851.560508c -6.18  -4.12c   +62.4688
iter: 439 22:41:55  -851.561053c -6.13  -4.08c   +62.4809
iter: 440 22:44:15  -851.560881c -6.69  -4.18c   +62.4820
iter: 441 22:46:46  -851.561345c -6.26  -4.40c   +62.4908
iter: 442 22:49:08  -851.561565c -6.88  -4.38c   +62.4918
iter: 443 22:51:40  -851.562054c -6.26  -4.58c   +62.5034
iter: 444 22:54:04  -851.560848c -5.91  -4.47c   +62.4702
iter: 445 22:56:32  -851.557254c -4.62  -4.41c   +62.3758
iter: 446 22:58:53  -851.555633c -4.75  -3.92    +62.3225
iter: 447 23:01:19  -851.551824c -4.03  -3.72    +62.1681
iter: 448 23:03:36  -851.555644c -4.38  -3.40    +62.3266
iter: 449 23:06:07  -851.556383c -5.08  -3.71    +62.3604
iter: 450 23:08:29  -851.557057c -5.45  -3.80    +62.3860
iter: 451 23:10:49  -851.557011c -6.40  -3.86    +62.3906
iter: 452 23:13:19  -851.557242c -6.16  -3.87    +62.4031
iter: 453 23:15:52  -851.558179c -6.05  -3.86    +62.4165
iter: 454 23:18:13  -851.558307c -5.75  -3.84    +62.4204
iter: 455 23:20:34  -851.557684c -5.71  -3.71    +62.4138
iter: 456 23:22:52  -851.557897c -6.04  -3.84    +62.4201
iter: 457 23:25:20  -851.558513c -5.96  -4.11c   +62.4287
iter: 458 23:27:43  -851.558387c -6.29  -4.03c   +62.4321
iter: 459 23:30:10  -851.559607c -6.11  -4.26c   +62.4540
iter: 460 23:32:36  -851.559320c -6.51  -4.16c   +62.4558
iter: 461 23:35:04  -851.559812c -6.23  -4.33c   +62.4708
iter: 462 23:37:34  -851.559826c -6.82  -4.36c   +62.4732
iter: 463 23:39:54  -851.560446c -6.29  -4.44c   +62.4885
iter: 464 23:42:14  -851.560234c -7.40c -4.53c   +62.4837

Converged after 464 iterations.

Dipole moment: (-1.866734, 13.104773, 14.371947) |e|*Ang

Total magnetic moment: (0.000000, 0.000000, 62.483677)
Local magnetic moments:
   0 Co ( 0.000000,  0.000000,  1.017064)
   1 Fe ( 0.000000,  0.000000,  2.194068)
   2 Co ( 0.000000,  0.000000,  1.448231)
   3 Co ( 0.000000,  0.000000,  1.125155)
   4 Co ( 0.000000,  0.000000,  1.091354)
   5 Ni ( 0.000000,  0.000000,  0.198559)
   6 Fe ( 0.000000,  0.000000,  1.956764)
   7 Al ( 0.000000,  0.000000, -0.018256)
   8 Fe ( 0.000000,  0.000000, -1.498285)
   9 Cr ( 0.000000,  0.000000,  0.952554)
  10 Al ( 0.000000,  0.000000, -0.014600)
  11 Co ( 0.000000,  0.000000,  1.028234)
  12 Co ( 0.000000,  0.000000,  1.055012)
  13 Fe ( 0.000000,  0.000000,  2.254993)
  14 Al ( 0.000000,  0.000000, -0.029758)
  15 Co ( 0.000000,  0.000000,  1.260540)
  16 Co ( 0.000000,  0.000000,  1.277286)
  17 Co ( 0.000000,  0.000000,  1.141304)
  18 Co ( 0.000000,  0.000000,  1.067235)
  19 Al ( 0.000000,  0.000000, -0.041884)
  20 Fe ( 0.000000,  0.000000,  2.209843)
  21 Fe ( 0.000000,  0.000000,  2.054543)
  22 Cr ( 0.000000,  0.000000, -1.338022)
  23 Al ( 0.000000,  0.000000, -0.035413)
  24 Co ( 0.000000,  0.000000,  1.202151)
  25 Fe ( 0.000000,  0.000000,  2.223821)
  26 Fe ( 0.000000,  0.000000,  2.305643)
  27 Co ( 0.000000,  0.000000,  1.476828)
  28 Cr ( 0.000000,  0.000000, -2.086006)
  29 Ni ( 0.000000,  0.000000,  0.461741)
  30 Fe ( 0.000000,  0.000000,  1.982530)
  31 Fe ( 0.000000,  0.000000,  2.128598)
  32 Co ( 0.000000,  0.000000,  1.166601)
  33 Fe ( 0.000000,  0.000000,  1.798206)
  34 Co ( 0.000000,  0.000000,  1.074685)
  35 Cr ( 0.000000,  0.000000, -1.299854)
  36 Cr ( 0.000000,  0.000000, -1.598116)
  37 Cr ( 0.000000,  0.000000, -0.033559)
  38 Cr ( 0.000000,  0.000000,  0.873412)
  39 Cr ( 0.000000,  0.000000,  0.309896)
  40 Ni ( 0.000000,  0.000000,  0.284960)
  41 Ni ( 0.000000,  0.000000,  0.139646)
  42 Co ( 0.000000,  0.000000,  1.070490)
  43 Cr ( 0.000000,  0.000000,  0.395531)
  44 Cr ( 0.000000,  0.000000, -1.433624)
  45 Fe ( 0.000000,  0.000000,  1.556609)
  46 Fe ( 0.000000,  0.000000,  2.001551)
  47 Co ( 0.000000,  0.000000,  0.393880)
  48 Ni ( 0.000000,  0.000000,  0.273175)
  49 Al ( 0.000000,  0.000000, -0.018557)
  50 Fe ( 0.000000,  0.000000,  2.032550)
  51 Co ( 0.000000,  0.000000,  0.994279)
  52 Cr ( 0.000000,  0.000000, -1.676950)
  53 Fe ( 0.000000,  0.000000,  2.219715)
  54 Ni ( 0.000000,  0.000000,  0.095822)
  55 Fe ( 0.000000,  0.000000,  2.192179)
  56 Cr ( 0.000000,  0.000000, -1.384738)
  57 Ni ( 0.000000,  0.000000,  0.202087)
  58 Fe ( 0.000000,  0.000000,  1.703519)
  59 Fe ( 0.000000,  0.000000,  1.570039)
  60 Cr ( 0.000000,  0.000000, -1.690295)
  61 Ni ( 0.000000,  0.000000, -0.007464)
  62 Ni ( 0.000000,  0.000000,  0.292712)
  63 Co ( 0.000000,  0.000000,  1.150931)
  64 Fe ( 0.000000,  0.000000,  2.306657)
  65 Cr ( 0.000000,  0.000000, -1.644178)
  66 Ni ( 0.000000,  0.000000,  0.408784)
  67 Fe ( 0.000000,  0.000000,  2.152812)
  68 Al ( 0.000000,  0.000000, -0.051022)
  69 Fe ( 0.000000,  0.000000,  2.049621)
  70 Cr ( 0.000000,  0.000000, -0.547155)
  71 Ni ( 0.000000,  0.000000,  0.117167)
  72 Cr ( 0.000000,  0.000000, -1.032939)
  73 Fe ( 0.000000,  0.000000,  2.104447)
  74 Al ( 0.000000,  0.000000, -0.030825)
  75 Co ( 0.000000,  0.000000,  0.014434)
  76 Ni ( 0.000000,  0.000000,  0.177052)
  77 Cr ( 0.000000,  0.000000,  1.343480)
  78 Cr ( 0.000000,  0.000000, -0.600137)
  79 Ni ( 0.000000,  0.000000,  0.185155)
  80 Fe ( 0.000000,  0.000000,  2.043401)
  81 Cr ( 0.000000,  0.000000, -0.615916)
  82 Cr ( 0.000000,  0.000000, -0.659908)
  83 Al ( 0.000000,  0.000000, -0.023170)
  84 Fe ( 0.000000,  0.000000,  1.699427)
  85 Cr ( 0.000000,  0.000000,  0.832572)
  86 Cr ( 0.000000,  0.000000, -1.734906)
  87 Ni ( 0.000000,  0.000000,  0.238372)
  88 Al ( 0.000000,  0.000000, -0.022629)
  89 Fe ( 0.000000,  0.000000,  2.326673)
  90 Ni ( 0.000000,  0.000000,  0.193800)
  91 Ni ( 0.000000,  0.000000,  0.311920)
  92 Cr ( 0.000000,  0.000000,  0.607753)
  93 Ni ( 0.000000,  0.000000,  0.268106)
  94 Ni ( 0.000000,  0.000000,  0.200852)
  95 Cr ( 0.000000,  0.000000,  0.446910)
  96 Ni ( 0.000000,  0.000000,  0.106469)
  97 Ni ( 0.000000,  0.000000,  0.187057)
  98 Co ( 0.000000,  0.000000,  1.359110)
  99 Ni ( 0.000000,  0.000000,  0.185922)
 100 Co ( 0.000000,  0.000000,  1.448066)
 101 Co ( 0.000000,  0.000000,  1.269711)
 102 Co ( 0.000000,  0.000000,  1.322957)
 103 Ni ( 0.000000,  0.000000,  0.346617)
 104 Ni ( 0.000000,  0.000000,  0.262023)
 105 Ni ( 0.000000,  0.000000,  0.219457)
 106 Co ( 0.000000,  0.000000,  0.687791)
 107 Cr ( 0.000000,  0.000000,  0.317145)

Energy contributions relative to reference atoms: (reference = -3548577.034362)

Kinetic:       +172.659756
Potential:     -206.871893
External:        +0.000000
XC:            -851.030897
Entropy (-ST):   -4.565615
Local:          +35.965608
--------------------------
Free energy:   -853.843041
Extrapolated:  -851.560234

Spin contamination: 25.465122 electrons
Showing only first 2 kpts
                      Up                     Down
 Kpt  Band  Eigenvalues  Occupancy  Eigenvalues  Occupancy
  0   488      9.48871    0.99374     10.35651    0.02631
  0   489      9.49898    0.99306     10.36424    0.02440
  0   490      9.51379    0.99197     10.38097    0.02072
  0   491      9.53478    0.99011     10.39745    0.01762

  1   488      9.48743    0.99382     10.36486    0.02425
  1   489      9.49169    0.99355     10.38331    0.02025
  1   490      9.50919    0.99232     10.39173    0.01864
  1   491      9.52704    0.99084     10.40018    0.01716


Fermi level: 9.99538

No gap

Forces in eV/Ang:
  0 Co   -0.25162    0.13228    0.08117
  1 Fe    0.14155   -0.02176   -0.32680
  2 Co   -0.18122   -0.45422   -0.16155
  3 Co    0.09229    0.03698    0.47343
  4 Co   -0.31967   -0.07163    0.37648
  5 Ni   -0.45550    0.08204   -0.24372
  6 Fe   -0.21501   -0.52128    0.09341
  7 Al   -0.75713    0.77365    0.41886
  8 Fe    0.44863    0.19192   -0.61311
  9 Cr    0.05568    0.55648   -0.04845
 10 Al    0.31243   -0.05534   -0.84945
 11 Co    0.00370   -0.09588   -0.74595
 12 Co    0.14082   -0.37760    0.00749
 13 Fe    0.15644   -0.05284   -0.15074
 14 Al    0.00756    0.70889   -1.32499
 15 Co    0.14632   -0.34367    0.20255
 16 Co   -0.29882    0.28257    0.28833
 17 Co   -0.19689   -0.40389    0.04783
 18 Co   -0.00730    0.23290    0.15488
 19 Al    0.37716   -1.17037   -0.01110
 20 Fe    0.10369   -0.58320   -0.14109
 21 Fe   -0.14868   -0.45890    0.10932
 22 Cr    0.31425   -0.77222    0.11487
 23 Al   -0.25778    0.46423   -0.54170
 24 Co    0.48896    0.24666    0.15551
 25 Fe    0.57350    0.09141   -0.23166
 26 Fe   -0.01764    0.09319   -0.44803
 27 Co   -0.07598   -0.09710    0.60160
 28 Cr   -1.11320    0.54470   -0.06869
 29 Ni   -0.42680    0.43484   -0.14540
 30 Fe   -0.28235    0.26352    0.00785
 31 Fe    0.01801    0.09759    0.07764
 32 Co    0.17094    0.62886    0.09198
 33 Fe    0.01585    0.07263   -0.20988
 34 Co    0.34552    0.36396   -0.04450
 35 Cr   -0.01105   -0.50044   -0.58384
 36 Cr    0.53776   -0.38015    0.76043
 37 Cr    0.18155    0.09121   -0.23864
 38 Cr   -0.57633    0.36304    0.24708
 39 Cr    0.05028   -0.83793   -0.16883
 40 Ni   -0.09099    0.24508   -0.40741
 41 Ni   -0.06038   -0.16593   -0.07113
 42 Co    0.14189    0.02470    0.00151
 43 Cr   -0.12425    0.12603   -0.05806
 44 Cr   -0.36588    0.11025    0.73372
 45 Fe    0.12137   -0.17316   -0.29980
 46 Fe    0.49819   -0.37844    0.20594
 47 Co    0.10010    0.18834    0.44674
 48 Ni    0.06641   -0.23844   -0.31747
 49 Al    0.86672   -0.55639    0.20585
 50 Fe   -0.09632   -0.39303   -0.16141
 51 Co    0.33462    0.05397   -0.34400
 52 Cr    0.67633    0.11135    0.01540
 53 Fe   -0.12758    0.27044   -0.23629
 54 Ni    0.27525    0.05873   -0.19498
 55 Fe   -0.34070   -0.98216   -0.53372
 56 Cr   -0.37722    0.00731    0.08119
 57 Ni   -0.05133   -0.01599   -0.06492
 58 Fe   -0.23771   -0.09262   -0.35829
 59 Fe   -0.29111   -0.25212   -0.06314
 60 Cr    0.21902    0.91818   -1.06228
 61 Ni   -0.24851    0.56026    0.07455
 62 Ni    0.22570    0.01304    0.00183
 63 Co   -0.16088    0.05629   -0.63763
 64 Fe   -0.31752   -0.15376    0.22178
 65 Cr    0.16848   -0.19693   -0.15675
 66 Ni   -0.09590   -0.02260    0.18979
 67 Fe   -0.08493    0.35719   -0.04254
 68 Al   -0.09938    0.17191   -0.19832
 69 Fe    0.26277    0.44389    0.20350
 70 Cr    0.06369    0.40279    0.81702
 71 Ni    0.12793    0.34231    0.01001
 72 Cr   -0.80371    0.09151   -0.98594
 73 Fe   -0.13516   -0.00042    0.40703
 74 Al   -0.10269   -0.69897    0.43991
 75 Co   -0.36903   -0.41887    0.01559
 76 Ni    0.17457    0.18763    0.10104
 77 Cr    0.34859    0.63261    0.34712
 78 Cr    0.31497   -0.25493   -0.17748
 79 Ni    0.23098    0.10883    0.22605
 80 Fe   -0.05894   -0.25884    0.15608
 81 Cr   -0.01600   -0.38801    0.26373
 82 Cr    0.05160    0.01529    0.40866
 83 Al    0.25072   -0.22666   -0.06814
 84 Fe    0.26308   -0.24646    0.11827
 85 Cr    0.85629    0.42561   -0.13376
 86 Cr   -0.58839    0.15114    1.06495
 87 Ni    0.14292    0.18606    0.27076
 88 Al    0.94999   -0.09966   -0.46051
 89 Fe   -0.40113    0.13271    0.45068
 90 Ni   -0.08110   -0.06436   -0.16314
 91 Ni    0.10420   -0.30719    0.25390
 92 Cr   -0.71262    0.06014    0.24921
 93 Ni   -0.03756   -0.22435   -0.23065
 94 Ni    0.13312   -0.25963    0.49644
 95 Cr   -0.56152    0.04648    0.66537
 96 Ni   -0.10469    0.17988    0.14061
 97 Ni   -0.27842    0.19792   -0.06080
 98 Co    0.16201   -0.34571    0.37025
 99 Ni   -0.43398    0.12247    0.15844
100 Co   -0.10235    0.04339    0.26879
101 Co    0.23513   -0.34355    0.18248
102 Co   -0.24712    0.12514   -0.33598
103 Ni   -0.06508    0.12872    0.07373
104 Ni    0.18418    0.16203    0.13951
105 Ni    0.39954    0.29550    0.03223
106 Co    0.15616    0.30227   -0.11440
107 Cr    0.07560    0.14822    0.41191

Timing:                              incl.     excl.
-----------------------------------------------------------
Forces:                             20.393    20.393   0.0% |
Hamiltonian:                         0.674     0.007   0.0% |
 Atomic:                             0.367     0.065   0.0% |
  XC Correction:                     0.302     0.302   0.0% |
 Calculate atomic Hamiltonians:      0.169     0.169   0.0% |
 Communicate:                        0.001     0.001   0.0% |
 Initialize Hamiltonian:             0.000     0.000   0.0% |
 Poisson:                            0.001     0.001   0.0% |
 XC 3D grid:                         0.129     0.129   0.0% |
LCAO initialization:               170.515     1.163   0.0% |
 LCAO eigensolver:                  25.704     0.029   0.0% |
  Calculate projections:             0.522     0.522   0.0% |
  DenseAtomicCorrection:             0.829     0.829   0.0% |
  Distribute overlap matrix:         1.718     1.718   0.0% |
  Orbital Layouts:                  16.058    16.058   0.0% |
  Potential matrix:                  5.433     5.433   0.0% |
  Sum over cells:                    1.116     1.116   0.0% |
 LCAO to grid:                     141.171   141.171   0.2% |
 Set positions (LCAO WFS):           2.477     1.218   0.0% |
  Basic WFS set positions:           0.003     0.003   0.0% |
  Basis functions set positions:     0.001     0.001   0.0% |
  P tci:                             0.730     0.730   0.0% |
  ST tci:                            0.232     0.232   0.0% |
  mktci:                             0.294     0.294   0.0% |
PWDescriptor:                        0.058     0.058   0.0% |
SCF-cycle:                       67131.821     3.874   0.0% |
 Davidson:                       66123.011 11497.417  17.1% |------|
  Apply H:                         494.233   474.348   0.7% |
   HMM T:                           19.885    19.885   0.0% |
  Subspace diag:                  4704.064     0.612   0.0% |
   calc_h_matrix:                 1755.727  1105.458   1.6% ||
    Apply H:                       650.268   628.847   0.9% |
     HMM T:                         21.422    21.422   0.0% |
   diagonalize:                    960.946   960.946   1.4% ||
   rotate_psi:                    1986.780  1986.780   3.0% ||
  calc. matrices:                 9322.070  8340.119  12.4% |----|
   Apply H:                        981.951   941.746   1.4% ||
    HMM T:                          40.205    40.205   0.1% |
  diagonalize:                   35680.183 35680.183  53.0% |--------------------|
  rotate_psi:                     4425.044  4425.044   6.6% |--|
 Density:                          566.348     0.021   0.0% |
  Atomic density matrices:          14.265    14.265   0.0% |
  Mix:                             248.472   248.472   0.4% |
  Multipole moments:                 0.261     0.261   0.0% |
  Pseudo density:                  303.330   303.304   0.5% |
   Symmetrize density:               0.026     0.026   0.0% |
 Hamiltonian:                      427.912     2.625   0.0% |
  Atomic:                          168.056    26.184   0.0% |
   XC Correction:                  141.872   141.872   0.2% |
  Calculate atomic Hamiltonians:   195.183   195.183   0.3% |
  Communicate:                       2.380     2.380   0.0% |
  Poisson:                           0.431     0.431   0.0% |
  XC 3D grid:                       59.238    59.238   0.1% |
 Orthonormalize:                    10.675     0.002   0.0% |
  calc_s_matrix:                     1.466     1.466   0.0% |
  inverse-cholesky:                  0.850     0.850   0.0% |
  projections:                       6.029     6.029   0.0% |
  rotate_psi_s:                      2.328     2.328   0.0% |
Set symmetry:                        0.001     0.001   0.0% |
Other:                               4.541     4.541   0.0% |
-----------------------------------------------------------
Total:                                     67328.002 100.0%

Date: Fri Apr 14 23:42:37 2023
