
  ___ ___ ___ _ _ _  
 |   |   |_  | | | | 
 | | | | | . | | | | 
 |__ |  _|___|_____|  22.8.0
 |___|_|             

User:   c.zeng@d0150
Date:   Sat Apr  8 09:17:02 2023
Arch:   x86_64
Pid:    93439
CWD:    /home/c.zeng/projects/hea-corrosion/hea-mlp/data-curation/volume/dft-jobs/40
Python: 3.8.1
gpaw:   /home/c.zeng/usr/installs/gpaw/source/gpaw-22.8.0/gpaw
_gpaw:  /home/c.zeng/usr/installs/gpaw/source/gpaw-22.8.0/
        _gpaw.cpython-38-x86_64-linux-gnu.so
ase:    /home/c.zeng/.local/lib/python3.8/site-packages/ase-3.22.1-py3.8.egg/ase (version 3.22.1)
numpy:  /shared/centos7/python/3.8.1/lib/python3.8/site-packages/numpy (version 1.17.4)
scipy:  /shared/centos7/python/3.8.1/lib/python3.8/site-packages/scipy (version 1.4.1)
libxc:  4.2.3
units:  Angstrom and eV
cores: 64
OpenMP: False
OMP_NUM_THREADS: 1

Input parameters:
  convergence: {energy: 0.0001}
  kpts: [2 2 2]
  maxiter: 666
  mode: {ecut: 350.0,
         name: pw}
  occupations: {fixmagmom: False,
                name: fermi-dirac,
                width: 0.1}
  spinpol: True
  xc: PBE

System changes: positions, numbers, cell, pbc, initial_charges, initial_magmoms 

Initialize ...

species:
  Cr:
    name: Chromium
    id: 33f258bda2ca9f93018e70263a35547b
    Z: 24.0
    valence: 6
    core: 18
    charge: 0.0
    file: /home/c.zeng/usr/data/gpaw-setups-0.9.20000/Cr.PBE.gz
    compensation charges: {type: gauss,
                           rc: 0.35,
                           lmax: 2}
    cutoffs: {filter: 2.14,
              core: 3.04}
    valence states:
      #              energy  rcut
      - 4s(1.00)    -4.007   1.164
      - 4p(0.00)    -0.989   1.217
      - 3d(5.00)    -2.913   1.111
      -  s          23.205   1.164
      -  p          26.223   1.217
      -  d          24.299   1.111
  
    # Using partial waves for Cr as LCAO basis

  Al:
    name: Aluminium
    id: 0292cae29f5d6237e50f6abdd43a7bdd
    Z: 13.0
    valence: 3
    core: 10
    charge: 0.0
    file: /home/c.zeng/usr/data/gpaw-setups-0.9.20000/Al.PBE.gz
    compensation charges: {type: gauss,
                           rc: 0.34,
                           lmax: 2}
    cutoffs: {filter: 1.91,
              core: 2.36}
    valence states:
      #              energy  rcut
      - 3s(2.00)    -7.753   1.085
      - 3p(1.00)    -2.712   1.085
      -  s          19.459   1.085
      -  p          24.499   1.085
      -  d           0.000   1.085
  
    # Using partial waves for Al as LCAO basis

  Co:
    name: Cobalt
    id: 339d20d5b0b93d2de9531a1bee871d91
    Z: 27.0
    valence: 9
    core: 18
    charge: 0.0
    file: /home/c.zeng/usr/data/gpaw-setups-0.9.20000/Co.PBE.gz
    compensation charges: {type: gauss,
                           rc: 0.32,
                           lmax: 2}
    cutoffs: {filter: 1.87,
              core: 2.55}
    valence states:
      #              energy  rcut
      - 4s(2.00)    -5.469   1.005
      - 4p(0.00)    -1.277   1.058
      - 3d(7.00)    -8.205   1.005
      -  s          21.742   1.005
      -  p          25.934   1.058
      -  d          19.007   1.005
  
    # Using partial waves for Co as LCAO basis

  Fe:
    name: Iron
    id: 37abbd8d6c3c35915a9b583b742da910
    Z: 26.0
    valence: 8
    core: 18
    charge: 0.0
    file: /home/c.zeng/usr/data/gpaw-setups-0.9.20000/Fe.PBE.gz
    compensation charges: {type: gauss,
                           rc: 0.33,
                           lmax: 2}
    cutoffs: {filter: 2.06,
              core: 2.67}
    valence states:
      #              energy  rcut
      - 4s(2.00)    -5.291   1.164
      - 4p(0.00)    -1.326   1.058
      - 3d(6.00)    -7.505   1.058
      -  s          21.920   1.164
      -  p          25.885   1.058
      -  d          19.706   1.058
  
    # Using partial waves for Fe as LCAO basis

  Ni:
    name: Nickel
    id: 0d9f38a9d6e76a2886f07bb4381f212b
    Z: 28.0
    valence: 16
    core: 12
    charge: 0.0
    file: /home/c.zeng/usr/data/gpaw-setups-0.9.20000/Ni.PBE.gz
    compensation charges: {type: gauss,
                           rc: 0.36,
                           lmax: 2}
    cutoffs: {filter: 2.14,
              core: 1.98}
    valence states:
      #              energy  rcut
      - 4s(2.00)    -5.642   1.164
      - 3p(6.00)   -71.394   1.207
      - 4p(0.00)    -1.226   1.207
      - 3d(8.00)    -8.875   1.138
      -  s          21.570   1.164
      -  d          18.337   1.138
  
    # Using partial waves for Ni as LCAO basis

Reference energy: -3699400.456887  # eV

Spin-polarized calculation.
Magnetic moment: 143.500000

Convergence criteria:
 Maximum [total energy] change in last 3 cyles: 0.0001 eV / electron
 Maximum integral of absolute [dens]ity change: 0.0001 electrons / valence electron
 Maximum integral of absolute [eigenst]ate change: 4e-08 eV^2 / valence electron
 Maximum number of scf [iter]ations: 666
 (Square brackets indicate name in SCF output, whereas a 'c' in
 the SCF output indicates the quantity has converged.)

Symmetries present (total): 1

  ( 1  0  0)
  ( 0  1  0)
  ( 0  0  1)

8 k-points: 2 x 2 x 2 Monkhorst-Pack grid
4 k-points in the irreducible part of the Brillouin zone
       k-points in crystal coordinates                weights
   0:     0.25000000   -0.25000000   -0.25000000          2/8
   1:     0.25000000   -0.25000000    0.25000000          2/8
   2:     0.25000000    0.25000000   -0.25000000          2/8
   3:     0.25000000    0.25000000    0.25000000          2/8

Wave functions: Plane wave expansion
  Cutoff energy: 350.000 eV
  Number of coefficients (min, max): 18052, 18052
  Pulay-stress correction: 0.000000 eV/Ang^3 (de/decut=0.000000)
  Using FFTW library
  ScaLapack parameters: grid=1x1, blocksize=None
  Wavefunction extrapolation:
    Improved wavefunction reuse through dual PAW basis 

Occupation numbers: Fermi-Dirac:
  width: 0.1000  # eV
 

Eigensolver
   Davidson(niter=2) 

Densities:
  Coarse grid: 48*48*48 grid
  Fine grid: 96*96*96 grid
  Total Charge: 0.000000 

Density mixing:
  Method: difference
  Backend: pulay
  Linear mixing parameter: 0.05
  old densities: 5
  Damping of long wavelength oscillations: 50 

Hamiltonian:
  XC and Coulomb potentials evaluated on a 96*96*96 grid
  Using the PBE Exchange-Correlation functional
  External potential:
    NoExternalPotential
 

XC parameters: PBE with 2 nearest neighbor stencil

Memory estimate:
  Process memory now: 178.14 MiB
  Calculator: 671.37 MiB
    Density: 4.99 MiB
      Arrays: 1.85 MiB
      Localized functions: 2.41 MiB
      Mixer: 0.74 MiB
    Hamiltonian: 1.44 MiB
      Arrays: 1.37 MiB
      XC: 0.00 MiB
      Poisson: 0.00 MiB
      vbar: 0.07 MiB
    Wavefunctions: 664.94 MiB
      Arrays psit_nG: 387.29 MiB
      Eigensolver: 270.45 MiB
      Projections: 2.57 MiB
      Projectors: 0.33 MiB
      PW-descriptor: 4.30 MiB

Total number of cores used: 64
Parallelization over k-points: 4
Domain decomposition: 4 x 2 x 2

Number of atoms: 108
Number of atomic orbitals: 1025
Number of bands in calculation: 703
Number of valence electrons: 1020
Bands to converge: occupied

... initialized

Initializing position-dependent things.

Density initialized from atomic densities
Creating initial wave functions:
  703 bands from LCAO basis set

        Cr------------------------.  
       /|  Ni                Cr   |  
      Cr|   Fe         Al         |  
     / Ni      Cr       Fe        |  
    /   CFe      Co       Cr      |  
   /o   | NiFe     CrFe    CrNi   |  
  /  NiCo  FeCo     CrNiFe        |  
 *    FeCo  CrNiNi     CoCo       |  
 |     NiCoCr  CoNi Co  AlCrFe    |  
 | Ni   FeFeCoAl CoNiNiCo  Ni     |  
 |   FeCr  NiCoCo   FeFeCr   Fe   |  
 |    CrNi  CrCoFeCr NiNiNi   Ni  |  
 |     NiNiNi  Co CrCo  CrFeCo    |  
 |      .-FeCrNi-FeCoCoFe--CrFe---.  
 |   CoFe    FeAl   CrNiNi       /   
 |    / Fe    CoCr       Co     /    
 |   /            Fe           /     
 |Al/      Cr       Co        /      
 | /                         /       
 |/            Fe           /        
 *----------------Cr-------*         

Positions:
   0 Cr     0.005961   -0.016848   10.640240    ( 0.0000,  0.0000,  0.0000)
   1 Al    10.672574    1.802656    1.785208    ( 0.0000,  0.0000,  0.0000)
   2 Cr     1.795111   10.626826    1.781323    ( 0.0000,  0.0000,  0.0000)
   3 Co     1.781366    1.796530   10.644391    ( 0.0000,  0.0000,  2.1000)
   4 Fe     3.523995   -0.014426    0.016883    ( 0.0000,  0.0000,  2.0000)
   5 Cr     3.522437    1.782561    1.746748    ( 0.0000,  0.0000,  0.0000)
   6 Ni     5.320397   10.643025    1.763246    ( 0.0000,  0.0000,  1.5000)
   7 Fe     5.341772    1.826346    0.006629    ( 0.0000,  0.0000,  2.0000)
   8 Cr     7.143681    0.016448    0.011909    ( 0.0000,  0.0000,  0.0000)
   9 Co     7.142923    1.797619    1.764879    ( 0.0000,  0.0000,  2.1000)
  10 Ni     8.892318   10.650986    1.787363    ( 0.0000,  0.0000,  1.5000)
  11 Fe     8.888711    1.803936   10.643078    ( 0.0000,  0.0000,  2.0000)
  12 Co     0.008713    3.582538   10.650580    ( 0.0000,  0.0000,  2.1000)
  13 Co     0.019465    5.332947    1.789604    ( 0.0000,  0.0000,  2.1000)
  14 Fe     1.778752    3.601075    1.760578    ( 0.0000,  0.0000,  2.0000)
  15 Fe     1.791664    5.342764   -0.018085    ( 0.0000,  0.0000,  2.0000)
  16 Fe     3.543364    3.588749   -0.015631    ( 0.0000,  0.0000,  2.0000)
  17 Fe     3.527751    5.358174    1.767355    ( 0.0000,  0.0000,  2.0000)
  18 Cr     5.335433    3.605204    1.756566    ( 0.0000,  0.0000,  0.0000)
  19 Co     5.300346    5.323129   -0.012732    ( 0.0000,  0.0000,  2.1000)
  20 Fe     7.121762    3.584715   10.659053    ( 0.0000,  0.0000,  2.0000)
  21 Ni     7.119008    5.314581    1.804790    ( 0.0000,  0.0000,  1.5000)
  22 Co     8.892115    3.591257    1.772402    ( 0.0000,  0.0000,  2.1000)
  23 Cr     8.924374    5.302469   -0.003095    ( 0.0000,  0.0000,  0.0000)
  24 Cr     0.024022    7.095393   -0.007637    ( 0.0000,  0.0000,  0.0000)
  25 Ni     0.020580    8.870324    1.786926    ( 0.0000,  0.0000,  1.5000)
  26 Fe     1.786008    7.104356    1.777226    ( 0.0000,  0.0000,  2.0000)
  27 Ni     1.780822    8.866674   10.658840    ( 0.0000,  0.0000,  1.5000)
  28 Co     3.548198    7.097239    0.009363    ( 0.0000,  0.0000,  2.1000)
  29 Co     3.540760    8.859012    1.788665    ( 0.0000,  0.0000,  2.1000)
  30 Co     5.294594    7.098487    1.788580    ( 0.0000,  0.0000,  2.1000)
  31 Cr     5.303440    8.872266    0.029629    ( 0.0000,  0.0000,  0.0000)
  32 Al     7.105979    7.087805   10.645735    ( 0.0000,  0.0000,  0.0000)
  33 Cr     7.110418    8.899425    1.809133    ( 0.0000,  0.0000,  0.0000)
  34 Cr     8.939474    7.092095    1.798643    ( 0.0000,  0.0000,  0.0000)
  35 Cr     8.919434    8.912326   10.665840    ( 0.0000,  0.0000,  0.0000)
  36 Fe    10.679617   10.660248    3.582955    ( 0.0000,  0.0000,  2.0000)
  37 Co    10.670034    1.797384    5.339424    ( 0.0000,  0.0000,  2.1000)
  38 Cr     1.768742   10.650452    5.343191    ( 0.0000,  0.0000,  0.0000)
  39 Fe     1.791280    1.786360    3.584267    ( 0.0000,  0.0000,  2.0000)
  40 Co     3.528744   10.628373    3.565357    ( 0.0000,  0.0000,  2.1000)
  41 Ni     3.534549    1.793862    5.366786    ( 0.0000,  0.0000,  1.5000)
  42 Ni     5.312682    0.002417    5.365559    ( 0.0000,  0.0000,  1.5000)
  43 Al     5.332146    1.768870    3.580842    ( 0.0000,  0.0000,  0.0000)
  44 Fe     7.137374   10.673961    3.563148    ( 0.0000,  0.0000,  2.0000)
  45 Co     7.137342    1.794556    5.357811    ( 0.0000,  0.0000,  2.1000)
  46 Fe     8.925602   10.673534    5.346019    ( 0.0000,  0.0000,  2.0000)
  47 Ni     8.884720    1.780534    3.580479    ( 0.0000,  0.0000,  1.5000)
  48 Fe    -0.009505    3.573414    3.580020    ( 0.0000,  0.0000,  2.0000)
  49 Fe    10.685486    5.329724    5.338624    ( 0.0000,  0.0000,  2.0000)
  50 Ni     1.783020    3.582602    5.348644    ( 0.0000,  0.0000,  1.5000)
  51 Ni     1.766672    5.340054    3.566382    ( 0.0000,  0.0000,  1.5000)
  52 Cr     3.521850    3.604553    3.575164    ( 0.0000,  0.0000,  0.0000)
  53 Co     3.543086    5.347524    5.348965    ( 0.0000,  0.0000,  2.1000)
  54 Fe     5.333758    3.590659    5.360500    ( 0.0000,  0.0000,  2.0000)
  55 Cr     5.335102    5.344845    3.561441    ( 0.0000,  0.0000,  0.0000)
  56 Co     7.142635    3.569487    3.572155    ( 0.0000,  0.0000,  2.1000)
  57 Fe     7.119531    5.347481    5.345336    ( 0.0000,  0.0000,  2.0000)
  58 Ni     8.888956    3.571493    5.341697    ( 0.0000,  0.0000,  1.5000)
  59 Fe     8.904750    5.339222    3.576979    ( 0.0000,  0.0000,  2.0000)
  60 Cr     0.020704    7.105007    3.565656    ( 0.0000,  0.0000,  0.0000)
  61 Ni     0.010197    8.876791    5.335038    ( 0.0000,  0.0000,  1.5000)
  62 Fe     1.776457    7.100622    5.336351    ( 0.0000,  0.0000,  2.0000)
  63 Ni     1.782700    8.881625    3.567161    ( 0.0000,  0.0000,  1.5000)
  64 Co     3.540162    7.113278    3.551581    ( 0.0000,  0.0000,  2.1000)
  65 Co     3.550375    8.858201    5.320173    ( 0.0000,  0.0000,  2.1000)
  66 Ni     5.302459    7.073185    5.331741    ( 0.0000,  0.0000,  1.5000)
  67 Fe     5.308723    8.890311    3.547280    ( 0.0000,  0.0000,  2.0000)
  68 Ni     7.109767    7.090857    3.542329    ( 0.0000,  0.0000,  1.5000)
  69 Al     7.111730    8.868488    5.341292    ( 0.0000,  0.0000,  0.0000)
  70 Ni     8.928141    7.090654    5.343970    ( 0.0000,  0.0000,  1.5000)
  71 Fe     8.912241    8.874219    3.554537    ( 0.0000,  0.0000,  2.0000)
  72 Cr     0.012465   10.659256    7.110108    ( 0.0000,  0.0000,  0.0000)
  73 Fe    10.668871    1.786947    8.885584    ( 0.0000,  0.0000,  2.0000)
  74 Fe     1.768678   10.665733    8.880024    ( 0.0000,  0.0000,  2.0000)
  75 Cr     1.777578    1.805419    7.118261    ( 0.0000,  0.0000,  0.0000)
  76 Cr     3.511734   10.666673    7.084572    ( 0.0000,  0.0000,  0.0000)
  77 Cr     3.526834    1.823102    8.897856    ( 0.0000,  0.0000,  0.0000)
  78 Al     5.330823    0.021646    8.895231    ( 0.0000,  0.0000,  0.0000)
  79 Co     5.335433    1.823486    7.095243    ( 0.0000,  0.0000,  2.1000)
  80 Cr     7.148814    0.021813    7.113150    ( 0.0000,  0.0000,  0.0000)
  81 Co     7.139135    1.805857    8.892157    ( 0.0000,  0.0000,  2.1000)
  82 Co     8.906254    0.010404    8.882713    ( 0.0000,  0.0000,  2.1000)
  83 Cr     8.894825    1.797629    7.127940    ( 0.0000,  0.0000,  0.0000)
  84 Ni     0.021413    3.575303    7.114260    ( 0.0000,  0.0000,  1.5000)
  85 Ni     0.023509    5.327110    8.882724    ( 0.0000,  0.0000,  1.5000)
  86 Co     1.768315    3.569733    8.891709    ( 0.0000,  0.0000,  2.1000)
  87 Co     1.775209    5.349637    7.118934    ( 0.0000,  0.0000,  2.1000)
  88 Co     3.545487    3.585996    7.119232    ( 0.0000,  0.0000,  2.1000)
  89 Co     3.540674    5.335070    8.884858    ( 0.0000,  0.0000,  2.1000)
  90 Ni     5.331570    3.561889    8.881262    ( 0.0000,  0.0000,  1.5000)
  91 Ni     5.316086    5.330247    7.116522    ( 0.0000,  0.0000,  1.5000)
  92 Ni     7.104538    3.574780    7.111410    ( 0.0000,  0.0000,  1.5000)
  93 Ni     7.107675    5.307965    8.854125    ( 0.0000,  0.0000,  1.5000)
  94 Co     8.907193    3.561622    8.890685    ( 0.0000,  0.0000,  2.1000)
  95 Cr     8.918036    5.336895    7.100600    ( 0.0000,  0.0000,  0.0000)
  96 Fe     0.015990    7.102702    7.111784    ( 0.0000,  0.0000,  2.0000)
  97 Ni     0.000617    8.894356    8.884058    ( 0.0000,  0.0000,  1.5000)
  98 Ni     1.771890    7.104847    8.888369    ( 0.0000,  0.0000,  1.5000)
  99 Fe     1.774825    8.852225    7.109063    ( 0.0000,  0.0000,  2.0000)
 100 Ni     3.530665    7.087464    7.104719    ( 0.0000,  0.0000,  1.5000)
 101 Cr     3.525318    8.851329    8.894078    ( 0.0000,  0.0000,  0.0000)
 102 Cr     5.310430    7.102980    8.870057    ( 0.0000,  0.0000,  0.0000)
 103 Cr     5.290976    8.850635    7.103940    ( 0.0000,  0.0000,  0.0000)
 104 Co     7.128485    7.082790    7.142208    ( 0.0000,  0.0000,  2.1000)
 105 Fe     7.142155    8.900545    8.854093    ( 0.0000,  0.0000,  2.0000)
 106 Cr     8.926082    7.114900    8.862726    ( 0.0000,  0.0000,  0.0000)
 107 Ni     8.931898    8.875969    7.126905    ( 0.0000,  0.0000,  1.5000)

Unit cell:
           periodic     x           y           z      points  spacing
  1. axis:    yes   10.671400    0.000000    0.000000    48     0.2223
  2. axis:    yes    0.000000   10.671400    0.000000    48     0.2223
  3. axis:    yes    0.000000    0.000000   10.671400    48     0.2223

  Lengths:  10.671400  10.671400  10.671400
  Angles:   90.000000  90.000000  90.000000

Effective grid spacing dv^(1/3) = 0.2223

     iter     time        total  log10-change:  magmom
                         energy  eigst   dens
iter:   1 09:19:50 -1058.444453                  +143.7773
iter:   2 09:21:13  -939.082542  -0.23  -1.20    +81.6613
iter:   3 09:22:34  -922.067729  -0.90  -1.22    +69.7948
iter:   4 09:23:55  -902.350224  -1.30  -1.29    +65.6395
iter:   5 09:25:17  -887.725211  -1.58  -1.32    +62.5465
iter:   6 09:26:38  -886.789744  -1.27  -1.39    +63.0433
iter:   7 09:27:59  -883.372638  -1.28  -1.48    +62.1406
iter:   8 09:29:23  -870.851980  -1.76  -1.57    +61.8061
iter:   9 09:30:44  -869.167590  -2.18  -1.76    +63.0505
iter:  10 09:32:06  -869.262262  -2.63  -1.85    +64.1567
iter:  11 09:33:31  -869.863727  -2.59  -1.86    +65.4499
iter:  12 09:34:54  -871.063590  -2.46  -1.91    +66.6373
iter:  13 09:36:15  -870.993686  -2.48  -1.94    +67.1334
iter:  14 09:37:38  -870.851928  -2.56  -2.02    +67.9951
iter:  15 09:39:02  -870.925266  -2.81  -2.05    +68.6422
iter:  16 09:40:24  -870.465576  -2.98  -2.09    +68.8987
iter:  17 09:41:47  -870.542359  -3.23  -2.19    +69.4351
iter:  18 09:43:08  -870.394614  -3.28  -2.20    +69.7739
iter:  19 09:44:31  -870.644785  -3.13  -2.31    +70.1241
iter:  20 09:45:54  -870.428914  -3.24  -2.29    +70.2123
iter:  21 09:47:16  -870.485708  -3.44  -2.41    +70.5407
iter:  22 09:48:37  -870.452845c -3.49  -2.41    +70.6363
iter:  23 09:49:59  -870.434491c -3.47  -2.45    +70.5779
iter:  24 09:51:23  -870.375866c -3.68  -2.51    +70.7015
iter:  25 09:52:45  -870.409416c -3.66  -2.57    +70.7105
iter:  26 09:54:05  -870.417484c -3.77  -2.60    +70.7145
iter:  27 09:55:28  -870.380514c -3.86  -2.59    +70.7345
iter:  28 09:56:51  -870.422378c -3.91  -2.67    +70.7951
iter:  29 09:58:12  -870.415631c -4.04  -2.67    +70.8462
iter:  30 09:59:33  -870.417010c -4.11  -2.69    +70.7491
iter:  31 10:00:55  -870.395338c -4.38  -2.72    +70.7550
iter:  32 10:02:16  -870.476318c -3.99  -2.80    +70.7352
iter:  33 10:03:38  -870.419983c -4.17  -2.71    +70.7444
iter:  34 10:04:59  -870.423092c -4.42  -2.83    +70.6977
iter:  35 10:06:21  -870.439424c -4.42  -2.85    +70.6550
iter:  36 10:07:42  -870.430916c -4.40  -2.86    +70.6847
iter:  37 10:09:04  -870.427623c -4.60  -2.93    +70.6470
iter:  38 10:10:29  -870.446900c -4.59  -2.98    +70.6148
iter:  39 10:11:49  -870.447761c -4.51  -2.97    +70.5904
iter:  40 10:13:06  -870.454632c -4.51  -2.99    +70.5734
iter:  41 10:14:29  -870.454126c -4.62  -2.99    +70.5907
iter:  42 10:15:49  -870.450411c -4.71  -3.04    +70.4879
iter:  43 10:17:11  -870.453531c -4.80  -3.15    +70.4853
iter:  44 10:18:30  -870.455436c -5.00  -3.13    +70.4597
iter:  45 10:19:49  -870.461838c -4.97  -3.21    +70.4303
iter:  46 10:21:08  -870.462750c -4.90  -3.19    +70.3914
iter:  47 10:22:27  -870.464060c -5.17  -3.18    +70.3366
iter:  48 10:23:44  -870.464068c -5.23  -3.27    +70.3227
iter:  49 10:25:06  -870.469064c -5.19  -3.30    +70.2699
iter:  50 10:26:27  -870.468198c -5.45  -3.28    +70.2438
iter:  51 10:27:48  -870.472008c -5.32  -3.35    +70.1717
iter:  52 10:29:07  -870.475163c -5.24  -3.34    +70.1653
iter:  53 10:30:29  -870.474908c -5.38  -3.32    +70.1403
iter:  54 10:31:48  -870.477594c -5.32  -3.38    +70.0658
iter:  55 10:33:05  -870.479155c -5.42  -3.41    +70.0589
iter:  56 10:34:26  -870.479117c -5.64  -3.39    +70.0226
iter:  57 10:35:44  -870.480563c -5.82  -3.47    +69.9952
iter:  58 10:37:04  -870.481911c -5.89  -3.48    +69.9537
iter:  59 10:38:25  -870.484881c -5.63  -3.47    +69.8899
iter:  60 10:39:45  -870.488728c -5.41  -3.43    +69.7779
iter:  61 10:41:04  -870.490351c -5.78  -3.42    +69.7452
iter:  62 10:42:24  -870.494329c -5.49  -3.40    +69.6745
iter:  63 10:43:42  -870.492505c -6.00  -3.34    +69.7342
iter:  64 10:44:59  -870.502610c -5.01  -3.34    +69.5987
iter:  65 10:46:20  -870.500196c -5.08  -3.25    +69.6500
iter:  66 10:47:40  -870.498531c -5.15  -3.24    +69.5563
iter:  67 10:48:59  -870.503207c -5.01  -3.35    +69.5448
iter:  68 10:50:18  -870.496627c -5.14  -3.24    +69.5243
iter:  69 10:51:40  -870.497150c -5.64  -3.38    +69.4912
iter:  70 10:52:59  -870.496164c -5.74  -3.40    +69.4375
iter:  71 10:54:18  -870.496787c -6.04  -3.45    +69.4187
iter:  72 10:55:36  -870.498119c -5.69  -3.48    +69.3958
iter:  73 10:56:55  -870.500654c -5.36  -3.44    +69.3611
iter:  74 10:58:16  -870.504186c -5.04  -3.42    +69.3403
iter:  75 10:59:37  -870.500952c -5.20  -3.34    +69.3312
iter:  76 11:00:58  -870.502335c -5.23  -3.49    +69.3255
iter:  77 11:02:19  -870.499106c -5.48  -3.48    +69.3084
iter:  78 11:03:41  -870.498847c -5.97  -3.59    +69.2648
iter:  79 11:05:01  -870.498606c -6.34  -3.69    +69.2512
iter:  80 11:06:23  -870.498948c -6.49  -3.77    +69.2245
iter:  81 11:07:40  -870.499036c -6.90  -3.77    +69.2136
iter:  82 11:09:02  -870.499892c -6.07  -3.81    +69.1781
iter:  83 11:10:22  -870.501927c -5.61  -3.78    +69.1847
iter:  84 11:11:43  -870.499697c -5.95  -3.65    +69.1727
iter:  85 11:13:01  -870.500459c -6.16  -4.14c   +69.1476
iter:  86 11:14:21  -870.499958c -6.63  -3.94    +69.1451
iter:  87 11:15:43  -870.500181c -6.78  -4.32c   +69.1311
iter:  88 11:17:06  -870.500240c -7.25  -4.28c   +69.1262
iter:  89 11:18:28  -870.500435c -6.94  -4.41c   +69.1072
iter:  90 11:19:49  -870.500784c -6.67  -4.41c   +69.0794
iter:  91 11:21:11  -870.502791c -5.21  -4.39c   +68.8960
iter:  92 11:22:31  -870.503850c -5.40  -4.09c   +68.7930
iter:  93 11:23:54  -870.503953c -6.07  -3.96    +68.7765
iter:  94 11:25:14  -870.504024c -6.47  -3.96    +68.7652
iter:  95 11:26:34  -870.504062c -6.89  -3.99    +68.7642
iter:  96 11:27:58  -870.504249c -6.47  -4.01c   +68.7586
iter:  97 11:29:21  -870.504034c -6.02  -3.84    +68.7588
iter:  98 11:30:43  -870.503825c -6.64  -3.96    +68.7431
iter:  99 11:32:05  -870.504102c -6.59  -4.05c   +68.7344
iter: 100 11:33:29  -870.503912c -6.62  -4.01c   +68.7320
iter: 101 11:34:51  -870.503804c -6.96  -4.04c   +68.7200
iter: 102 11:36:12  -870.503923c -6.94  -4.20c   +68.7155
iter: 103 11:37:33  -870.503813c -7.21  -4.21c   +68.7145
iter: 104 11:38:54  -870.503862c -7.25  -4.25c   +68.7112
iter: 105 11:40:15  -870.503935c -7.12  -4.33c   +68.7105
iter: 106 11:41:36  -870.503865c -7.58c -4.31c   +68.7102

Converged after 106 iterations.

Dipole moment: (-9.732686, 7.989741, 8.071780) |e|*Ang

Total magnetic moment: (0.000000, 0.000000, 68.710198)
Local magnetic moments:
   0 Cr ( 0.000000,  0.000000, -0.994966)
   1 Al ( 0.000000,  0.000000, -0.041327)
   2 Cr ( 0.000000,  0.000000, -1.100856)
   3 Co ( 0.000000,  0.000000,  0.726280)
   4 Fe ( 0.000000,  0.000000,  1.768872)
   5 Cr ( 0.000000,  0.000000, -0.809148)
   6 Ni ( 0.000000,  0.000000,  0.191365)
   7 Fe ( 0.000000,  0.000000,  2.075474)
   8 Cr ( 0.000000,  0.000000, -1.171149)
   9 Co ( 0.000000,  0.000000,  1.223191)
  10 Ni ( 0.000000,  0.000000,  0.175585)
  11 Fe ( 0.000000,  0.000000,  2.249659)
  12 Co ( 0.000000,  0.000000,  1.362761)
  13 Co ( 0.000000,  0.000000,  1.001312)
  14 Fe ( 0.000000,  0.000000,  2.000821)
  15 Fe ( 0.000000,  0.000000,  2.274320)
  16 Fe ( 0.000000,  0.000000,  2.036375)
  17 Fe ( 0.000000,  0.000000,  1.897964)
  18 Cr ( 0.000000,  0.000000, -1.121471)
  19 Co ( 0.000000,  0.000000,  1.269682)
  20 Fe ( 0.000000,  0.000000,  2.284321)
  21 Ni ( 0.000000,  0.000000,  0.255757)
  22 Co ( 0.000000,  0.000000,  1.279302)
  23 Cr ( 0.000000,  0.000000, -0.918981)
  24 Cr ( 0.000000,  0.000000, -0.904657)
  25 Ni ( 0.000000,  0.000000,  0.170948)
  26 Fe ( 0.000000,  0.000000,  2.280216)
  27 Ni ( 0.000000,  0.000000,  0.220190)
  28 Co ( 0.000000,  0.000000,  1.173354)
  29 Co ( 0.000000,  0.000000,  1.151922)
  30 Co ( 0.000000,  0.000000,  1.136955)
  31 Cr ( 0.000000,  0.000000,  1.036335)
  32 Al ( 0.000000,  0.000000, -0.010849)
  33 Cr ( 0.000000,  0.000000, -1.485867)
  34 Cr ( 0.000000,  0.000000,  0.806172)
  35 Cr ( 0.000000,  0.000000,  1.020840)
  36 Fe ( 0.000000,  0.000000,  2.255206)
  37 Co ( 0.000000,  0.000000,  0.964434)
  38 Cr ( 0.000000,  0.000000, -1.218699)
  39 Fe ( 0.000000,  0.000000,  2.018989)
  40 Co ( 0.000000,  0.000000,  1.084534)
  41 Ni ( 0.000000,  0.000000,  0.154168)
  42 Ni ( 0.000000,  0.000000,  0.263648)
  43 Al ( 0.000000,  0.000000, -0.022457)
  44 Fe ( 0.000000,  0.000000,  2.333072)
  45 Co ( 0.000000,  0.000000,  1.178078)
  46 Fe ( 0.000000,  0.000000,  1.960346)
  47 Ni ( 0.000000,  0.000000,  0.493996)
  48 Fe ( 0.000000,  0.000000,  2.371044)
  49 Fe ( 0.000000,  0.000000,  2.234324)
  50 Ni ( 0.000000,  0.000000,  0.385728)
  51 Ni ( 0.000000,  0.000000,  0.403186)
  52 Cr ( 0.000000,  0.000000, -0.924615)
  53 Co ( 0.000000,  0.000000,  1.376127)
  54 Fe ( 0.000000,  0.000000,  2.206449)
  55 Cr ( 0.000000,  0.000000, -1.141570)
  56 Co ( 0.000000,  0.000000,  1.341490)
  57 Fe ( 0.000000,  0.000000,  2.310928)
  58 Ni ( 0.000000,  0.000000,  0.357558)
  59 Fe ( 0.000000,  0.000000,  2.174069)
  60 Cr ( 0.000000,  0.000000, -1.804776)
  61 Ni ( 0.000000,  0.000000,  0.302082)
  62 Fe ( 0.000000,  0.000000,  2.309739)
  63 Ni ( 0.000000,  0.000000,  0.377785)
  64 Co ( 0.000000,  0.000000,  1.375296)
  65 Co ( 0.000000,  0.000000,  1.088512)
  66 Ni ( 0.000000,  0.000000,  0.346088)
  67 Fe ( 0.000000,  0.000000,  2.366019)
  68 Ni ( 0.000000,  0.000000,  0.185711)
  69 Al ( 0.000000,  0.000000, -0.032716)
  70 Ni ( 0.000000,  0.000000,  0.344592)
  71 Fe ( 0.000000,  0.000000,  2.102428)
  72 Cr ( 0.000000,  0.000000,  0.099823)
  73 Fe ( 0.000000,  0.000000,  1.873100)
  74 Fe ( 0.000000,  0.000000,  1.488958)
  75 Cr ( 0.000000,  0.000000, -0.402873)
  76 Cr ( 0.000000,  0.000000,  0.528468)
  77 Cr ( 0.000000,  0.000000, -1.400061)
  78 Al ( 0.000000,  0.000000, -0.022085)
  79 Co ( 0.000000,  0.000000,  1.163906)
  80 Cr ( 0.000000,  0.000000, -1.359411)
  81 Co ( 0.000000,  0.000000,  0.959929)
  82 Co ( 0.000000,  0.000000, -0.039958)
  83 Cr ( 0.000000,  0.000000, -1.211030)
  84 Ni ( 0.000000,  0.000000,  0.321240)
  85 Ni ( 0.000000,  0.000000,  0.257188)
  86 Co ( 0.000000,  0.000000,  1.195891)
  87 Co ( 0.000000,  0.000000,  1.605762)
  88 Co ( 0.000000,  0.000000,  1.332240)
  89 Co ( 0.000000,  0.000000,  1.430882)
  90 Ni ( 0.000000,  0.000000,  0.419274)
  91 Ni ( 0.000000,  0.000000,  0.465918)
  92 Ni ( 0.000000,  0.000000,  0.315851)
  93 Ni ( 0.000000,  0.000000,  0.102204)
  94 Co ( 0.000000,  0.000000,  1.172496)
  95 Cr ( 0.000000,  0.000000, -1.800967)
  96 Fe ( 0.000000,  0.000000,  2.224720)
  97 Ni ( 0.000000,  0.000000,  0.159472)
  98 Ni ( 0.000000,  0.000000,  0.383700)
  99 Fe ( 0.000000,  0.000000,  1.770497)
 100 Ni ( 0.000000,  0.000000,  0.385176)
 101 Cr ( 0.000000,  0.000000, -1.165828)
 102 Cr ( 0.000000,  0.000000, -1.074075)
 103 Cr ( 0.000000,  0.000000,  1.108684)
 104 Co ( 0.000000,  0.000000,  0.892955)
 105 Fe ( 0.000000,  0.000000,  1.577850)
 106 Cr ( 0.000000,  0.000000, -0.642909)
 107 Ni ( 0.000000,  0.000000,  0.145106)

Energy contributions relative to reference atoms: (reference = -3699400.456887)

Kinetic:       +158.608159
Potential:     -206.850546
External:        +0.000000
XC:            -857.884187
Entropy (-ST):   -4.586205
Local:          +37.915812
--------------------------
Free energy:   -872.796967
Extrapolated:  -870.503865

Spin contamination: 27.566646 electrons
Showing only first 2 kpts
                      Up                     Down
 Kpt  Band  Eigenvalues  Occupancy  Eigenvalues  Occupancy
  0   508      9.61729    0.99555     10.56465    0.01690
  0   509      9.62787    0.99506     10.58155    0.01431
  0   510      9.64259    0.99428     10.58945    0.01324
  0   511      9.65847    0.99330     10.59478    0.01256

  1   508      9.61466    0.99566     10.56132    0.01746
  1   509      9.63217    0.99484     10.57112    0.01586
  1   510      9.64308    0.99425     10.58694    0.01357
  1   511      9.65343    0.99362     10.59185    0.01293


Fermi level: 10.15832

No gap

Forces in eV/Ang:
  0 Cr    0.07015   -0.18001   -0.62390
  1 Al   -0.29135    0.23193    0.02962
  2 Cr    0.53878   -0.26108   -0.00587
  3 Co    0.32970   -0.06417    0.03386
  4 Fe   -0.16746    0.32107    0.09740
  5 Cr   -0.40203    0.09276   -0.36806
  6 Ni   -0.04495    0.42767   -0.00418
  7 Fe    0.01468   -0.34057    0.27475
  8 Cr    0.30498    0.00776    0.00815
  9 Co    0.05785   -0.06801    0.01712
 10 Ni    0.05173    0.17499   -0.01556
 11 Fe   -0.18498   -0.34192    0.13246
 12 Co   -0.07556    0.19472   -0.14638
 13 Co   -0.04294   -0.08395   -0.03487
 14 Fe    0.29658   -0.07272    0.05026
 15 Fe   -0.33986    0.05378   -0.31358
 16 Fe    0.17130   -0.15116   -0.19114
 17 Fe    0.44763   -0.18780    0.52536
 18 Cr   -0.06520   -0.02474   -0.10666
 19 Co   -0.30159    0.00527    0.10092
 20 Fe   -0.08063    0.31424    0.05683
 21 Ni    0.02087    0.19366   -0.07668
 22 Co   -0.11118    0.00537    0.09448
 23 Cr    0.59500   -0.51893   -0.04360
 24 Cr   -0.12501    0.09833    0.16205
 25 Ni   -0.02270    0.26878   -0.11134
 26 Fe   -0.20887    0.09150    0.25179
 27 Ni   -0.13178    0.22243    0.10910
 28 Co    0.23593   -0.11266   -0.14460
 29 Co   -0.14652    0.28258   -0.02374
 30 Co    0.15494   -0.12662    0.09423
 31 Cr   -0.14881    0.14764    0.19928
 32 Al   -0.24732   -0.54225    0.42813
 33 Cr    0.00946    0.02359    0.55851
 34 Cr   -0.15900   -0.32010    0.00296
 35 Cr    0.25669    0.29418    0.04698
 36 Fe    0.14886   -0.03246    0.10936
 37 Co    0.04157    0.03577    0.14752
 38 Cr    0.15909   -0.08088   -0.15256
 39 Fe    0.37044   -0.06848    0.12256
 40 Co   -0.17102    0.13804   -0.10178
 41 Ni    0.09777    0.11839   -0.14244
 42 Ni    0.13552   -0.00975    0.03985
 43 Al    0.19768   -0.41020    0.14173
 44 Fe    0.19459    0.14700   -0.29351
 45 Co   -0.03461    0.02906    0.02566
 46 Fe   -0.07915    0.15598    0.21755
 47 Ni   -0.06003    0.00388   -0.13234
 48 Fe    0.01502    0.01281    0.15404
 49 Fe   -0.03248   -0.13372    0.23474
 50 Ni    0.10192   -0.04916    0.08578
 51 Ni    0.37390   -0.09191   -0.10245
 52 Cr   -0.38647    0.09347   -0.19861
 53 Co   -0.03801   -0.21119   -0.26896
 54 Fe   -0.14673   -0.15790   -0.02047
 55 Cr   -0.15056   -0.07458   -0.16405
 56 Co   -0.07374    0.07514   -0.03955
 57 Fe   -0.02922    0.19282    0.15020
 58 Ni    0.01627   -0.18223    0.10134
 59 Fe   -0.08289   -0.00307   -0.31761
 60 Cr   -0.26985   -0.06870   -0.24804
 61 Ni   -0.07500    0.13956    0.03400
 62 Fe    0.20559    0.11159   -0.19167
 63 Ni   -0.01151    0.08086    0.03514
 64 Co    0.31335   -0.25325    0.01479
 65 Co   -0.03857    0.17662    0.17859
 66 Ni    0.10150    0.15580    0.14607
 67 Fe   -0.41585   -0.10403   -0.19330
 68 Ni    0.03775   -0.00676   -0.07709
 69 Al    0.32193   -0.72729   -0.22052
 70 Ni   -0.24887    0.05458   -0.12658
 71 Fe    0.24617    0.26564   -0.11045
 72 Cr    0.07601    0.04525    0.29686
 73 Fe    0.15571    0.13459   -0.12428
 74 Fe    0.00265   -0.08928    0.26825
 75 Cr   -0.27429   -0.01768   -0.16190
 76 Cr   -0.08801    0.26070   -0.25982
 77 Cr   -0.46584    0.40568    0.22679
 78 Al    0.13985    0.24557   -0.07362
 79 Co   -0.03451   -0.30549    0.15840
 80 Cr    0.09430    0.12029    0.11986
 81 Co    0.08227   -0.14519   -0.27375
 82 Co   -0.12304    0.09388   -0.16173
 83 Cr    0.28128    0.28199   -0.05173
 84 Ni   -0.20810   -0.28664    0.03091
 85 Ni   -0.25578   -0.12817    0.14118
 86 Co    0.08479   -0.32245   -0.04416
 87 Co    0.08575   -0.18187    0.00449
 88 Co   -0.10221   -0.15658    0.07940
 89 Co    0.09630    0.00669    0.05812
 90 Ni   -0.13016   -0.11160    0.02085
 91 Ni    0.06365    0.21813   -0.08733
 92 Ni    0.29688   -0.20691   -0.03436
 93 Ni    0.20058    0.39006    0.34171
 94 Co    0.08025   -0.06813   -0.16426
 95 Cr   -0.16321   -0.20034    0.11149
 96 Fe   -0.16809   -0.03016    0.10745
 97 Ni    0.18927    0.07276    0.03605
 98 Ni    0.12992   -0.10729   -0.00925
 99 Fe    0.33488    0.42664    0.12462
100 Ni    0.13233    0.10806    0.11704
101 Cr   -0.64179   -0.00016   -0.01085
102 Cr   -0.04991    0.03695   -0.59109
103 Cr   -0.44594   -0.01990    0.18767
104 Co   -0.23616   -0.09902    0.25744
105 Fe    0.07322   -0.03356   -0.19360
106 Cr   -0.01510    0.05283   -0.29658
107 Ni   -0.19299    0.23270   -0.05671

Timing:                              incl.     excl.
-----------------------------------------------------------
Forces:                             17.734    17.734   0.2% |
Hamiltonian:                         1.116     0.004   0.0% |
 Atomic:                             0.214     0.127   0.0% |
  XC Correction:                     0.087     0.087   0.0% |
 Calculate atomic Hamiltonians:      0.798     0.798   0.0% |
 Communicate:                        0.005     0.005   0.0% |
 Initialize Hamiltonian:             0.000     0.000   0.0% |
 Poisson:                            0.000     0.000   0.0% |
 XC 3D grid:                         0.095     0.095   0.0% |
LCAO initialization:                81.586     1.021   0.0% |
 LCAO eigensolver:                   9.672     0.029   0.0% |
  Calculate projections:             0.181     0.181   0.0% |
  DenseAtomicCorrection:             0.191     0.191   0.0% |
  Distribute overlap matrix:         0.489     0.489   0.0% |
  Orbital Layouts:                   4.319     4.319   0.0% |
  Potential matrix:                  2.500     2.500   0.0% |
  Sum over cells:                    1.964     1.964   0.0% |
 LCAO to grid:                      68.864    68.864   0.8% |
 Set positions (LCAO WFS):           2.029     1.268   0.0% |
  Basic WFS set positions:           0.003     0.003   0.0% |
  Basis functions set positions:     0.001     0.001   0.0% |
  P tci:                             0.199     0.199   0.0% |
  ST tci:                            0.208     0.208   0.0% |
  mktci:                             0.350     0.350   0.0% |
PWDescriptor:                        0.077     0.077   0.0% |
SCF-cycle:                        8588.270    96.077   1.1% |
 Davidson:                        8232.609  1780.219  20.5% |-------|
  Apply H:                          58.207    54.513   0.6% |
   HMM T:                            3.694     3.694   0.0% |
  Subspace diag:                   607.734     0.126   0.0% |
   calc_h_matrix:                  229.052   164.473   1.9% ||
    Apply H:                        64.579    61.940   0.7% |
     HMM T:                          2.639     2.639   0.0% |
   diagonalize:                    100.285   100.285   1.2% |
   rotate_psi:                     278.271   278.271   3.2% ||
  calc. matrices:                 1284.222  1164.163  13.4% |----|
   Apply H:                        120.059   113.142   1.3% ||
    HMM T:                           6.917     6.917   0.1% |
  diagonalize:                    3930.406  3930.406  45.2% |-----------------|
  rotate_psi:                      571.821   571.821   6.6% |--|
 Density:                          126.416     0.006   0.0% |
  Atomic density matrices:           1.862     1.862   0.0% |
  Mix:                              96.691    96.691   1.1% |
  Multipole moments:                 0.054     0.054   0.0% |
  Pseudo density:                   27.804    27.794   0.3% |
   Symmetrize density:               0.010     0.010   0.0% |
 Hamiltonian:                      126.600     1.351   0.0% |
  Atomic:                           23.368    13.724   0.2% |
   XC Correction:                    9.644     9.644   0.1% |
  Calculate atomic Hamiltonians:    87.008    87.008   1.0% |
  Communicate:                       1.695     1.695   0.0% |
  Poisson:                           0.075     0.075   0.0% |
  XC 3D grid:                       13.103    13.103   0.2% |
 Orthonormalize:                     6.567     0.001   0.0% |
  calc_s_matrix:                     0.821     0.821   0.0% |
  inverse-cholesky:                  0.467     0.467   0.0% |
  projections:                       4.008     4.008   0.0% |
  rotate_psi_s:                      1.270     1.270   0.0% |
Set symmetry:                        0.001     0.001   0.0% |
Other:                               4.730     4.730   0.1% |
-----------------------------------------------------------
Total:                                      8693.516 100.0%

Date: Sat Apr  8 11:41:55 2023
