
  ___ ___ ___ _ _ _  
 |   |   |_  | | | | 
 | | | | | . | | | | 
 |__ |  _|___|_____|  22.8.0
 |___|_|             

User:   c.zeng@d0111
Date:   Mon Apr 17 10:56:30 2023
Arch:   x86_64
Pid:    30627
CWD:    /home/c.zeng/projects/hea-corrosion/hea-mlp/data-curation/surface-md/dft-jobs/41
Python: 3.8.1
gpaw:   /home/c.zeng/usr/installs/gpaw/source/gpaw-22.8.0/gpaw
_gpaw:  /home/c.zeng/usr/installs/gpaw/source/gpaw-22.8.0/
        _gpaw.cpython-38-x86_64-linux-gnu.so
ase:    /home/c.zeng/.local/lib/python3.8/site-packages/ase-3.22.1-py3.8.egg/ase (version 3.22.1)
numpy:  /home/c.zeng/.local/lib/python3.8/site-packages/numpy (version 1.24.2)
scipy:  /home/c.zeng/.local/lib/python3.8/site-packages/scipy (version 1.10.1)
libxc:  4.2.3
units:  Angstrom and eV
cores: 30
OpenMP: False
OMP_NUM_THREADS: 1

Input parameters:
  convergence: {energy: 0.0001}
  kpts: [2 2 1]
  maxiter: 666
  mode: {ecut: 350.0,
         name: pw}
  occupations: {fixmagmom: False,
                name: fermi-dirac,
                width: 0.1}
  poissonsolver: {dipolelayer: xy}
  spinpol: True
  symmetry: {point_group: False}
  xc: PBE

System changes: positions, numbers, cell, pbc, initial_charges, initial_magmoms 

Initialize ...

species:
  Al:
    name: Aluminium
    id: 0292cae29f5d6237e50f6abdd43a7bdd
    Z: 13.0
    valence: 3
    core: 10
    charge: 0.0
    file: /home/c.zeng/usr/data/gpaw-setups-0.9.20000/Al.PBE.gz
    compensation charges: {type: gauss,
                           rc: 0.34,
                           lmax: 2}
    cutoffs: {filter: 1.91,
              core: 2.36}
    valence states:
      #              energy  rcut
      - 3s(2.00)    -7.753   1.085
      - 3p(1.00)    -2.712   1.085
      -  s          19.459   1.085
      -  p          24.499   1.085
      -  d           0.000   1.085
  
    # Using partial waves for Al as LCAO basis

  Ni:
    name: Nickel
    id: 0d9f38a9d6e76a2886f07bb4381f212b
    Z: 28.0
    valence: 16
    core: 12
    charge: 0.0
    file: /home/c.zeng/usr/data/gpaw-setups-0.9.20000/Ni.PBE.gz
    compensation charges: {type: gauss,
                           rc: 0.36,
                           lmax: 2}
    cutoffs: {filter: 2.14,
              core: 1.98}
    valence states:
      #              energy  rcut
      - 4s(2.00)    -5.642   1.164
      - 3p(6.00)   -71.394   1.207
      - 4p(0.00)    -1.226   1.207
      - 3d(8.00)    -8.875   1.138
      -  s          21.570   1.164
      -  d          18.337   1.138
  
    # Using partial waves for Ni as LCAO basis

  Fe:
    name: Iron
    id: 37abbd8d6c3c35915a9b583b742da910
    Z: 26.0
    valence: 8
    core: 18
    charge: 0.0
    file: /home/c.zeng/usr/data/gpaw-setups-0.9.20000/Fe.PBE.gz
    compensation charges: {type: gauss,
                           rc: 0.33,
                           lmax: 2}
    cutoffs: {filter: 2.06,
              core: 2.67}
    valence states:
      #              energy  rcut
      - 4s(2.00)    -5.291   1.164
      - 4p(0.00)    -1.326   1.058
      - 3d(6.00)    -7.505   1.058
      -  s          21.920   1.164
      -  p          25.885   1.058
      -  d          19.706   1.058
  
    # Using partial waves for Fe as LCAO basis

  Cr:
    name: Chromium
    id: 33f258bda2ca9f93018e70263a35547b
    Z: 24.0
    valence: 6
    core: 18
    charge: 0.0
    file: /home/c.zeng/usr/data/gpaw-setups-0.9.20000/Cr.PBE.gz
    compensation charges: {type: gauss,
                           rc: 0.35,
                           lmax: 2}
    cutoffs: {filter: 2.14,
              core: 3.04}
    valence states:
      #              energy  rcut
      - 4s(1.00)    -4.007   1.164
      - 4p(0.00)    -0.989   1.217
      - 3d(5.00)    -2.913   1.111
      -  s          23.205   1.164
      -  p          26.223   1.217
      -  d          24.299   1.111
  
    # Using partial waves for Cr as LCAO basis

  Co:
    name: Cobalt
    id: 339d20d5b0b93d2de9531a1bee871d91
    Z: 27.0
    valence: 9
    core: 18
    charge: 0.0
    file: /home/c.zeng/usr/data/gpaw-setups-0.9.20000/Co.PBE.gz
    compensation charges: {type: gauss,
                           rc: 0.32,
                           lmax: 2}
    cutoffs: {filter: 1.87,
              core: 2.55}
    valence states:
      #              energy  rcut
      - 4s(2.00)    -5.469   1.005
      - 4p(0.00)    -1.277   1.058
      - 3d(7.00)    -8.205   1.005
      -  s          21.742   1.005
      -  p          25.934   1.058
      -  d          19.007   1.005
  
    # Using partial waves for Co as LCAO basis

Reference energy: -4103091.665053  # eV

Spin-polarized calculation.
Magnetic moment: 158.800000

Convergence criteria:
 Maximum [total energy] change in last 3 cyles: 0.0001 eV / electron
 Maximum integral of absolute [dens]ity change: 0.0001 electrons / valence electron
 Maximum integral of absolute [eigenst]ate change: 4e-08 eV^2 / valence electron
 Maximum number of scf [iter]ations: 666
 (Square brackets indicate name in SCF output, whereas a 'c' in
 the SCF output indicates the quantity has converged.)

Symmetries present (total): 1

  ( 1  0  0)
  ( 0  1  0)
  ( 0  0  1)

4 k-points: 2 x 2 x 1 Monkhorst-Pack grid
2 k-points in the irreducible part of the Brillouin zone
       k-points in crystal coordinates                weights
   0:     0.25000000   -0.25000000    0.00000000          2/4
   1:     0.25000000    0.25000000    0.00000000          2/4

Wave functions: Plane wave expansion
  Cutoff energy: 350.000 eV
  Number of coefficients (min, max): 59263, 59339
  Pulay-stress correction: 0.000000 eV/Ang^3 (de/decut=0.000000)
  Using FFTW library
  ScaLapack parameters: grid=1x1, blocksize=None
  Wavefunction extrapolation:
    Improved wavefunction reuse through dual PAW basis 

Occupation numbers: Fermi-Dirac:
  width: 0.1000  # eV
 

Eigensolver
   Davidson(niter=2) 

Densities:
  Coarse grid: 56*56*128 grid
  Fine grid: 112*112*256 grid
  Total Charge: 0.000000 

Density mixing:
  Method: difference
  Backend: pulay
  Linear mixing parameter: 0.05
  old densities: 5
  Damping of long wavelength oscillations: 50 

Hamiltonian:
  XC and Coulomb potentials evaluated on a 112*112*256 grid
  Using the PBE Exchange-Correlation functional
  External potential:
    NoExternalPotential
 

XC parameters: PBE with 2 nearest neighbor stencil

Memory estimate:
  Process memory now: 368.06 MiB
  Calculator: 2263.81 MiB
    Density: 18.78 MiB
      Arrays: 7.39 MiB
      Localized functions: 8.44 MiB
      Mixer: 2.95 MiB
    Hamiltonian: 5.74 MiB
      Arrays: 5.49 MiB
      XC: 0.00 MiB
      Poisson: 0.00 MiB
      vbar: 0.26 MiB
    Wavefunctions: 2239.28 MiB
      Arrays psit_nG: 1414.30 MiB
      Eigensolver: 804.77 MiB
      Projections: 3.48 MiB
      Projectors: 1.15 MiB
      PW-descriptor: 15.58 MiB

Total number of cores used: 30
Parallelization over k-points: 2
Domain decomposition: 1 x 3 x 5

Number of atoms: 125
Number of atomic orbitals: 1149
Number of bands in calculation: 781
Number of valence electrons: 1136
Bands to converge: occupied

... initialized

Initializing position-dependent things.

Density initialized from atomic densities
Creating initial wave functions:
  781 bands from LCAO basis set

                                                                  
                                                                  
                                                                  
                                                                  
                                                                  
                                     Ni        Co     Ni          
                         Fe    Co          Cr    Co               
                           Ni    Ni    Co    Cr   CFe             
                Fe    Cr    Cr  Ni    NiAl   Fe         Ni        
                            Co    CFe    Co   Ni    Fe            
            Fe    Fe   AlCo  CrAl   CFe  Co    Ni                 
        Co    Co   Cr        CoFe  CrNi  Al          Al           
                   Cr    Ni   Fe Cr Co     Co   CCo   Fe          
               Fe    Cr   CCo  NCo    CFe    Cr                   
                    CrNi    Cr       Fe     Co   Al               
                Ni       AlCo   FFNi   NFe   Co    Ni   Cr        
            Co    Ni   Cr    CCo   NNiCo    AlFe  Ni              
                  Cr   Al    Co   Al    Fe    Fe    Ni            
                        CCr  CAl    Fe    Fe    Ni                
       Fe     Fe   FFe                     Cr                     
                     Fe  Co    Fe    Ni                           
               Ni          Cr    Ni    Al                         
                                                                  
                                                                  
                                                                  
                                                                  
                                                                  

Positions:
   0 Al    12.601974    1.518290   10.106940    ( 0.0000,  0.0000,  0.0000)
   1 Ni     2.638027    1.489350   10.520269    ( 0.0000,  0.0000,  1.5000)
   2 Fe     4.984582    1.694589   10.556698    ( 0.0000,  0.0000,  2.0000)
   3 Cr     7.610475    1.533401   10.492467    ( 0.0000,  0.0000,  0.0000)
   4 Ni    10.072193    1.620114   10.209177    ( 0.0000,  0.0000,  1.5000)
   5 Cr    13.692084    3.731511   10.407284    ( 0.0000,  0.0000,  0.0000)
   6 Fe     3.540577    4.063045   10.705685    ( 0.0000,  0.0000,  2.0000)
   7 Co     6.116952    3.769486   10.026803    ( 0.0000,  0.0000,  2.1000)
   8 Fe     8.550697    3.618005   10.354779    ( 0.0000,  0.0000,  2.0000)
   9 Ni    11.164339    3.753970   10.251516    ( 0.0000,  0.0000,  1.5000)
  10 Ni    15.092613    5.932030   10.251107    ( 0.0000,  0.0000,  1.5000)
  11 Cr     5.050892    6.300432   10.347660    ( 0.0000,  0.0000,  0.0000)
  12 Co     7.284576    5.744559   10.563957    ( 0.0000,  0.0000,  2.1000)
  13 Cr    10.063356    5.810439   10.762455    ( 0.0000,  0.0000,  0.0000)
  14 Cr    12.704065    5.891578   10.348629    ( 0.0000,  0.0000,  0.0000)
  15 Ni    16.198567    8.160392   10.338878    ( 0.0000,  0.0000,  1.5000)
  16 Co     6.577460    8.071233   10.413299    ( 0.0000,  0.0000,  2.1000)
  17 Al     8.997755    7.790388   10.152104    ( 0.0000,  0.0000,  0.0000)
  18 Co    11.476550    7.881848   10.528270    ( 0.0000,  0.0000,  2.1000)
  19 Fe    13.802662    7.864275   10.460894    ( 0.0000,  0.0000,  2.0000)
  20 Cr    17.427891   10.473006   10.603518    ( 0.0000,  0.0000,  0.0000)
  21 Fe     7.655826   10.263887   10.731619    ( 0.0000,  0.0000,  2.0000)
  22 Co    10.095800   10.228848   10.182645    ( 0.0000,  0.0000,  2.1000)
  23 Al    12.538033   10.413568   10.330291    ( 0.0000,  0.0000,  0.0000)
  24 Ni    15.036774   10.201363   10.262801    ( 0.0000,  0.0000,  1.5000)
  25 Fe    -0.200896   -0.125792   12.532749    ( 0.0000,  0.0000,  2.0000)
  26 Fe     2.540521    0.159041   12.697459    ( 0.0000,  0.0000,  2.0000)
  27 Fe     5.165240   -0.221023   12.376977    ( 0.0000,  0.0000,  2.0000)
  28 Cr    13.799876   10.773359   12.776410    ( 0.0000,  0.0000,  0.0000)
  29 Fe    16.255148   10.801135   12.671746    ( 0.0000,  0.0000,  2.0000)
  30 Fe    13.417055    1.880329   12.499995    ( 0.0000,  0.0000,  2.0000)
  31 Cr     3.719175    2.498481   12.567924    ( 0.0000,  0.0000,  0.0000)
  32 Cr     6.501813    2.244915   12.209725    ( 0.0000,  0.0000,  0.0000)
  33 Al     8.737207    2.196430   12.615593    ( 0.0000,  0.0000,  0.0000)
  34 Fe    11.115168    2.263203   12.546912    ( 0.0000,  0.0000,  2.0000)
  35 Fe    14.689370    4.262247   12.718204    ( 0.0000,  0.0000,  2.0000)
  36 Al     5.251700    4.330448   12.431848    ( 0.0000,  0.0000,  0.0000)
  37 Cr     7.782088    4.341179   12.598096    ( 0.0000,  0.0000,  0.0000)
  38 Ni    10.023497    4.282631   12.622156    ( 0.0000,  0.0000,  1.5000)
  39 Fe    12.312471    4.138843   12.467387    ( 0.0000,  0.0000,  2.0000)
  40 Ni    16.151452    6.212098   12.403447    ( 0.0000,  0.0000,  1.5000)
  41 Co     6.380536    6.644037   12.627444    ( 0.0000,  0.0000,  2.1000)
  42 Fe     8.798437    6.579419   12.584507    ( 0.0000,  0.0000,  2.0000)
  43 Ni    11.306008    6.555721   12.735278    ( 0.0000,  0.0000,  1.5000)
  44 Co    13.689987    6.317182   12.628975    ( 0.0000,  0.0000,  2.1000)
  45 Al     5.103022    8.438706   12.117395    ( 0.0000,  0.0000,  0.0000)
  46 Ni     7.555365    8.717302   12.837628    ( 0.0000,  0.0000,  1.5000)
  47 Fe     9.879452    8.875477   12.337942    ( 0.0000,  0.0000,  2.0000)
  48 Co    12.717809    8.624629   12.432228    ( 0.0000,  0.0000,  2.1000)
  49 Al    14.994565    8.629540   12.473366    ( 0.0000,  0.0000,  0.0000)
  50 Co     1.395545    0.842140   14.707081    ( 0.0000,  0.0000,  2.1000)
  51 Ni     3.883062    0.673083   14.666186    ( 0.0000,  0.0000,  1.5000)
  52 Cr     6.215498    1.011284   14.402706    ( 0.0000,  0.0000,  0.0000)
  53 Co     8.840451    0.597816   14.990757    ( 0.0000,  0.0000,  2.1000)
  54 Ni    11.425145    0.751043   14.552501    ( 0.0000,  0.0000,  1.5000)
  55 Ni     2.640611    2.863245   14.588550    ( 0.0000,  0.0000,  1.5000)
  56 Ni     4.921940    3.213568   14.667442    ( 0.0000,  0.0000,  1.5000)
  57 Cr     7.454627    3.050266   14.774807    ( 0.0000,  0.0000,  0.0000)
  58 Ni    10.000749    2.652258   14.845561    ( 0.0000,  0.0000,  1.5000)
  59 Fe    12.615915    2.792039   14.683455    ( 0.0000,  0.0000,  2.0000)
  60 Cr     3.678243    5.194230   14.443898    ( 0.0000,  0.0000,  0.0000)
  61 Cr     6.439588    5.163797   14.620406    ( 0.0000,  0.0000,  0.0000)
  62 Co     8.744699    5.237861   14.711343    ( 0.0000,  0.0000,  2.1000)
  63 Cr    11.128267    4.748056   14.681791    ( 0.0000,  0.0000,  0.0000)
  64 Cr    13.990513    5.152228   14.773989    ( 0.0000,  0.0000,  0.0000)
  65 Ni     5.204164    7.094409   14.665354    ( 0.0000,  0.0000,  1.5000)
  66 Fe     7.520044    7.289530   14.758881    ( 0.0000,  0.0000,  2.0000)
  67 Co    10.000644    7.316726   14.627073    ( 0.0000,  0.0000,  2.1000)
  68 Ni    12.665908    7.002614   14.834615    ( 0.0000,  0.0000,  1.5000)
  69 Co    15.277983    7.234425   14.955158    ( 0.0000,  0.0000,  2.1000)
  70 Co     6.250706    9.514377   14.779476    ( 0.0000,  0.0000,  2.1000)
  71 Cr     8.733552    9.367957   14.765118    ( 0.0000,  0.0000,  0.0000)
  72 Al    11.435217    9.172680   14.705697    ( 0.0000,  0.0000,  0.0000)
  73 Cr    14.000500    9.325850   14.967654    ( 0.0000,  0.0000,  0.0000)
  74 Al    16.303710    9.328144   14.708185    ( 0.0000,  0.0000,  0.0000)
  75 Fe    12.570074    1.327007   16.876827    ( 0.0000,  0.0000,  2.0000)
  76 Fe     2.588465    1.395030   16.737265    ( 0.0000,  0.0000,  2.0000)
  77 Cr     5.218238    1.425466   16.818010    ( 0.0000,  0.0000,  0.0000)
  78 Co     7.693604    1.480006   16.857958    ( 0.0000,  0.0000,  2.1000)
  79 Cr    10.087236    1.710484   16.893347    ( 0.0000,  0.0000,  0.0000)
  80 Co    13.653103    3.615534   16.612749    ( 0.0000,  0.0000,  2.1000)
  81 Cr     3.789150    3.657101   16.803862    ( 0.0000,  0.0000,  0.0000)
  82 Ni     6.282064    3.652146   16.733185    ( 0.0000,  0.0000,  1.5000)
  83 Fe     8.530760    3.779469   16.719402    ( 0.0000,  0.0000,  2.0000)
  84 Ni    11.321545    3.645866   16.833863    ( 0.0000,  0.0000,  1.5000)
  85 Ni    14.941317    5.580396   16.970109    ( 0.0000,  0.0000,  1.5000)
  86 Al     4.951871    5.731603   16.777335    ( 0.0000,  0.0000,  0.0000)
  87 Cr     7.282933    5.831102   16.728742    ( 0.0000,  0.0000,  0.0000)
  88 Cr    10.000199    5.933950   16.807341    ( 0.0000,  0.0000,  0.0000)
  89 Co    12.478089    5.667304   16.916968    ( 0.0000,  0.0000,  2.1000)
  90 Fe    16.372583    7.945861   16.920869    ( 0.0000,  0.0000,  2.0000)
  91 Co     6.236920    7.998967   16.904066    ( 0.0000,  0.0000,  2.1000)
  92 Co     8.786358    8.001767   16.677254    ( 0.0000,  0.0000,  2.1000)
  93 Al    11.084531    8.037302   17.226544    ( 0.0000,  0.0000,  0.0000)
  94 Ni    13.793279    7.834603   17.029125    ( 0.0000,  0.0000,  1.5000)
  95 Ni    17.532956    9.969216   16.940376    ( 0.0000,  0.0000,  1.5000)
  96 Ni     7.551066   10.152331   16.835672    ( 0.0000,  0.0000,  1.5000)
  97 Ni    10.076614   10.166979   16.415371    ( 0.0000,  0.0000,  1.5000)
  98 Fe    12.637033   10.225052   16.581157    ( 0.0000,  0.0000,  2.0000)
  99 Co    15.050688   10.057699   17.024401    ( 0.0000,  0.0000,  2.1000)
 100 Co     0.107742   -0.232125   19.044439    ( 0.0000,  0.0000,  2.1000)
 101 Co     2.649260   -0.010212   18.817365    ( 0.0000,  0.0000,  2.1000)
 102 Cr     4.893490   -0.224023   18.527905    ( 0.0000,  0.0000,  0.0000)
 103 Co    13.620203   10.901040   18.881093    ( 0.0000,  0.0000,  2.1000)
 104 Ni    16.475273   10.616831   18.944139    ( 0.0000,  0.0000,  1.5000)
 105 Fe     1.337107    1.899779   18.731063    ( 0.0000,  0.0000,  2.0000)
 106 Fe     3.892120    1.913975   18.982595    ( 0.0000,  0.0000,  2.0000)
 107 Co     6.441380    2.269036   18.795534    ( 0.0000,  0.0000,  2.1000)
 108 Al     8.875256    2.031275   19.117235    ( 0.0000,  0.0000,  0.0000)
 109 Fe    11.488718    2.144371   18.785283    ( 0.0000,  0.0000,  2.0000)
 110 Fe     2.395136    4.249420   19.045126    ( 0.0000,  0.0000,  2.0000)
 111 Cr     4.827688    4.370851   18.836678    ( 0.0000,  0.0000,  0.0000)
 112 Cr     7.299722    4.436650   18.953657    ( 0.0000,  0.0000,  0.0000)
 113 Fe     9.984551    4.346938   18.762169    ( 0.0000,  0.0000,  2.0000)
 114 Co    12.518915    4.183688   18.871210    ( 0.0000,  0.0000,  2.1000)
 115 Fe    16.247077    6.406463   18.827581    ( 0.0000,  0.0000,  2.0000)
 116 Ni     6.214665    6.442550   18.795774    ( 0.0000,  0.0000,  1.5000)
 117 Ni     8.633154    6.470077   18.760609    ( 0.0000,  0.0000,  1.5000)
 118 Co    11.300943    6.495376   18.987016    ( 0.0000,  0.0000,  2.1000)
 119 Cr    13.573809    6.591878   19.265445    ( 0.0000,  0.0000,  0.0000)
 120 Fe     5.056682    8.457212   18.919852    ( 0.0000,  0.0000,  2.0000)
 121 Co     7.545930    8.592828   18.680341    ( 0.0000,  0.0000,  2.1000)
 122 Ni     9.970760    8.552737   19.533194    ( 0.0000,  0.0000,  1.5000)
 123 Cr    12.475346    8.634086   19.065603    ( 0.0000,  0.0000,  0.0000)
 124 Co    15.050827    8.529267   19.012208    ( 0.0000,  0.0000,  2.1000)

Unit cell:
           periodic     x           y           z      points  spacing
  1. axis:    yes   12.530300    0.000000    0.000000    56     0.1938
  2. axis:    yes    6.259130   10.841100    0.000000    56     0.1936
  3. axis:    no     0.000000    0.000000   29.353100   128     0.2293

  Lengths:  12.530300  12.518233  29.353100
  Angles:   90.000000  90.000000  59.999929

Effective grid spacing dv^(1/3) = 0.2150

     iter     time        total  log10-change:  magmom
                         energy  eigst   dens
iter:   1 11:06:26 -1166.694068                  +159.1295
iter:   2 11:09:53 -1509.157464  +0.12  -1.11    +89.4883
iter:   3 11:13:20 -2928.124570  +1.17  -0.86    +59.5970
iter:   4 11:16:46 -1035.239131  +0.29  -0.59    +31.5267
iter:   5 11:20:13  -994.102403  -0.26  -1.19    +26.4433
iter:   6 11:23:37  -981.737346  -0.87  -1.22    +25.0048
iter:   7 11:27:04  -966.497647  -1.30  -1.25    +25.9838
iter:   8 11:30:31  -961.704204  -1.17  -1.28    +26.5796
iter:   9 11:33:57 -1542.731712  -0.53  -1.28    +28.9502
iter:  10 11:37:23  -956.720538  -0.91  -0.86    +26.3841
iter:  11 11:40:49  -963.743640  -1.51  -1.34    +26.7837
iter:  12 11:44:15  -949.386476  -1.25  -1.31    +28.9008
iter:  13 11:47:41  -958.527519  -1.56  -1.45    +29.4826
iter:  14 11:51:07  -948.878203  -1.44  -1.39    +30.3858
iter:  15 11:54:33  -930.268720  -1.56  -1.47    +30.4256
iter:  16 11:57:58  -934.397322  -1.88  -1.61    +32.8249
iter:  17 12:01:23  -927.896206  -2.06  -1.57    +35.2239
iter:  18 12:04:49  -926.737595  -2.45  -1.66    +39.0993
iter:  19 12:08:15  -965.418188  -1.96  -1.72    +43.1035
iter:  20 12:11:41  -927.423219  -2.32  -1.37    +43.6204
iter:  21 12:15:07  -926.132461  -2.66  -1.72    +46.8351
iter:  22 12:18:33  -927.970281  -2.74  -1.79    +50.3788
iter:  23 12:22:00  -929.564420  -2.42  -1.76    +53.3361
iter:  24 12:25:26  -933.587160  -2.39  -1.78    +55.7106
iter:  25 12:28:51  -930.640556  -2.53  -1.68    +58.7238
iter:  26 12:32:17  -931.154546  -2.25  -1.79    +59.9344
iter:  27 12:35:43  -935.730299  -2.39  -1.82    +61.3545
iter:  28 12:39:09  -930.157364  -2.43  -1.71    +63.2720
iter:  29 12:42:36  -931.178424  -2.74  -1.87    +65.0575
iter:  30 12:46:02  -938.459273  -2.23  -1.88    +66.3265
iter:  31 12:49:28  -930.711513  -2.58  -1.70    +66.5239
iter:  32 12:52:55  -930.830758  -2.90  -1.94    +68.2228
iter:  33 12:56:23  -935.853756  -2.39  -2.03    +69.3740
iter:  34 12:59:49  -935.615889  -2.37  -1.82    +69.2160
iter:  35 13:03:15  -931.020432  -2.70  -1.83    +69.4893
iter:  36 13:06:40  -932.419713  -2.84  -2.19    +70.3138
iter:  37 13:10:06  -933.246438  -2.60  -2.05    +70.1717
iter:  38 13:13:33  -930.885323  -3.08  -2.00    +69.9886
iter:  39 13:17:00  -931.235975  -3.26  -2.31    +70.8909
iter:  40 13:20:27  -931.576947  -3.34  -2.29    +71.4461
iter:  41 13:23:54  -931.202610  -4.14  -2.24    +71.4437
iter:  42 13:27:20  -931.377144  -3.64  -2.35    +71.7844
iter:  43 13:30:47  -931.790979  -3.39  -2.37    +71.5315
iter:  44 13:34:14  -932.057193  -3.47  -2.32    +71.8195
iter:  45 13:37:41  -933.572931  -2.88  -2.28    +72.0556
iter:  46 13:41:08  -931.811060  -3.09  -2.06    +72.0336
iter:  47 13:44:35  -932.308503  -3.18  -2.44    +72.2739
iter:  48 13:48:02  -931.713863  -3.59  -2.29    +72.2108
iter:  49 13:51:29  -931.971153  -3.36  -2.60    +72.8538
iter:  50 13:54:54  -931.741089  -3.64  -2.44    +72.6372
iter:  51 13:58:20  -932.173524  -3.76  -2.63    +72.4533
iter:  52 14:01:47  -931.769189  -3.87  -2.39    +72.5168
iter:  53 14:05:13  -931.987591  -3.56  -2.69    +72.5825
iter:  54 14:08:40  -931.750568  -4.09  -2.47    +72.6421
iter:  55 14:12:06  -931.771794  -4.27  -2.79    +72.5859
iter:  56 14:15:33  -931.814597c -4.07  -2.82    +72.7113
iter:  57 14:19:00  -931.854908c -4.14  -2.74    +72.7749
iter:  58 14:22:26  -931.778255c -4.37  -2.65    +72.7681
iter:  59 14:25:53  -931.872903c -4.14  -2.90    +72.7759
iter:  60 14:29:19  -931.787925c -4.30  -2.69    +72.7495
iter:  61 14:32:46  -931.780201c -4.76  -2.88    +72.8110
iter:  62 14:36:12  -931.815629c -4.36  -2.95    +72.7583
iter:  63 14:39:39  -931.866388c -4.32  -2.87    +72.7960
iter:  64 14:43:05  -931.787712c -4.65  -2.74    +72.8391
iter:  65 14:46:33  -931.817339c -4.59  -3.00    +72.8488
iter:  66 14:49:59  -931.821321c -4.41  -2.88    +72.8565
iter:  67 14:53:26  -931.802627c -4.92  -2.88    +72.8075
iter:  68 14:56:53  -931.817874c -4.66  -3.00    +72.8330
iter:  69 15:00:20  -931.842088c -4.35  -2.94    +72.7921
iter:  70 15:03:48  -931.807555c -4.57  -2.82    +72.7330
iter:  71 15:07:14  -931.823050c -4.89  -3.02    +72.7445
iter:  72 15:10:41  -931.822199c -4.38  -2.95    +72.7127
iter:  73 15:14:08  -931.797991c -4.62  -2.95    +72.7460
iter:  74 15:17:36  -931.796018c -4.96  -3.12    +72.6759
iter:  75 15:21:03  -931.852137c -4.57  -3.25    +72.7020
iter:  76 15:24:30  -931.804244c -4.60  -2.85    +72.6994
iter:  77 15:27:57  -931.797370c -5.08  -3.13    +72.6408
iter:  78 15:31:22  -931.799021c -5.07  -3.24    +72.6517
iter:  79 15:34:47  -931.797424c -5.14  -3.28    +72.6183
iter:  80 15:38:14  -931.795112c -5.70  -3.34    +72.6362
iter:  81 15:41:41  -931.803611c -5.21  -3.45    +72.6228
iter:  82 15:45:07  -931.798846c -5.29  -3.18    +72.6288
iter:  83 15:48:34  -931.797594c -5.47  -3.42    +72.6515
iter:  84 15:52:01  -931.796749c -5.66  -3.45    +72.6319
iter:  85 15:55:27  -931.798423c -5.40  -3.46    +72.6279
iter:  86 15:58:54  -931.796329c -5.51  -3.43    +72.5995
iter:  87 16:02:21  -931.801350c -5.70  -3.60    +72.5933
iter:  88 16:05:47  -931.797249c -5.87  -3.38    +72.6006
iter:  89 16:09:14  -931.799560c -5.44  -3.70    +72.5917
iter:  90 16:12:41  -931.803548c -5.48  -3.55    +72.5967
iter:  91 16:16:07  -931.797609c -5.73  -3.39    +72.5929
iter:  92 16:19:34  -931.797827c -6.13  -4.05c   +72.5768
iter:  93 16:23:02  -931.798153c -6.27  -4.02c   +72.5709
iter:  94 16:26:28  -931.798530c -6.50  -3.88    +72.5685
iter:  95 16:29:56  -931.798520c -6.61  -4.09c   +72.5620
iter:  96 16:33:22  -931.798710c -6.70  -4.15c   +72.5452
iter:  97 16:36:47  -931.799066c -6.53  -4.22c   +72.5286
iter:  98 16:40:14  -931.800929c -5.41  -4.18c   +72.4527
iter:  99 16:43:40  -931.801833c -5.48  -4.04c   +72.4022
iter: 100 16:47:06  -931.803480c -5.66  -4.00    +72.3675
iter: 101 16:50:32  -931.802273c -6.39  -3.57    +72.3904
iter: 102 16:53:59  -931.802353c -6.65  -3.85    +72.3995
iter: 103 16:57:26  -931.802227c -6.34  -3.86    +72.3945
iter: 104 17:00:53  -931.802698c -5.97  -3.87    +72.3948
iter: 105 17:04:20  -931.803510c -5.86  -3.88    +72.3978
iter: 106 17:07:47  -931.803686c -6.27  -3.69    +72.3778
iter: 107 17:11:13  -931.804561c -5.74  -3.76    +72.3680
iter: 108 17:14:40  -931.802242c -6.41  -3.47    +72.3694
iter: 109 17:18:08  -931.802543c -6.71  -4.02c   +72.3624
iter: 110 17:21:34  -931.802532c -6.95  -4.12c   +72.3535
iter: 111 17:25:02  -931.802665c -6.94  -4.16c   +72.3479
iter: 112 17:28:29  -931.802610c -7.19  -4.02c   +72.3470
iter: 113 17:31:55  -931.808039c -5.88  -4.15c   +72.3388
iter: 114 17:35:21  -931.802669c -6.17  -3.44    +72.3386
iter: 115 17:38:46  -931.802841c -6.64  -4.17c   +72.3361
iter: 116 17:42:13  -931.802931c -6.83  -4.08c   +72.3349
iter: 117 17:45:40  -931.803009c -6.71  -4.17c   +72.3328
iter: 118 17:49:07  -931.802908c -6.84  -4.20c   +72.3290
iter: 119 17:52:34  -931.803160c -7.03  -4.22c   +72.3301
iter: 120 17:56:01  -931.802940c -7.17  -4.46c   +72.3300
iter: 121 17:59:27  -931.803088c -7.49c -4.16c   +72.3276

Converged after 121 iterations.

Dipole moment: (72.155892, 89.985698, -0.027399) |e|*Ang

Total magnetic moment: (0.000000, 0.000000, 72.327573)
Local magnetic moments:
   0 Al ( 0.000000,  0.000000, -0.021361)
   1 Ni ( 0.000000,  0.000000,  0.361861)
   2 Fe ( 0.000000,  0.000000,  2.169313)
   3 Cr ( 0.000000,  0.000000, -0.877496)
   4 Ni ( 0.000000,  0.000000,  0.046322)
   5 Cr ( 0.000000,  0.000000, -2.496022)
   6 Fe ( 0.000000,  0.000000,  2.241320)
   7 Co ( 0.000000,  0.000000,  1.647175)
   8 Fe ( 0.000000,  0.000000,  2.411912)
   9 Ni ( 0.000000,  0.000000,  0.035910)
  10 Ni ( 0.000000,  0.000000,  0.337679)
  11 Cr ( 0.000000,  0.000000, -2.520086)
  12 Co ( 0.000000,  0.000000,  1.164748)
  13 Cr ( 0.000000,  0.000000, -2.198243)
  14 Cr ( 0.000000,  0.000000, -2.236030)
  15 Ni ( 0.000000,  0.000000,  0.031905)
  16 Co ( 0.000000,  0.000000,  1.113972)
  17 Al ( 0.000000,  0.000000, -0.035351)
  18 Co ( 0.000000,  0.000000,  1.073963)
  19 Fe ( 0.000000,  0.000000,  2.374652)
  20 Cr ( 0.000000,  0.000000, -2.028932)
  21 Fe ( 0.000000,  0.000000,  2.515142)
  22 Co ( 0.000000,  0.000000,  1.618118)
  23 Al ( 0.000000,  0.000000, -0.030830)
  24 Ni ( 0.000000,  0.000000, -0.031983)
  25 Fe ( 0.000000,  0.000000,  1.942140)
  26 Fe ( 0.000000,  0.000000,  2.356548)
  27 Fe ( 0.000000,  0.000000,  2.136713)
  28 Cr ( 0.000000,  0.000000, -1.335390)
  29 Fe ( 0.000000,  0.000000,  1.929860)
  30 Fe ( 0.000000,  0.000000,  2.213075)
  31 Cr ( 0.000000,  0.000000, -1.959004)
  32 Cr ( 0.000000,  0.000000,  0.339138)
  33 Al ( 0.000000,  0.000000, -0.009667)
  34 Fe ( 0.000000,  0.000000,  2.231531)
  35 Fe ( 0.000000,  0.000000,  1.951668)
  36 Al ( 0.000000,  0.000000, -0.006015)
  37 Cr ( 0.000000,  0.000000, -0.366191)
  38 Ni ( 0.000000,  0.000000,  0.048516)
  39 Fe ( 0.000000,  0.000000,  2.106457)
  40 Ni ( 0.000000,  0.000000,  0.081361)
  41 Co ( 0.000000,  0.000000,  0.777933)
  42 Fe ( 0.000000,  0.000000,  2.075007)
  43 Ni ( 0.000000,  0.000000,  0.342054)
  44 Co ( 0.000000,  0.000000,  1.358738)
  45 Al ( 0.000000,  0.000000, -0.013169)
  46 Ni ( 0.000000,  0.000000,  0.349159)
  47 Fe ( 0.000000,  0.000000,  2.502063)
  48 Co ( 0.000000,  0.000000,  1.067325)
  49 Al ( 0.000000,  0.000000, -0.031460)
  50 Co ( 0.000000,  0.000000,  1.418512)
  51 Ni ( 0.000000,  0.000000,  0.255569)
  52 Cr ( 0.000000,  0.000000,  0.946810)
  53 Co ( 0.000000,  0.000000,  1.147150)
  54 Ni ( 0.000000,  0.000000,  0.538842)
  55 Ni ( 0.000000,  0.000000,  0.222008)
  56 Ni ( 0.000000,  0.000000, -0.009156)
  57 Cr ( 0.000000,  0.000000, -1.039700)
  58 Ni ( 0.000000,  0.000000,  0.092445)
  59 Fe ( 0.000000,  0.000000,  2.424025)
  60 Cr ( 0.000000,  0.000000, -0.656928)
  61 Cr ( 0.000000,  0.000000,  0.693130)
  62 Co ( 0.000000,  0.000000,  0.315545)
  63 Cr ( 0.000000,  0.000000, -2.175230)
  64 Cr ( 0.000000,  0.000000, -0.239439)
  65 Ni ( 0.000000,  0.000000,  0.107816)
  66 Fe ( 0.000000,  0.000000,  1.847433)
  67 Co ( 0.000000,  0.000000,  0.623267)
  68 Ni ( 0.000000,  0.000000,  0.199444)
  69 Co ( 0.000000,  0.000000,  0.320218)
  70 Co ( 0.000000,  0.000000,  1.341547)
  71 Cr ( 0.000000,  0.000000, -1.402183)
  72 Al ( 0.000000,  0.000000, -0.023963)
  73 Cr ( 0.000000,  0.000000,  1.074739)
  74 Al ( 0.000000,  0.000000, -0.031799)
  75 Fe ( 0.000000,  0.000000,  2.455875)
  76 Fe ( 0.000000,  0.000000,  2.447489)
  77 Cr ( 0.000000,  0.000000, -1.222151)
  78 Co ( 0.000000,  0.000000,  1.050076)
  79 Cr ( 0.000000,  0.000000, -2.040708)
  80 Co ( 0.000000,  0.000000,  1.352055)
  81 Cr ( 0.000000,  0.000000,  1.790078)
  82 Ni ( 0.000000,  0.000000,  0.030550)
  83 Fe ( 0.000000,  0.000000,  1.946643)
  84 Ni ( 0.000000,  0.000000,  0.308336)
  85 Ni ( 0.000000,  0.000000,  0.393094)
  86 Al ( 0.000000,  0.000000, -0.009671)
  87 Cr ( 0.000000,  0.000000, -0.902223)
  88 Cr ( 0.000000,  0.000000, -1.617378)
  89 Co ( 0.000000,  0.000000,  1.375133)
  90 Fe ( 0.000000,  0.000000,  2.329844)
  91 Co ( 0.000000,  0.000000,  1.420871)
  92 Co ( 0.000000,  0.000000,  0.715452)
  93 Al ( 0.000000,  0.000000, -0.021797)
  94 Ni ( 0.000000,  0.000000,  0.339577)
  95 Ni ( 0.000000,  0.000000,  0.612951)
  96 Ni ( 0.000000,  0.000000,  0.550751)
  97 Ni ( 0.000000,  0.000000,  0.086353)
  98 Fe ( 0.000000,  0.000000,  1.320378)
  99 Co ( 0.000000,  0.000000,  1.414565)
 100 Co ( 0.000000,  0.000000,  1.804790)
 101 Co ( 0.000000,  0.000000,  1.369189)
 102 Cr ( 0.000000,  0.000000, -1.643563)
 103 Co ( 0.000000,  0.000000,  1.515251)
 104 Ni ( 0.000000,  0.000000,  0.593664)
 105 Fe ( 0.000000,  0.000000,  2.477438)
 106 Fe ( 0.000000,  0.000000,  2.597204)
 107 Co ( 0.000000,  0.000000,  0.949962)
 108 Al ( 0.000000,  0.000000, -0.038693)
 109 Fe ( 0.000000,  0.000000,  2.327731)
 110 Fe ( 0.000000,  0.000000,  2.701041)
 111 Cr ( 0.000000,  0.000000, -2.092013)
 112 Cr ( 0.000000,  0.000000, -2.321079)
 113 Fe ( 0.000000,  0.000000,  2.606544)
 114 Co ( 0.000000,  0.000000,  1.568297)
 115 Fe ( 0.000000,  0.000000,  2.280592)
 116 Ni ( 0.000000,  0.000000,  0.086322)
 117 Ni ( 0.000000,  0.000000,  0.174066)
 118 Co ( 0.000000,  0.000000,  0.986954)
 119 Cr ( 0.000000,  0.000000, -2.703123)
 120 Fe ( 0.000000,  0.000000,  2.620524)
 121 Co ( 0.000000,  0.000000,  1.681071)
 122 Ni ( 0.000000,  0.000000,  0.450647)
 123 Cr ( 0.000000,  0.000000,  2.233429)
 124 Co ( 0.000000,  0.000000,  1.553206)

Energy contributions relative to reference atoms: (reference = -4103091.665053)

Kinetic:       +441.037151
Potential:     -430.129286
External:        +0.000000
XC:            -980.278476
Entropy (-ST):   -5.075843
Local:          +40.105444
--------------------------
Free energy:   -934.341010
Extrapolated:  -931.803088

Dipole-layer corrected work functions: 4.878923, 4.915420 eV

Spin contamination: 43.606754 electrons
Showing all kpts
                      Up                     Down
 Kpt  Band  Eigenvalues  Occupancy  Eigenvalues  Occupancy
  0   566     -0.05013    0.99714      0.88460    0.02947
  0   567     -0.04073    0.99686      0.90143    0.02502
  0   568     -0.02086    0.99617      0.90903    0.02323
  0   569     -0.01847    0.99607      0.91089    0.02281

  1   566     -0.04766    0.99707      0.89239    0.02732
  1   567     -0.03588    0.99670      0.89942    0.02552
  1   568     -0.01593    0.99597      0.91281    0.02239
  1   569     -0.01028    0.99574      0.91828    0.02122


Fermi level: 0.53516

No gap

Forces in eV/Ang:
  0 Al    0.03812    0.37937   -0.25162
  1 Ni   -0.72076    0.82099    0.25231
  2 Fe   -0.46044   -0.02121   -0.30582
  3 Cr    0.00084    0.78223   -0.38749
  4 Ni   -0.36313    0.01765    0.72072
  5 Cr    0.98639   -0.39649    0.36358
  6 Fe    1.27991   -2.14137   -0.39349
  7 Co   -0.09919    0.02598    0.83885
  8 Fe    0.12689    0.66398    0.39305
  9 Ni    0.30636   -0.29429    0.64269
 10 Ni   -0.66649    0.95211   -0.15293
 11 Cr    0.20508   -1.32953   -0.01144
 12 Co    1.28607    0.14540    0.39170
 13 Cr    0.28601   -1.24774   -0.09276
 14 Cr   -0.99888    0.09041    0.55712
 15 Ni   -0.01348    0.07340   -0.22893
 16 Co    0.19069    0.41280   -0.04563
 17 Al   -1.24837    1.80606   -0.54564
 18 Co   -1.08601    0.77958    0.31243
 19 Fe   -0.15835    1.11044   -0.46928
 20 Cr   -0.19270   -1.59792   -0.49761
 21 Fe    0.21990   -0.73221   -0.28235
 22 Co   -0.16156   -0.43572    1.17211
 23 Al    0.25808   -2.09650   -1.14427
 24 Ni   -0.45728    0.61569    0.98066
 25 Fe    1.16111   -0.00525    0.12491
 26 Fe    0.26702   -0.07384   -0.48279
 27 Fe   -1.19380    1.63473    1.03842
 28 Cr   -0.50835    0.16660    0.27446
 29 Fe   -0.92024    0.18745   -0.50207
 30 Fe    1.61627    1.11274   -0.12585
 31 Cr   -0.29274   -2.23606   -0.19719
 32 Cr   -1.30780   -0.44872   -0.01697
 33 Al    2.31901   -1.48818    1.09514
 34 Fe    0.46106   -2.01700   -0.46025
 35 Fe    0.24830   -0.72563   -0.65987
 36 Al    0.54997    1.90417   -0.28190
 37 Cr   -1.91320    1.74789   -0.71712
 38 Ni   -0.79094    0.63368    0.14395
 39 Fe    1.43064    1.78932   -0.21199
 40 Ni    0.69688    1.23154   -0.11539
 41 Co    0.60782   -1.79642   -0.55653
 42 Fe   -0.12059   -0.00799    0.11369
 43 Ni    0.03087    0.00892   -0.24336
 44 Co    0.09514    0.92236   -0.27852
 45 Al   -0.49327    0.40938    1.89431
 46 Ni   -0.50030    0.38509   -1.23708
 47 Fe    0.96600   -0.72539    0.35251
 48 Co   -1.31994   -0.17411    0.76519
 49 Al    0.91898   -1.25394    0.25335
 50 Co   -0.69431   -1.37814    0.38908
 51 Ni    0.29390    1.35348   -1.43290
 52 Cr    1.36475   -0.82538    0.23624
 53 Co   -0.42041   -0.04954   -0.75071
 54 Ni   -0.82876   -0.21810    1.02610
 55 Ni   -1.27823   -0.11344    1.06701
 56 Ni    1.25428   -1.13289    0.08732
 57 Cr    0.18813   -0.96024   -0.75333
 58 Ni   -0.23546    1.66514   -0.99502
 59 Fe   -0.34437    0.89765   -0.21589
 60 Cr   -0.53885   -0.63625    0.93893
 61 Cr   -0.41726   -1.08849    0.15039
 62 Co    0.85085   -0.55011   -0.11931
 63 Cr    1.22058    1.50429    0.07247
 64 Cr   -0.22791   -1.07770    0.16752
 65 Ni   -1.65174    1.67649    0.27913
 66 Fe    0.73488    0.52555    0.04694
 67 Co   -0.06454   -0.60081    0.28647
 68 Ni   -0.53451    1.09722   -0.18670
 69 Co   -1.39947   -0.31923   -0.37224
 70 Co    0.72185   -0.47527    0.12103
 71 Cr   -0.46626    0.24479   -0.76607
 72 Al    0.22191    0.78723   -1.47366
 73 Cr   -1.85549   -0.35625   -0.85586
 74 Al    2.48344    0.54898    0.40771
 75 Fe   -0.33989   -0.04868   -1.08854
 76 Fe    0.46277    0.34733   -0.17329
 77 Cr   -0.59341    0.44959   -0.59961
 78 Co   -0.65394   -0.01166    0.00922
 79 Cr   -0.18708   -2.22599    0.21815
 80 Co    0.79169   -0.57355    0.85252
 81 Cr   -0.95605   -1.48786    0.15308
 82 Ni   -1.30033   -0.44586    0.49354
 83 Fe    2.48543   -0.20481    0.59900
 84 Ni   -0.59702    0.04008   -0.57514
 85 Ni    0.33525    1.21300   -0.23644
 86 Al   -0.88782    1.23686   -1.14334
 87 Cr    2.79995    0.85338   -0.35875
 88 Cr   -0.60313   -1.63199   -0.18357
 89 Co   -0.11106    0.89344    0.16478
 90 Fe   -1.36680   -0.25169   -0.25454
 91 Co    0.57030   -0.33147   -1.43313
 92 Co   -0.49710   -0.28854    0.29611
 93 Al    0.71893    0.98803   -1.09056
 94 Ni   -0.28527    0.14981   -0.45582
 95 Ni    0.27427    1.59773   -0.60727
 96 Ni   -0.09357   -0.23495   -0.23333
 97 Ni    0.37409   -0.67812    2.37196
 98 Fe    0.05447    0.11812    0.82065
 99 Co    0.00104    0.33051    0.25130
100 Co   -0.03555    0.32349   -0.76268
101 Co   -0.62975   -1.37190   -0.40310
102 Cr    0.82691   -0.36539    1.20847
103 Co    0.44796   -0.47608   -0.55751
104 Ni   -0.72019    0.86993    0.19223
105 Fe    0.36836    1.20741    0.77516
106 Fe    0.29176    0.97920   -0.25795
107 Co   -1.07359   -0.49944   -0.11379
108 Al   -0.13652    0.11490    0.43822
109 Fe   -1.10024   -0.67358    0.94027
110 Fe   -0.23320   -0.37542   -0.39405
111 Cr   -0.64599   -1.36700    0.42524
112 Cr    1.92108   -1.07635   -0.23926
113 Fe    0.07435    0.15041    0.02468
114 Co    0.23853    0.73159   -0.30237
115 Fe   -0.46192    0.44329    0.75438
116 Ni   -0.20851    0.08707    0.38716
117 Ni    0.94423    0.05650    0.13063
118 Co   -1.18060   -0.94711    0.04954
119 Cr    0.83807   -0.88538   -0.52055
120 Fe   -0.38822    1.07126    0.87820
121 Co    0.39363    0.39040    0.93988
122 Ni   -0.06877    0.08075   -1.04966
123 Cr    0.86813    0.91291    0.91058
124 Co    0.34205    0.73194   -0.33455

Timing:                              incl.     excl.
-----------------------------------------------------------
Forces:                             45.214    45.214   0.2% |
Hamiltonian:                         2.116     0.022   0.0% |
 Atomic:                             0.409     0.002   0.0% |
  XC Correction:                     0.407     0.407   0.0% |
 Calculate atomic Hamiltonians:      0.936     0.936   0.0% |
 Communicate:                        0.097     0.097   0.0% |
 Initialize Hamiltonian:             0.001     0.001   0.0% |
 Poisson:                            0.141     0.141   0.0% |
 XC 3D grid:                         0.511     0.511   0.0% |
LCAO initialization:               366.741     0.638   0.0% |
 LCAO eigensolver:                  24.939     0.024   0.0% |
  Calculate projections:             0.000     0.000   0.0% |
  DenseAtomicCorrection:             0.000     0.000   0.0% |
  Distribute overlap matrix:        11.842    11.842   0.0% |
  Orbital Layouts:                  13.003    13.003   0.1% |
  Potential matrix:                  0.007     0.007   0.0% |
  Sum over cells:                    0.061     0.061   0.0% |
 LCAO to grid:                     338.653   338.653   1.3% ||
 Set positions (LCAO WFS):           2.512     2.108   0.0% |
  Basic WFS set positions:           0.004     0.004   0.0% |
  Basis functions set positions:     0.001     0.001   0.0% |
  P tci:                             0.001     0.001   0.0% |
  ST tci:                            0.161     0.161   0.0% |
  mktci:                             0.237     0.237   0.0% |
PWDescriptor:                        0.142     0.142   0.0% |
SCF-cycle:                       25004.318     1.572   0.0% |
 Davidson:                       24327.629  6295.303  24.8% |---------|
  Apply H:                         450.094   441.814   1.7% ||
   HMM T:                            8.280     8.280   0.0% |
  Subspace diag:                  2219.794     0.081   0.0% |
   calc_h_matrix:                  968.446   559.209   2.2% ||
    Apply H:                       409.237   400.602   1.6% ||
     HMM T:                          8.634     8.634   0.0% |
   diagonalize:                    200.598   200.598   0.8% |
   rotate_psi:                    1050.668  1050.668   4.1% |-|
  calc. matrices:                 5109.876  4295.425  16.9% |------|
   Apply H:                        814.450   797.753   3.1% ||
    HMM T:                          16.697    16.697   0.1% |
  diagonalize:                    8019.596  8019.596  31.5% |------------|
  rotate_psi:                     2232.966  2232.966   8.8% |---|
 Density:                          386.873     0.006   0.0% |
  Atomic density matrices:           3.804     3.804   0.0% |
  Mix:                             177.670   177.670   0.7% |
  Multipole moments:                 0.104     0.104   0.0% |
  Pseudo density:                  205.288   205.280   0.8% |
   Symmetrize density:               0.008     0.008   0.0% |
 Hamiltonian:                      267.670     2.130   0.0% |
  Atomic:                           50.506     0.250   0.0% |
   XC Correction:                   50.256    50.256   0.2% |
  Calculate atomic Hamiltonians:   137.507   137.507   0.5% |
  Communicate:                      11.153    11.153   0.0% |
  Poisson:                           6.409     6.409   0.0% |
  XC 3D grid:                       59.965    59.965   0.2% |
 Orthonormalize:                    20.573     0.001   0.0% |
  calc_s_matrix:                     2.654     2.654   0.0% |
  inverse-cholesky:                  0.943     0.943   0.0% |
  projections:                      12.601    12.601   0.0% |
  rotate_psi_s:                      4.374     4.374   0.0% |
Set symmetry:                        0.001     0.001   0.0% |
Other:                               9.229     9.229   0.0% |
-----------------------------------------------------------
Total:                                     25427.762 100.0%

Date: Mon Apr 17 18:00:17 2023
