
  ___ ___ ___ _ _ _  
 |   |   |_  | | | | 
 | | | | | . | | | | 
 |__ |  _|___|_____|  22.8.0
 |___|_|             

User:   c.zeng@d0136
Date:   Sat Apr  8 00:15:28 2023
Arch:   x86_64
Pid:    53128
CWD:    /home/c.zeng/projects/hea-corrosion/hea-mlp/data-curation/volume/dft-jobs/108
Python: 3.8.1
gpaw:   /home/c.zeng/usr/installs/gpaw/source/gpaw-22.8.0/gpaw
_gpaw:  /home/c.zeng/usr/installs/gpaw/source/gpaw-22.8.0/
        _gpaw.cpython-38-x86_64-linux-gnu.so
ase:    /home/c.zeng/.local/lib/python3.8/site-packages/ase-3.22.1-py3.8.egg/ase (version 3.22.1)
numpy:  /shared/centos7/python/3.8.1/lib/python3.8/site-packages/numpy (version 1.17.4)
scipy:  /shared/centos7/python/3.8.1/lib/python3.8/site-packages/scipy (version 1.4.1)
libxc:  4.2.3
units:  Angstrom and eV
cores: 64
OpenMP: False
OMP_NUM_THREADS: 1

Input parameters:
  convergence: {energy: 0.0001}
  kpts: [2 2 2]
  maxiter: 666
  mode: {ecut: 350.0,
         name: pw}
  occupations: {fixmagmom: False,
                name: fermi-dirac,
                width: 0.1}
  spinpol: True
  xc: PBE

System changes: positions, numbers, cell, pbc, initial_charges, initial_magmoms 

Initialize ...

species:
  Fe:
    name: Iron
    id: 37abbd8d6c3c35915a9b583b742da910
    Z: 26.0
    valence: 8
    core: 18
    charge: 0.0
    file: /home/c.zeng/usr/data/gpaw-setups-0.9.20000/Fe.PBE.gz
    compensation charges: {type: gauss,
                           rc: 0.33,
                           lmax: 2}
    cutoffs: {filter: 2.06,
              core: 2.67}
    valence states:
      #              energy  rcut
      - 4s(2.00)    -5.291   1.164
      - 4p(0.00)    -1.326   1.058
      - 3d(6.00)    -7.505   1.058
      -  s          21.920   1.164
      -  p          25.885   1.058
      -  d          19.706   1.058
  
    # Using partial waves for Fe as LCAO basis

  Cr:
    name: Chromium
    id: 33f258bda2ca9f93018e70263a35547b
    Z: 24.0
    valence: 6
    core: 18
    charge: 0.0
    file: /home/c.zeng/usr/data/gpaw-setups-0.9.20000/Cr.PBE.gz
    compensation charges: {type: gauss,
                           rc: 0.35,
                           lmax: 2}
    cutoffs: {filter: 2.14,
              core: 3.04}
    valence states:
      #              energy  rcut
      - 4s(1.00)    -4.007   1.164
      - 4p(0.00)    -0.989   1.217
      - 3d(5.00)    -2.913   1.111
      -  s          23.205   1.164
      -  p          26.223   1.217
      -  d          24.299   1.111
  
    # Using partial waves for Cr as LCAO basis

  Ni:
    name: Nickel
    id: 0d9f38a9d6e76a2886f07bb4381f212b
    Z: 28.0
    valence: 16
    core: 12
    charge: 0.0
    file: /home/c.zeng/usr/data/gpaw-setups-0.9.20000/Ni.PBE.gz
    compensation charges: {type: gauss,
                           rc: 0.36,
                           lmax: 2}
    cutoffs: {filter: 2.14,
              core: 1.98}
    valence states:
      #              energy  rcut
      - 4s(2.00)    -5.642   1.164
      - 3p(6.00)   -71.394   1.207
      - 4p(0.00)    -1.226   1.207
      - 3d(8.00)    -8.875   1.138
      -  s          21.570   1.164
      -  d          18.337   1.138
  
    # Using partial waves for Ni as LCAO basis

  Al:
    name: Aluminium
    id: 0292cae29f5d6237e50f6abdd43a7bdd
    Z: 13.0
    valence: 3
    core: 10
    charge: 0.0
    file: /home/c.zeng/usr/data/gpaw-setups-0.9.20000/Al.PBE.gz
    compensation charges: {type: gauss,
                           rc: 0.34,
                           lmax: 2}
    cutoffs: {filter: 1.91,
              core: 2.36}
    valence states:
      #              energy  rcut
      - 3s(2.00)    -7.753   1.085
      - 3p(1.00)    -2.712   1.085
      -  s          19.459   1.085
      -  p          24.499   1.085
      -  d           0.000   1.085
  
    # Using partial waves for Al as LCAO basis

  Co:
    name: Cobalt
    id: 339d20d5b0b93d2de9531a1bee871d91
    Z: 27.0
    valence: 9
    core: 18
    charge: 0.0
    file: /home/c.zeng/usr/data/gpaw-setups-0.9.20000/Co.PBE.gz
    compensation charges: {type: gauss,
                           rc: 0.32,
                           lmax: 2}
    cutoffs: {filter: 1.87,
              core: 2.55}
    valence states:
      #              energy  rcut
      - 4s(2.00)    -5.469   1.005
      - 4p(0.00)    -1.277   1.058
      - 3d(7.00)    -8.205   1.005
      -  s          21.742   1.005
      -  p          25.934   1.058
      -  d          19.007   1.005
  
    # Using partial waves for Co as LCAO basis

Reference energy: -3382523.201499  # eV

Spin-polarized calculation.
Magnetic moment: 128.800000

Convergence criteria:
 Maximum [total energy] change in last 3 cyles: 0.0001 eV / electron
 Maximum integral of absolute [dens]ity change: 0.0001 electrons / valence electron
 Maximum integral of absolute [eigenst]ate change: 4e-08 eV^2 / valence electron
 Maximum number of scf [iter]ations: 666
 (Square brackets indicate name in SCF output, whereas a 'c' in
 the SCF output indicates the quantity has converged.)

Symmetries present (total): 1

  ( 1  0  0)
  ( 0  1  0)
  ( 0  0  1)

8 k-points: 2 x 2 x 2 Monkhorst-Pack grid
4 k-points in the irreducible part of the Brillouin zone
       k-points in crystal coordinates                weights
   0:     0.25000000   -0.25000000   -0.25000000          2/8
   1:     0.25000000   -0.25000000    0.25000000          2/8
   2:     0.25000000    0.25000000   -0.25000000          2/8
   3:     0.25000000    0.25000000    0.25000000          2/8

Wave functions: Plane wave expansion
  Cutoff energy: 350.000 eV
  Number of coefficients (min, max): 18865, 18865
  Pulay-stress correction: 0.000000 eV/Ang^3 (de/decut=0.000000)
  Using FFTW library
  ScaLapack parameters: grid=1x1, blocksize=None
  Wavefunction extrapolation:
    Improved wavefunction reuse through dual PAW basis 

Occupation numbers: Fermi-Dirac:
  width: 0.1000  # eV
 

Eigensolver
   Davidson(niter=2) 

Densities:
  Coarse grid: 48*48*48 grid
  Fine grid: 96*96*96 grid
  Total Charge: 0.000000 

Density mixing:
  Method: difference
  Backend: pulay
  Linear mixing parameter: 0.05
  old densities: 5
  Damping of long wavelength oscillations: 50 

Hamiltonian:
  XC and Coulomb potentials evaluated on a 96*96*96 grid
  Using the PBE Exchange-Correlation functional
  External potential:
    NoExternalPotential
 

XC parameters: PBE with 2 nearest neighbor stencil

Memory estimate:
  Process memory now: 178.17 MiB
  Calculator: 639.69 MiB
    Density: 5.10 MiB
      Arrays: 1.85 MiB
      Localized functions: 2.51 MiB
      Mixer: 0.74 MiB
    Hamiltonian: 1.45 MiB
      Arrays: 1.37 MiB
      XC: 0.00 MiB
      Poisson: 0.00 MiB
      vbar: 0.08 MiB
    Wavefunctions: 633.14 MiB
      Arrays psit_nG: 373.64 MiB
      Eigensolver: 252.55 MiB
      Projections: 2.31 MiB
      Projectors: 0.34 MiB
      PW-descriptor: 4.30 MiB

Total number of cores used: 64
Parallelization over k-points: 4
Domain decomposition: 4 x 2 x 2

Number of atoms: 108
Number of atomic orbitals: 961
Number of bands in calculation: 649
Number of valence electrons: 945
Bands to converge: occupied

... initialized

Initializing position-dependent things.

Density initialized from atomic densities
Creating initial wave functions:
  649 bands from LCAO basis set

        .--------------------------.  
       /|                     Ni   |  
      / |            Cr Ni     NiNi|  
     /  |       Al       Ni       Fe  
    /   |Cr       Fer     CAlo     |  
   /i   | Coi        Co      Fe    |  
  /  FeCr   CFe       Cr           |  
 *      Co     CrNi   FeAlFeFe   Ni|  
 |      |CrFe   CrCoAl   FeCrCo   Co  
 | NiCo | AlNi   FeAlAl     Cr     |  
 |     Co  NiFe Fe  Ni NiNi  CrCr  |  
 |      CoFe   AlFe   NiAlCoFe  Fe |  
 |Co    |AlAl   CrFeCo   CrCo     Cr  
 |      .-CrAl-----FeNi-CoAlCoNi---.  
 |     /   Al Cr    Fe FeNi    Cr /   
 |    Cr       CNio       Co     /    
 |   /  Fe         Cr       Ni  /     
 |  /      Fe       Co       Cr/      
 | / Ni     Co       Cr Ni    /       
 |/             Al       Co  /        
 *--------Al----------------*         

Positions:
   0 Fe    10.764376   10.861285   10.805494    ( 0.0000,  0.0000,  2.0000)
   1 Cr    10.786331    1.792465    1.813597    ( 0.0000,  0.0000,  0.0000)
   2 Ni     1.744292    0.036564    1.851275    ( 0.0000,  0.0000,  1.5000)
   3 Cr     1.736609    1.831094   10.798840    ( 0.0000,  0.0000,  0.0000)
   4 Al     3.575137    0.057260    0.061590    ( 0.0000,  0.0000,  0.0000)
   5 Fe     3.594344    1.817601    1.845421    ( 0.0000,  0.0000,  2.0000)
   6 Ni     5.429810   10.817105    1.865017    ( 0.0000,  0.0000,  1.5000)
   7 Al     5.429647    1.929313    0.056940    ( 0.0000,  0.0000,  0.0000)
   8 Al     7.316901   10.723280    0.087372    ( 0.0000,  0.0000,  0.0000)
   9 Co     7.263155    1.825706    1.869291    ( 0.0000,  0.0000,  2.1000)
  10 Ni     9.063594    0.025148    1.863491    ( 0.0000,  0.0000,  1.5000)
  11 Co     9.049344    1.829612    0.033158    ( 0.0000,  0.0000,  2.1000)
  12 Ni     0.004738    3.559036   10.794966    ( 0.0000,  0.0000,  1.5000)
  13 Cr    10.759853    5.390758    1.778182    ( 0.0000,  0.0000,  0.0000)
  14 Fe     1.733655    3.561871    1.761063    ( 0.0000,  0.0000,  2.0000)
  15 Cr     1.776916    5.391959   10.795648    ( 0.0000,  0.0000,  0.0000)
  16 Co     3.565474    3.619469   10.832611    ( 0.0000,  0.0000,  2.1000)
  17 Cr     3.633265    5.394643    1.719588    ( 0.0000,  0.0000,  0.0000)
  18 Co     5.471664    3.659148    1.835899    ( 0.0000,  0.0000,  2.1000)
  19 Fe     5.440208    5.373239   -0.002843    ( 0.0000,  0.0000,  2.0000)
  20 Cr     7.259054    3.609157    0.031255    ( 0.0000,  0.0000,  0.0000)
  21 Fe     7.268944    5.378466    1.785269    ( 0.0000,  0.0000,  2.0000)
  22 Co     9.030743    3.577647    1.833691    ( 0.0000,  0.0000,  2.1000)
  23 Al     9.040427    5.372460   10.801296    ( 0.0000,  0.0000,  0.0000)
  24 Ni    10.791850    7.196294   10.792694    ( 0.0000,  0.0000,  1.5000)
  25 Cr    10.758663    9.040471    1.848299    ( 0.0000,  0.0000,  0.0000)
  26 Cr     1.690611    7.202570    1.786135    ( 0.0000,  0.0000,  0.0000)
  27 Al     1.652825    8.981066    0.027190    ( 0.0000,  0.0000,  0.0000)
  28 Cr     3.631264    7.164546    0.034599    ( 0.0000,  0.0000,  0.0000)
  29 Cr     3.625518    9.063951    1.801825    ( 0.0000,  0.0000,  0.0000)
  30 Fe     5.490805    7.187205    1.746412    ( 0.0000,  0.0000,  2.0000)
  31 Fe     5.426823    8.989181    0.009788    ( 0.0000,  0.0000,  2.0000)
  32 Ni     7.229178    7.237218   -0.008635    ( 0.0000,  0.0000,  1.5000)
  33 Cr     7.249077    8.995987    1.810827    ( 0.0000,  0.0000,  0.0000)
  34 Co     9.052059    7.204431    1.764342    ( 0.0000,  0.0000,  2.1000)
  35 Ni     9.092648    8.989700   10.808914    ( 0.0000,  0.0000,  1.5000)
  36 Ni    -0.000944   10.826335    3.639801    ( 0.0000,  0.0000,  1.5000)
  37 Co    10.822872    1.771819    5.422030    ( 0.0000,  0.0000,  2.1000)
  38 Co     1.754290   10.802302    5.428966    ( 0.0000,  0.0000,  2.1000)
  39 Cr     1.741911    1.774362    3.610834    ( 0.0000,  0.0000,  0.0000)
  40 Fe     3.591260   10.794544    3.612371    ( 0.0000,  0.0000,  2.0000)
  41 Al     3.593164    1.736934    5.455433    ( 0.0000,  0.0000,  0.0000)
  42 Fe     5.437232   10.794836    5.401038    ( 0.0000,  0.0000,  2.0000)
  43 Ni     5.452013    1.783311    3.601453    ( 0.0000,  0.0000,  1.5000)
  44 Cr     7.226256    0.007824    3.626264    ( 0.0000,  0.0000,  0.0000)
  45 Co     7.236222    1.766571    5.381506    ( 0.0000,  0.0000,  2.1000)
  46 Co     9.034649   10.848950    5.403829    ( 0.0000,  0.0000,  2.1000)
  47 Ni     9.031554    1.804898    3.616667    ( 0.0000,  0.0000,  1.5000)
  48 Ni    10.773985    3.543995    3.617781    ( 0.0000,  0.0000,  1.5000)
  49 Cr    10.772275    5.358404    5.454816    ( 0.0000,  0.0000,  0.0000)
  50 Co     1.757428    3.575667    5.428987    ( 0.0000,  0.0000,  2.1000)
  51 Al     1.621867    5.386895    3.572540    ( 0.0000,  0.0000,  0.0000)
  52 Al     3.634358    3.633125    3.540857    ( 0.0000,  0.0000,  0.0000)
  53 Fe     3.550639    5.397835    5.404814    ( 0.0000,  0.0000,  2.0000)
  54 Fe     5.402379    3.610856    5.370340    ( 0.0000,  0.0000,  2.0000)
  55 Fe     5.460259    5.433564    3.575689    ( 0.0000,  0.0000,  2.0000)
  56 Ni     7.250181    3.615152    3.623105    ( 0.0000,  0.0000,  1.5000)
  57 Ni     7.248785    5.410722    5.362094    ( 0.0000,  0.0000,  1.5000)
  58 Co     9.058238    3.565258    5.380056    ( 0.0000,  0.0000,  2.1000)
  59 Co     9.074058    5.365384    3.588901    ( 0.0000,  0.0000,  2.1000)
  60 Fe    10.732347    7.267764    3.615098    ( 0.0000,  0.0000,  2.0000)
  61 Co    10.775933    9.094844    5.426596    ( 0.0000,  0.0000,  2.1000)
  62 Al     1.686791    7.280132    5.496843    ( 0.0000,  0.0000,  0.0000)
  63 Ni     1.734412    9.055014    3.595750    ( 0.0000,  0.0000,  1.5000)
  64 Al     3.592937    7.268067    3.470394    ( 0.0000,  0.0000,  0.0000)
  65 Cr     3.586618    9.093751    5.439115    ( 0.0000,  0.0000,  0.0000)
  66 Al     5.383097    7.229200    5.440706    ( 0.0000,  0.0000,  0.0000)
  67 Ni     5.438174    9.045275    3.590275    ( 0.0000,  0.0000,  1.5000)
  68 Al     7.326011    7.204832    3.545727    ( 0.0000,  0.0000,  0.0000)
  69 Fe     7.279688    9.072305    5.413135    ( 0.0000,  0.0000,  2.0000)
  70 Cr     9.092226    7.237531    5.436940    ( 0.0000,  0.0000,  0.0000)
  71 Cr     9.065726    9.066776    3.636165    ( 0.0000,  0.0000,  0.0000)
  72 Fe    10.809779   10.839644    7.207926    ( 0.0000,  0.0000,  2.0000)
  73 Co    10.806079    1.798546    8.997069    ( 0.0000,  0.0000,  2.1000)
  74 Co     1.743361    0.025181    8.997275    ( 0.0000,  0.0000,  2.1000)
  75 Co     1.767339    1.793125    7.239447    ( 0.0000,  0.0000,  2.1000)
  76 Fe     3.586823    0.005666    7.225120    ( 0.0000,  0.0000,  2.0000)
  77 Fe     3.553388    1.854878    8.998627    ( 0.0000,  0.0000,  2.0000)
  78 Cr     5.409543   10.816055    8.971478    ( 0.0000,  0.0000,  0.0000)
  79 Fe     5.421240    1.784382    7.188633    ( 0.0000,  0.0000,  2.0000)
  80 Co     7.246134   10.799868    7.160370    ( 0.0000,  0.0000,  2.1000)
  81 Al     7.321240    1.765035    8.948993    ( 0.0000,  0.0000,  0.0000)
  82 Ni     9.091241   10.807107    8.993704    ( 0.0000,  0.0000,  1.5000)
  83 Ni     9.075822    1.781677    7.163216    ( 0.0000,  0.0000,  1.5000)
  84 Ni    10.826443    3.561665    7.207699    ( 0.0000,  0.0000,  1.5000)
  85 Fe     0.036783    5.383270    8.996398    ( 0.0000,  0.0000,  2.0000)
  86 Co     1.771235    3.603660    9.017022    ( 0.0000,  0.0000,  2.1000)
  87 Cr     1.801922    5.346642    7.250776    ( 0.0000,  0.0000,  0.0000)
  88 Ni     3.593262    3.620162    7.230898    ( 0.0000,  0.0000,  1.5000)
  89 Fe     3.560226    5.392100    9.052308    ( 0.0000,  0.0000,  2.0000)
  90 Ni     5.376962    3.650394    8.987320    ( 0.0000,  0.0000,  1.5000)
  91 Co     5.354433    5.395562    7.215814    ( 0.0000,  0.0000,  2.1000)
  92 Al     7.221182    3.645460    7.099028    ( 0.0000,  0.0000,  0.0000)
  93 Cr     7.211216    5.388464    9.040330    ( 0.0000,  0.0000,  0.0000)
  94 Fe     9.095147    3.598217    8.980882    ( 0.0000,  0.0000,  2.0000)
  95 Cr     9.078343    5.402477    7.227836    ( 0.0000,  0.0000,  0.0000)
  96 Ni    10.763478    7.244695    7.260266    ( 0.0000,  0.0000,  1.5000)
  97 Fe    10.795237    9.034573    8.977668    ( 0.0000,  0.0000,  2.0000)
  98 Co     1.740007    7.179014    8.984690    ( 0.0000,  0.0000,  2.1000)
  99 Ni     1.734434    9.080290    7.236644    ( 0.0000,  0.0000,  1.5000)
 100 Cr     3.580428    7.154224    7.248222    ( 0.0000,  0.0000,  0.0000)
 101 Al     3.612771    8.970970    8.958061    ( 0.0000,  0.0000,  0.0000)
 102 Cr     5.411003    7.155955    9.067014    ( 0.0000,  0.0000,  0.0000)
 103 Co     5.466589    9.064135    7.220954    ( 0.0000,  0.0000,  2.1000)
 104 Al     7.307389    7.271573    7.289665    ( 0.0000,  0.0000,  0.0000)
 105 Ni     7.271194    9.044680    9.027919    ( 0.0000,  0.0000,  1.5000)
 106 Co     9.081795    7.219872    9.041271    ( 0.0000,  0.0000,  2.1000)
 107 Fe     9.063854    9.083039    7.213856    ( 0.0000,  0.0000,  2.0000)

Unit cell:
           periodic     x           y           z      points  spacing
  1. axis:    yes   10.820600    0.000000    0.000000    48     0.2254
  2. axis:    yes    0.000000   10.820600    0.000000    48     0.2254
  3. axis:    yes    0.000000    0.000000   10.820600    48     0.2254

  Lengths:  10.820600  10.820600  10.820600
  Angles:   90.000000  90.000000  90.000000

Effective grid spacing dv^(1/3) = 0.2254

     iter     time        total  log10-change:  magmom
                         energy  eigst   dens
iter:   1 00:17:54  -996.861282                  +129.0863
iter:   2 00:19:07  -888.902507  -0.19  -1.18    +70.8545
iter:   3 00:20:17  -876.065521  -0.82  -1.19    +61.2249
iter:   4 00:21:26  -851.786928  -1.23  -1.26    +57.0202
iter:   5 00:22:39  -843.643165  -1.55  -1.30    +54.8574
iter:   6 00:23:53  -844.608020  -1.33  -1.35    +55.5271
iter:   7 00:25:05  -834.906846  -1.30  -1.39    +54.2181
iter:   8 00:26:17  -828.006938  -1.64  -1.53    +54.1079
iter:   9 00:27:26  -827.449452  -1.86  -1.66    +55.6152
iter:  10 00:28:28  -824.997006  -2.41  -1.72    +56.4698
iter:  11 00:29:32  -825.450659  -2.49  -1.80    +59.0805
iter:  12 00:30:42  -827.059924  -2.41  -1.86    +60.4150
iter:  13 00:31:55  -826.481046  -2.43  -1.86    +61.1764
iter:  14 00:33:08  -826.752537  -2.49  -1.93    +62.4937
iter:  15 00:34:23  -826.575443  -2.66  -1.96    +62.9196
iter:  16 00:35:36  -826.207018  -2.90  -2.02    +63.1087
iter:  17 00:36:50  -826.741443  -2.93  -2.08    +64.0833
iter:  18 00:38:05  -826.206804  -3.06  -2.06    +64.1061
iter:  19 00:39:18  -826.314606  -3.03  -2.19    +64.2815
iter:  20 00:40:33  -826.502168  -3.00  -2.24    +64.4917
iter:  21 00:41:47  -826.239014  -3.21  -2.25    +64.7887
iter:  22 00:42:58  -826.301060  -3.36  -2.37    +64.9388
iter:  23 00:44:11  -826.232410c -3.52  -2.39    +65.0292
iter:  24 00:45:25  -826.274739c -3.63  -2.49    +65.1965
iter:  25 00:46:37  -826.323917c -3.68  -2.51    +65.2356
iter:  26 00:47:46  -826.344219c -3.81  -2.55    +65.3675
iter:  27 00:48:57  -826.353848c -3.96  -2.54    +65.3807
iter:  28 00:50:08  -826.393738c -3.93  -2.60    +65.3045
iter:  29 00:51:21  -826.416729c -4.19  -2.63    +65.3936
iter:  30 00:52:33  -826.450207c -4.03  -2.67    +65.3480
iter:  31 00:53:45  -826.476915c -4.10  -2.70    +65.3263
iter:  32 00:54:56  -826.496143c -4.28  -2.74    +65.4519
iter:  33 00:56:10  -826.508631c -4.23  -2.75    +65.4318
iter:  34 00:57:23  -826.525348c -4.43  -2.80    +65.3539
iter:  35 00:58:34  -826.550210c -4.38  -2.85    +65.4109
iter:  36 00:59:43  -826.559301c -4.50  -2.86    +65.3666
iter:  37 01:00:53  -826.585523c -4.42  -2.91    +65.3074
iter:  38 01:02:05  -826.598520c -4.44  -2.95    +65.3424
iter:  39 01:03:19  -826.604950c -4.62  -2.95    +65.2900
iter:  40 01:04:31  -826.615794c -4.56  -3.00    +65.2402
iter:  41 01:05:42  -826.623603c -4.83  -3.06    +65.2438
iter:  42 01:06:55  -826.631617c -4.77  -3.09    +65.2139
iter:  43 01:08:08  -826.649463c -4.62  -3.13    +65.2064
iter:  44 01:09:19  -826.658480c -4.59  -3.14    +65.2013
iter:  45 01:10:30  -826.659916c -4.95  -3.18    +65.1800
iter:  46 01:11:38  -826.662820c -5.11  -3.21    +65.1735
iter:  47 01:12:49  -826.668105c -5.10  -3.26    +65.1389
iter:  48 01:14:01  -826.666352c -5.17  -3.28    +65.1447
iter:  49 01:15:14  -826.668840c -5.31  -3.32    +65.1305
iter:  50 01:16:27  -826.670587c -5.37  -3.37    +65.1169
iter:  51 01:17:39  -826.670946c -5.58  -3.37    +65.1103
iter:  52 01:18:51  -826.672360c -5.53  -3.41    +65.1109
iter:  53 01:20:01  -826.674491c -5.46  -3.46    +65.0886
iter:  54 01:21:08  -826.674737c -5.66  -3.48    +65.0829
iter:  55 01:22:22  -826.676414c -5.73  -3.52    +65.0728
iter:  56 01:23:35  -826.678115c -5.64  -3.55    +65.0596
iter:  57 01:24:50  -826.678946c -5.73  -3.57    +65.0499
iter:  58 01:26:05  -826.680064c -5.66  -3.58    +65.0380
iter:  59 01:27:17  -826.680844c -5.79  -3.67    +65.0223
iter:  60 01:28:29  -826.682043c -5.93  -3.74    +65.0007
iter:  61 01:29:39  -826.682813c -6.12  -3.77    +64.9896
iter:  62 01:30:48  -826.685123c -5.67  -3.81    +64.9418
iter:  63 01:32:00  -826.685313c -6.07  -3.80    +64.9481
iter:  64 01:33:13  -826.686465c -5.92  -3.84    +64.9314
iter:  65 01:34:25  -826.687365c -6.03  -3.86    +64.8972
iter:  66 01:35:38  -826.688848c -5.80  -3.96    +64.8578
iter:  67 01:36:51  -826.690217c -5.91  -3.95    +64.8284
iter:  68 01:38:04  -826.692451c -5.64  -3.95    +64.7890
iter:  69 01:39:14  -826.701089c -4.57  -3.87    +64.6457
iter:  70 01:40:27  -826.704008c -4.91  -3.71    +64.5806
iter:  71 01:41:39  -826.705964c -5.18  -3.62    +64.5676
iter:  72 01:42:53  -826.708014c -5.56  -3.60    +64.5460
iter:  73 01:44:03  -826.708152c -6.09  -3.51    +64.5536
iter:  74 01:45:10  -826.707942c -5.75  -3.51    +64.5343
iter:  75 01:46:22  -826.710569c -5.21  -3.50    +64.5051
iter:  76 01:47:35  -826.709293c -5.18  -3.36    +64.4887
iter:  77 01:48:49  -826.712956c -4.69  -3.41    +64.4562
iter:  78 01:50:03  -826.704910c -5.25  -3.25    +64.4751
iter:  79 01:51:16  -826.704778c -5.49  -3.59    +64.4425
iter:  80 01:52:28  -826.703994c -5.74  -3.66    +64.4295
iter:  81 01:53:41  -826.703976c -5.76  -3.71    +64.4018
iter:  82 01:54:55  -826.703692c -6.04  -3.69    +64.4111
iter:  83 01:56:07  -826.705021c -5.78  -3.78    +64.3986
iter:  84 01:57:19  -826.703961c -5.96  -3.73    +64.3972
iter:  85 01:58:33  -826.703628c -6.20  -3.78    +64.4026
iter:  86 01:59:44  -826.703934c -6.24  -3.87    +64.3951
iter:  87 02:01:00  -826.704212c -6.24  -3.89    +64.3988
iter:  88 02:02:13  -826.704182c -6.28  -3.90    +64.3911
iter:  89 02:03:26  -826.703746c -6.48  -3.91    +64.3932
iter:  90 02:04:40  -826.704156c -6.35  -3.99    +64.3950
iter:  91 02:05:53  -826.704415c -6.52  -3.96    +64.3948
iter:  92 02:07:06  -826.704343c -6.70  -3.99    +64.4019
iter:  93 02:08:20  -826.704306c -6.70  -4.06c   +64.4039
iter:  94 02:09:32  -826.704394c -6.77  -4.07c   +64.4079
iter:  95 02:10:44  -826.704565c -6.89  -4.07c   +64.4039
iter:  96 02:11:55  -826.704613c -6.72  -4.13c   +64.4041
iter:  97 02:13:04  -826.704503c -6.60  -4.09c   +64.4049
iter:  98 02:14:13  -826.704763c -6.59  -4.09c   +64.4013
iter:  99 02:15:25  -826.705080c -6.54  -4.18c   +64.4012
iter: 100 02:16:38  -826.705112c -6.50  -4.22c   +64.4005
iter: 101 02:17:50  -826.704867c -6.61  -4.18c   +64.4050
iter: 102 02:19:01  -826.705065c -6.78  -4.26c   +64.4035
iter: 103 02:20:11  -826.705208c -7.02  -4.36c   +64.4015
iter: 104 02:21:20  -826.705327c -6.99  -4.42c   +64.4024
iter: 105 02:22:33  -826.704396c -5.59  -4.38c   +64.3931
iter: 106 02:23:46  -826.704323c -6.52  -4.39c   +64.3965
iter: 107 02:25:00  -826.704459c -7.07  -4.43c   +64.4005
iter: 108 02:26:14  -826.704691c -6.89  -4.73c   +64.4036
iter: 109 02:27:28  -826.704430c -6.86  -4.70c   +64.3985
iter: 110 02:28:41  -826.703720c -5.92  -4.76c   +64.3830
iter: 111 02:29:54  -826.703714c -6.86  -4.56c   +64.3871
iter: 112 02:31:07  -826.703838c -7.40c -4.55c   +64.3987

Converged after 112 iterations.

Dipole moment: (27.500925, -2.575795, -8.708062) |e|*Ang

Total magnetic moment: (0.000000, 0.000000, 64.398675)
Local magnetic moments:
   0 Fe ( 0.000000,  0.000000,  2.165545)
   1 Cr ( 0.000000,  0.000000,  1.396261)
   2 Ni ( 0.000000,  0.000000, -0.008727)
   3 Cr ( 0.000000,  0.000000, -1.885598)
   4 Al ( 0.000000,  0.000000, -0.013440)
   5 Fe ( 0.000000,  0.000000,  2.196182)
   6 Ni ( 0.000000,  0.000000,  0.174307)
   7 Al ( 0.000000,  0.000000, -0.017824)
   8 Al ( 0.000000,  0.000000, -0.014786)
   9 Co ( 0.000000,  0.000000,  1.419409)
  10 Ni ( 0.000000,  0.000000,  0.200284)
  11 Co ( 0.000000,  0.000000,  1.111266)
  12 Ni ( 0.000000,  0.000000,  0.247319)
  13 Cr ( 0.000000,  0.000000,  1.224738)
  14 Fe ( 0.000000,  0.000000,  1.478797)
  15 Cr ( 0.000000,  0.000000, -1.577368)
  16 Co ( 0.000000,  0.000000,  0.750808)
  17 Cr ( 0.000000,  0.000000,  0.389475)
  18 Co ( 0.000000,  0.000000,  1.069110)
  19 Fe ( 0.000000,  0.000000,  1.831622)
  20 Cr ( 0.000000,  0.000000, -1.985226)
  21 Fe ( 0.000000,  0.000000,  2.342700)
  22 Co ( 0.000000,  0.000000,  1.048607)
  23 Al ( 0.000000,  0.000000, -0.028525)
  24 Ni ( 0.000000,  0.000000,  0.198103)
  25 Cr ( 0.000000,  0.000000,  0.303566)
  26 Cr ( 0.000000,  0.000000, -0.383142)
  27 Al ( 0.000000,  0.000000, -0.017652)
  28 Cr ( 0.000000,  0.000000, -0.611303)
  29 Cr ( 0.000000,  0.000000, -1.845648)
  30 Fe ( 0.000000,  0.000000,  1.733965)
  31 Fe ( 0.000000,  0.000000,  1.594508)
  32 Ni ( 0.000000,  0.000000,  0.259239)
  33 Cr ( 0.000000,  0.000000,  1.553102)
  34 Co ( 0.000000,  0.000000,  0.911121)
  35 Ni ( 0.000000,  0.000000,  0.340555)
  36 Ni ( 0.000000,  0.000000,  0.171771)
  37 Co ( 0.000000,  0.000000,  1.556402)
  38 Co ( 0.000000,  0.000000,  1.254795)
  39 Cr ( 0.000000,  0.000000, -1.888686)
  40 Fe ( 0.000000,  0.000000,  2.185675)
  41 Al ( 0.000000,  0.000000, -0.039353)
  42 Fe ( 0.000000,  0.000000,  2.241945)
  43 Ni ( 0.000000,  0.000000,  0.394474)
  44 Cr ( 0.000000,  0.000000, -1.690166)
  45 Co ( 0.000000,  0.000000,  1.495725)
  46 Co ( 0.000000,  0.000000,  1.297096)
  47 Ni ( 0.000000,  0.000000,  0.419929)
  48 Ni ( 0.000000,  0.000000,  0.292962)
  49 Cr ( 0.000000,  0.000000,  1.527650)
  50 Co ( 0.000000,  0.000000,  0.979776)
  51 Al ( 0.000000,  0.000000, -0.027500)
  52 Al ( 0.000000,  0.000000, -0.039440)
  53 Fe ( 0.000000,  0.000000,  2.068433)
  54 Fe ( 0.000000,  0.000000,  2.384443)
  55 Fe ( 0.000000,  0.000000,  2.212506)
  56 Ni ( 0.000000,  0.000000,  0.551093)
  57 Ni ( 0.000000,  0.000000,  0.180077)
  58 Co ( 0.000000,  0.000000,  1.211298)
  59 Co ( 0.000000,  0.000000,  0.854602)
  60 Fe ( 0.000000,  0.000000,  1.392896)
  61 Co ( 0.000000,  0.000000,  1.227777)
  62 Al ( 0.000000,  0.000000, -0.014877)
  63 Ni ( 0.000000,  0.000000, -0.008974)
  64 Al ( 0.000000,  0.000000, -0.012654)
  65 Cr ( 0.000000,  0.000000, -1.932098)
  66 Al ( 0.000000,  0.000000, -0.022995)
  67 Ni ( 0.000000,  0.000000,  0.062737)
  68 Al ( 0.000000,  0.000000, -0.033709)
  69 Fe ( 0.000000,  0.000000,  2.017744)
  70 Cr ( 0.000000,  0.000000, -0.857472)
  71 Cr ( 0.000000,  0.000000, -1.033464)
  72 Fe ( 0.000000,  0.000000,  2.451915)
  73 Co ( 0.000000,  0.000000,  1.502196)
  74 Co ( 0.000000,  0.000000,  1.072632)
  75 Co ( 0.000000,  0.000000,  1.577394)
  76 Fe ( 0.000000,  0.000000,  2.284234)
  77 Fe ( 0.000000,  0.000000,  2.361989)
  78 Cr ( 0.000000,  0.000000, -1.978111)
  79 Fe ( 0.000000,  0.000000,  2.283245)
  80 Co ( 0.000000,  0.000000,  1.308715)
  81 Al ( 0.000000,  0.000000, -0.018237)
  82 Ni ( 0.000000,  0.000000,  0.403678)
  83 Ni ( 0.000000,  0.000000,  0.508761)
  84 Ni ( 0.000000,  0.000000,  0.370133)
  85 Fe ( 0.000000,  0.000000,  2.190960)
  86 Co ( 0.000000,  0.000000,  1.218291)
  87 Cr ( 0.000000,  0.000000, -1.776882)
  88 Ni ( 0.000000,  0.000000,  0.434751)
  89 Fe ( 0.000000,  0.000000,  2.117326)
  90 Ni ( 0.000000,  0.000000,  0.195134)
  91 Co ( 0.000000,  0.000000,  0.839682)
  92 Al ( 0.000000,  0.000000, -0.041960)
  93 Cr ( 0.000000,  0.000000,  1.693111)
  94 Fe ( 0.000000,  0.000000,  2.123164)
  95 Cr ( 0.000000,  0.000000, -1.434943)
  96 Ni ( 0.000000,  0.000000,  0.225099)
  97 Fe ( 0.000000,  0.000000,  2.424665)
  98 Co ( 0.000000,  0.000000,  0.518493)
  99 Ni ( 0.000000,  0.000000,  0.379923)
 100 Cr ( 0.000000,  0.000000,  1.532526)
 101 Al ( 0.000000,  0.000000, -0.009819)
 102 Cr ( 0.000000,  0.000000, -1.477646)
 103 Co ( 0.000000,  0.000000,  0.768350)
 104 Al ( 0.000000,  0.000000, -0.019940)
 105 Ni ( 0.000000,  0.000000,  0.277621)
 106 Co ( 0.000000,  0.000000,  1.110272)
 107 Fe ( 0.000000,  0.000000,  2.194815)

Energy contributions relative to reference atoms: (reference = -3382523.201499)

Kinetic:       +216.650420
Potential:     -227.101060
External:        +0.000000
XC:            -847.473896
Entropy (-ST):   -4.178884
Local:          +33.310140
--------------------------
Free energy:   -828.793280
Extrapolated:  -826.703838

Spin contamination: 27.551002 electrons
Showing only first 2 kpts
                      Up                     Down
 Kpt  Band  Eigenvalues  Occupancy  Eigenvalues  Occupancy
  0   470      9.12140    0.99654     10.07833    0.01974
  0   471      9.12728    0.99634     10.09466    0.01681
  0   472      9.13762    0.99594     10.10527    0.01515
  0   473      9.15079    0.99537     10.11360    0.01395

  1   470      9.12073    0.99657     10.08391    0.01869
  1   471      9.13835    0.99591     10.09466    0.01681
  1   472      9.15862    0.99499     10.09672    0.01648
  1   473      9.17242    0.99426     10.12299    0.01272


Fermi level: 9.68781

No gap

Forces in eV/Ang:
  0 Fe   -0.02514    0.12580   -0.16134
  1 Cr    0.05027    0.20835    0.02004
  2 Ni    0.12130   -0.35783   -0.39262
  3 Cr   -0.18084    0.40017    0.19114
  4 Al    0.10025   -0.16742   -0.19740
  5 Fe   -0.26977    0.34314    0.01531
  6 Ni    0.01197    0.40454   -0.42735
  7 Al   -0.43741   -0.15395    0.12900
  8 Al    0.28940    0.65406   -0.38711
  9 Co    0.09338    0.25618   -0.15974
 10 Ni   -0.14524   -0.06524   -0.26546
 11 Co   -0.17575    0.00935   -0.00331
 12 Ni   -0.09004    0.13589    0.05227
 13 Cr    0.05000   -0.06834    0.18878
 14 Fe    0.51776    0.09731   -0.04406
 15 Cr   -0.20117   -0.31994   -0.21442
 16 Co   -0.15041    0.25819    0.09858
 17 Cr   -0.28994    0.24054   -0.76219
 18 Co    0.01607   -0.28539    0.11275
 19 Fe   -0.36811   -0.06379    0.32260
 20 Cr    0.28951    0.43103    0.06402
 21 Fe    0.00629   -0.14996   -0.01476
 22 Co   -0.10260   -0.16007   -0.11914
 23 Al    0.26036    0.67751   -0.11086
 24 Ni    0.02597   -0.08667    0.06104
 25 Cr   -0.44617   -0.35996    0.29983
 26 Cr   -0.20374    0.09419    0.11661
 27 Al    0.22782    0.27256   -0.53166
 28 Cr   -0.15931   -0.15543    0.44189
 29 Cr    0.23788   -0.01734    0.16415
 30 Fe   -0.36935    0.18210   -0.02713
 31 Fe   -0.32706    0.02417   -0.07491
 32 Ni    0.14221    0.05743   -0.18017
 33 Cr    0.08838   -0.20118    0.31688
 34 Co    0.28897    0.28561    0.13443
 35 Ni   -0.13263    0.01061    0.29577
 36 Ni   -0.10940    0.03720   -0.03617
 37 Co    0.20381    0.36170   -0.07523
 38 Co    0.12638   -0.10776   -0.07238
 39 Cr   -0.41459    0.18459   -0.42669
 40 Fe   -0.01587   -0.23383   -0.30405
 41 Al   -0.14040    0.45509    0.05382
 42 Fe    0.17309   -0.14277   -0.00876
 43 Ni   -0.21063    0.28447   -0.01209
 44 Cr   -0.11685    0.10278    0.04360
 45 Co   -0.21332    0.01038    0.18645
 46 Co   -0.16652   -0.07673   -0.26831
 47 Ni   -0.13878   -0.13663    0.06802
 48 Ni    0.32830    0.19752    0.01681
 49 Cr   -0.72748   -0.31892    0.32244
 50 Co    0.27391   -0.13633   -0.17703
 51 Al    0.56073   -0.55469    0.28440
 52 Al    0.01137   -0.15685    0.32798
 53 Fe   -0.00175   -0.03705   -0.44040
 54 Fe    0.13364    0.18223    0.06727
 55 Fe   -0.24530   -0.21729   -0.15610
 56 Ni    0.03452   -0.20958   -0.09467
 57 Ni   -0.00457    0.39952    0.16405
 58 Co    0.04968    0.19857    0.04828
 59 Co    0.03853    0.00474    0.16177
 60 Fe   -0.13397   -0.13404   -0.14695
 61 Co   -0.30246   -0.03767   -0.12764
 62 Al   -0.30389    0.42535   -0.18761
 63 Ni    0.31072   -0.31312    0.11043
 64 Al    0.31644   -0.23112    0.67516
 65 Cr   -0.02236    0.66920    0.38305
 66 Al    0.43491   -0.19225    0.00458
 67 Ni   -0.06877   -0.56397    0.20060
 68 Al   -0.23703   -0.34885    0.38417
 69 Fe    0.05575    0.07055    0.06721
 70 Cr    0.51187   -0.12456    0.03336
 71 Cr    0.70898    0.11144   -0.27510
 72 Fe    0.30344    0.37667   -0.08018
 73 Co    0.12459   -0.01435    0.18460
 74 Co    0.25955   -0.13328    0.26872
 75 Co   -0.05727    0.17651    0.00712
 76 Fe   -0.22764   -0.48135    0.15853
 77 Fe   -0.03120   -0.12543    0.00814
 78 Cr    0.26008   -0.22486   -0.23473
 79 Fe    0.12984   -0.02021    0.08052
 80 Co   -0.08690   -0.07857    0.04183
 81 Al    0.30925   -0.04733    0.03465
 82 Ni   -0.30263    0.31427    0.19657
 83 Ni   -0.47260    0.18513    0.19412
 84 Ni    0.03732   -0.06038   -0.11270
 85 Fe    0.03186    0.22654   -0.32762
 86 Co    0.01242   -0.20116    0.02265
 87 Cr   -0.28360    0.02503    0.20294
 88 Ni    0.03513   -0.08657   -0.12950
 89 Fe    0.11207   -0.41074    0.25097
 90 Ni    0.28760   -0.37236    0.05698
 91 Co   -0.07819   -0.01688   -0.18516
 92 Al   -0.10543   -0.07602   -0.02979
 93 Cr   -0.19676    0.12435   -0.28788
 94 Fe    0.07173   -0.47615   -0.09784
 95 Cr    0.63059    0.02387    0.03011
 96 Ni    0.18281   -0.19677   -0.05222
 97 Fe    0.11282   -0.24560    0.00696
 98 Co    0.27574    0.02568    0.28660
 99 Ni    0.41419   -0.27123    0.04427
100 Cr    0.04399    0.06576   -0.02802
101 Al   -0.60434    0.13537   -0.02404
102 Cr    0.33913    0.15406    0.11803
103 Co    0.05741   -0.00647    0.06990
104 Al   -0.50223   -0.02999   -0.10942
105 Ni   -0.19353   -0.06723   -0.05568
106 Co   -0.28330    0.01394   -0.06605
107 Fe   -0.05004   -0.18389   -0.18682

Timing:                              incl.     excl.
-----------------------------------------------------------
Forces:                             15.241    15.241   0.2% |
Hamiltonian:                         1.119     0.085   0.0% |
 Atomic:                             0.511     0.440   0.0% |
  XC Correction:                     0.071     0.071   0.0% |
 Calculate atomic Hamiltonians:      0.157     0.157   0.0% |
 Communicate:                        0.008     0.008   0.0% |
 Initialize Hamiltonian:             0.000     0.000   0.0% |
 Poisson:                            0.001     0.001   0.0% |
 XC 3D grid:                         0.357     0.357   0.0% |
LCAO initialization:                64.310     1.101   0.0% |
 LCAO eigensolver:                   7.431     0.019   0.0% |
  Calculate projections:             0.159     0.159   0.0% |
  DenseAtomicCorrection:             0.196     0.196   0.0% |
  Distribute overlap matrix:         1.196     1.196   0.0% |
  Orbital Layouts:                   3.259     3.259   0.0% |
  Potential matrix:                  1.707     1.707   0.0% |
  Sum over cells:                    0.894     0.894   0.0% |
 LCAO to grid:                      53.519    53.519   0.7% |
 Set positions (LCAO WFS):           2.259     1.415   0.0% |
  Basic WFS set positions:           0.004     0.004   0.0% |
  Basis functions set positions:     0.001     0.001   0.0% |
  P tci:                             0.254     0.254   0.0% |
  ST tci:                            0.216     0.216   0.0% |
  mktci:                             0.369     0.369   0.0% |
PWDescriptor:                        0.100     0.100   0.0% |
SCF-cycle:                        8070.744   100.482   1.2% |
 Davidson:                        7772.792  1598.152  19.6% |-------|
  Apply H:                          58.851    55.560   0.7% |
   HMM T:                            3.291     3.291   0.0% |
  Subspace diag:                   531.286     0.060   0.0% |
   calc_h_matrix:                  203.894   141.317   1.7% ||
    Apply H:                        62.577    59.840   0.7% |
     HMM T:                          2.737     2.737   0.0% |
   diagonalize:                     91.661    91.661   1.1% |
   rotate_psi:                     235.672   235.672   2.9% ||
  calc. matrices:                 1202.286  1096.457  13.4% |----|
   Apply H:                        105.829    99.533   1.2% |
    HMM T:                           6.296     6.296   0.1% |
  diagonalize:                    3868.490  3868.490  47.4% |------------------|
  rotate_psi:                      513.727   513.727   6.3% |--|
 Density:                           95.574     0.004   0.0% |
  Atomic density matrices:           1.991     1.991   0.0% |
  Mix:                              64.781    64.781   0.8% |
  Multipole moments:                 0.075     0.075   0.0% |
  Pseudo density:                   28.722    28.714   0.4% |
   Symmetrize density:               0.008     0.008   0.0% |
 Hamiltonian:                       95.685     1.228   0.0% |
  Atomic:                           27.065    17.095   0.2% |
   XC Correction:                    9.970     9.970   0.1% |
  Calculate atomic Hamiltonians:    53.812    53.812   0.7% |
  Communicate:                       1.708     1.708   0.0% |
  Poisson:                           0.071     0.071   0.0% |
  XC 3D grid:                       11.802    11.802   0.1% |
 Orthonormalize:                     6.210     0.001   0.0% |
  calc_s_matrix:                     0.756     0.756   0.0% |
  inverse-cholesky:                  0.471     0.471   0.0% |
  projections:                       3.882     3.882   0.0% |
  rotate_psi_s:                      1.100     1.100   0.0% |
Set symmetry:                        0.001     0.001   0.0% |
Other:                               4.998     4.998   0.1% |
-----------------------------------------------------------
Total:                                      8156.513 100.0%

Date: Sat Apr  8 02:31:24 2023
