
  ___ ___ ___ _ _ _  
 |   |   |_  | | | | 
 | | | | | . | | | | 
 |__ |  _|___|_____|  22.8.0
 |___|_|             

User:   c.zeng@d0020
Date:   Mon Apr 17 21:44:25 2023
Arch:   x86_64
Pid:    18844
CWD:    /home/c.zeng/projects/hea-corrosion/hea-mlp/data-curation/surface-md/dft-jobs/87
Python: 3.8.1
gpaw:   /home/c.zeng/usr/installs/gpaw/source/gpaw-22.8.0/gpaw
_gpaw:  /home/c.zeng/usr/installs/gpaw/source/gpaw-22.8.0/
        _gpaw.cpython-38-x86_64-linux-gnu.so
ase:    /home/c.zeng/.local/lib/python3.8/site-packages/ase-3.22.1-py3.8.egg/ase (version 3.22.1)
numpy:  /home/c.zeng/.local/lib/python3.8/site-packages/numpy (version 1.24.2)
scipy:  /home/c.zeng/.local/lib/python3.8/site-packages/scipy (version 1.10.1)
libxc:  4.2.3
units:  Angstrom and eV
cores: 30
OpenMP: False
OMP_NUM_THREADS: 1

Input parameters:
  convergence: {energy: 0.0001}
  kpts: [2 2 1]
  maxiter: 666
  mode: {ecut: 350.0,
         name: pw}
  occupations: {fixmagmom: False,
                name: fermi-dirac,
                width: 0.1}
  poissonsolver: {dipolelayer: xy}
  spinpol: True
  symmetry: {point_group: False}
  xc: PBE

System changes: positions, numbers, cell, pbc, initial_charges, initial_magmoms 

Initialize ...

species:
  Co:
    name: Cobalt
    id: 339d20d5b0b93d2de9531a1bee871d91
    Z: 27.0
    valence: 9
    core: 18
    charge: 0.0
    file: /home/c.zeng/usr/data/gpaw-setups-0.9.20000/Co.PBE.gz
    compensation charges: {type: gauss,
                           rc: 0.32,
                           lmax: 2}
    cutoffs: {filter: 1.87,
              core: 2.55}
    valence states:
      #              energy  rcut
      - 4s(2.00)    -5.469   1.005
      - 4p(0.00)    -1.277   1.058
      - 3d(7.00)    -8.205   1.005
      -  s          21.742   1.005
      -  p          25.934   1.058
      -  d          19.007   1.005
  
    # Using partial waves for Co as LCAO basis

  Fe:
    name: Iron
    id: 37abbd8d6c3c35915a9b583b742da910
    Z: 26.0
    valence: 8
    core: 18
    charge: 0.0
    file: /home/c.zeng/usr/data/gpaw-setups-0.9.20000/Fe.PBE.gz
    compensation charges: {type: gauss,
                           rc: 0.33,
                           lmax: 2}
    cutoffs: {filter: 2.06,
              core: 2.67}
    valence states:
      #              energy  rcut
      - 4s(2.00)    -5.291   1.164
      - 4p(0.00)    -1.326   1.058
      - 3d(6.00)    -7.505   1.058
      -  s          21.920   1.164
      -  p          25.885   1.058
      -  d          19.706   1.058
  
    # Using partial waves for Fe as LCAO basis

  Al:
    name: Aluminium
    id: 0292cae29f5d6237e50f6abdd43a7bdd
    Z: 13.0
    valence: 3
    core: 10
    charge: 0.0
    file: /home/c.zeng/usr/data/gpaw-setups-0.9.20000/Al.PBE.gz
    compensation charges: {type: gauss,
                           rc: 0.34,
                           lmax: 2}
    cutoffs: {filter: 1.91,
              core: 2.36}
    valence states:
      #              energy  rcut
      - 3s(2.00)    -7.753   1.085
      - 3p(1.00)    -2.712   1.085
      -  s          19.459   1.085
      -  p          24.499   1.085
      -  d           0.000   1.085
  
    # Using partial waves for Al as LCAO basis

  Cr:
    name: Chromium
    id: 33f258bda2ca9f93018e70263a35547b
    Z: 24.0
    valence: 6
    core: 18
    charge: 0.0
    file: /home/c.zeng/usr/data/gpaw-setups-0.9.20000/Cr.PBE.gz
    compensation charges: {type: gauss,
                           rc: 0.35,
                           lmax: 2}
    cutoffs: {filter: 2.14,
              core: 3.04}
    valence states:
      #              energy  rcut
      - 4s(1.00)    -4.007   1.164
      - 4p(0.00)    -0.989   1.217
      - 3d(5.00)    -2.913   1.111
      -  s          23.205   1.164
      -  p          26.223   1.217
      -  d          24.299   1.111
  
    # Using partial waves for Cr as LCAO basis

  Ni:
    name: Nickel
    id: 0d9f38a9d6e76a2886f07bb4381f212b
    Z: 28.0
    valence: 16
    core: 12
    charge: 0.0
    file: /home/c.zeng/usr/data/gpaw-setups-0.9.20000/Ni.PBE.gz
    compensation charges: {type: gauss,
                           rc: 0.36,
                           lmax: 2}
    cutoffs: {filter: 2.14,
              core: 1.98}
    valence states:
      #              energy  rcut
      - 4s(2.00)    -5.642   1.164
      - 3p(6.00)   -71.394   1.207
      - 4p(0.00)    -1.226   1.207
      - 3d(8.00)    -8.875   1.138
      -  s          21.570   1.164
      -  d          18.337   1.138
  
    # Using partial waves for Ni as LCAO basis

Reference energy: -3726899.091688  # eV

Spin-polarized calculation.
Magnetic moment: 140.000000

Convergence criteria:
 Maximum [total energy] change in last 3 cyles: 0.0001 eV / electron
 Maximum integral of absolute [dens]ity change: 0.0001 electrons / valence electron
 Maximum integral of absolute [eigenst]ate change: 4e-08 eV^2 / valence electron
 Maximum number of scf [iter]ations: 666
 (Square brackets indicate name in SCF output, whereas a 'c' in
 the SCF output indicates the quantity has converged.)

Symmetries present (total): 1

  ( 1  0  0)
  ( 0  1  0)
  ( 0  0  1)

4 k-points: 2 x 2 x 1 Monkhorst-Pack grid
2 k-points in the irreducible part of the Brillouin zone
       k-points in crystal coordinates                weights
   0:     0.25000000   -0.25000000    0.00000000          2/4
   1:     0.25000000    0.25000000    0.00000000          2/4

Wave functions: Plane wave expansion
  Cutoff energy: 350.000 eV
  Number of coefficients (min, max): 60935, 60955
  Pulay-stress correction: 0.000000 eV/Ang^3 (de/decut=0.000000)
  Using FFTW library
  ScaLapack parameters: grid=1x1, blocksize=None
  Wavefunction extrapolation:
    Improved wavefunction reuse through dual PAW basis 

Occupation numbers: Fermi-Dirac:
  width: 0.1000  # eV
 

Eigensolver
   Davidson(niter=2) 

Densities:
  Coarse grid: 56*56*128 grid
  Fine grid: 112*112*256 grid
  Total Charge: 0.000000 

Density mixing:
  Method: difference
  Backend: pulay
  Linear mixing parameter: 0.05
  old densities: 5
  Damping of long wavelength oscillations: 50 

Hamiltonian:
  XC and Coulomb potentials evaluated on a 112*112*256 grid
  Using the PBE Exchange-Correlation functional
  External potential:
    NoExternalPotential
 

XC parameters: PBE with 2 nearest neighbor stencil

Memory estimate:
  Process memory now: 378.86 MiB
  Calculator: 2131.41 MiB
    Density: 19.02 MiB
      Arrays: 7.39 MiB
      Localized functions: 8.68 MiB
      Mixer: 2.95 MiB
    Hamiltonian: 5.75 MiB
      Arrays: 5.49 MiB
      XC: 0.00 MiB
      Poisson: 0.00 MiB
      vbar: 0.26 MiB
    Wavefunctions: 2106.64 MiB
      Arrays psit_nG: 1335.62 MiB
      Eigensolver: 751.15 MiB
      Projections: 3.10 MiB
      Projectors: 1.18 MiB
      PW-descriptor: 15.59 MiB

Total number of cores used: 30
Parallelization over k-points: 2
Domain decomposition: 1 x 3 x 5

Number of atoms: 125
Number of atomic orbitals: 1075
Number of bands in calculation: 718
Number of valence electrons: 1050
Bands to converge: occupied

... initialized

Initializing position-dependent things.

Density initialized from atomic densities
Creating initial wave functions:
  718 bands from LCAO basis set

                                                                    
                                                                    
                                                                    
                                                                    
                           Cr                       Al              
                                             Cr                     
                       Fe       Cr       Fe     Fe                  
                                   NiFe   Cr      Al    Cr          
                            NiAl           AlNi   Al                
                        NiFe  Co Al NiANi   Ni     Co               
         Cr        Al          Fe  Cr   Co    Ni                    
              Fe     Ni  CoAle    Ni          Co    Cr              
                 Fe    Cr  CrCoFeNi Fe CoAAl    Fe                  
                Cr    Cr    Fe    Cr      Al                        
            Co    Ni      Fe  Co   ANiAl        Al                  
                  Cr    CoCo Ni Co Ni Cr  Ni              Al        
             Cr     Cr FeCr    Fe Ni Ni     Cr   Al                 
               Cr Fe Co     Ni Ni Co CrCr  Al                       
        Co           FeNi    Al Co                     Ni           
               Ni        AlCo    CoCo   Al   Ni                     
                   AlFe  Fe  CCr   Co    Al        Fe               
                        Fe     Co             Fe                    
                CoCo                      Fe                        
            Fe                       Co                             
                                                                    
                                                                    
                                                                    
                                                                    
                                                                    
                                                                    

Positions:
   0 Co    12.736426    1.335237    9.249465    ( 0.0000,  0.0000,  2.1000)
   1 Fe     2.435696    1.316852    9.644643    ( 0.0000,  0.0000,  2.0000)
   2 Co     5.093646    1.284814   10.339633    ( 0.0000,  0.0000,  2.1000)
   3 Fe     7.562133    1.290231   10.808015    ( 0.0000,  0.0000,  2.0000)
   4 Co    10.292610    1.011701   10.957513    ( 0.0000,  0.0000,  2.1000)
   5 Fe    13.967449    3.441348    9.435156    ( 0.0000,  0.0000,  2.0000)
   6 Co     3.720830    3.299416    9.231725    ( 0.0000,  0.0000,  2.1000)
   7 Al     6.698866    3.471093   10.107125    ( 0.0000,  0.0000,  0.0000)
   8 Co     9.033523    3.296523   10.965261    ( 0.0000,  0.0000,  2.1000)
   9 Co    11.538350    3.154628   10.675069    ( 0.0000,  0.0000,  2.1000)
  10 Fe    15.279208    5.406534    8.732804    ( 0.0000,  0.0000,  2.0000)
  11 Fe     5.032537    5.599320    9.863921    ( 0.0000,  0.0000,  2.0000)
  12 Co     7.626439    5.808540   10.861279    ( 0.0000,  0.0000,  2.1000)
  13 Co    10.160780    5.430374   10.765489    ( 0.0000,  0.0000,  2.1000)
  14 Al    12.771550    5.138047   11.084438    ( 0.0000,  0.0000,  0.0000)
  15 Fe    16.691344    7.675756    8.486743    ( 0.0000,  0.0000,  2.0000)
  16 Al     6.231864    7.586073    9.861490    ( 0.0000,  0.0000,  0.0000)
  17 Co     8.934611    7.743140   10.365100    ( 0.0000,  0.0000,  2.1000)
  18 Cr    11.691651    7.623660   10.911748    ( 0.0000,  0.0000,  0.0000)
  19 Ni    14.417444    7.313024    9.914177    ( 0.0000,  0.0000,  1.5000)
  20 Ni    17.747531    9.861781    9.299198    ( 0.0000,  0.0000,  1.5000)
  21 Ni     7.917190    9.688328    9.723092    ( 0.0000,  0.0000,  1.5000)
  22 Cr    10.373328    9.801264   10.295474    ( 0.0000,  0.0000,  0.0000)
  23 Al    12.849648    9.593747   10.121311    ( 0.0000,  0.0000,  0.0000)
  24 Al    15.663923    9.421245   10.723095    ( 0.0000,  0.0000,  0.0000)
  25 Al    18.910437   10.702017   11.200291    ( 0.0000,  0.0000,  0.0000)
  26 Al     9.187566   11.041310   12.044802    ( 0.0000,  0.0000,  0.0000)
  27 Al     5.615152    0.399210   12.419007    ( 0.0000,  0.0000,  0.0000)
  28 Fe     8.015089   -0.139596   12.382358    ( 0.0000,  0.0000,  2.0000)
  29 Cr    10.456444   -0.376695   12.973156    ( 0.0000,  0.0000,  0.0000)
  30 Al    13.984654    2.220969   11.675100    ( 0.0000,  0.0000,  0.0000)
  31 Ni     3.630263    2.361969   11.947184    ( 0.0000,  0.0000,  1.5000)
  32 Ni     6.853373    2.299707   12.903296    ( 0.0000,  0.0000,  1.5000)
  33 Al     9.199402    2.059244   13.062152    ( 0.0000,  0.0000,  0.0000)
  34 Co    11.648062    1.775660   12.707960    ( 0.0000,  0.0000,  2.1000)
  35 Al     2.846944    4.542520   11.369119    ( 0.0000,  0.0000,  0.0000)
  36 Fe     5.363545    4.179679   11.998114    ( 0.0000,  0.0000,  2.0000)
  37 Ni     8.063470    4.546077   12.730867    ( 0.0000,  0.0000,  1.5000)
  38 Co    10.606957    4.068687   12.817030    ( 0.0000,  0.0000,  2.1000)
  39 Cr    12.989606    4.000889   13.246109    ( 0.0000,  0.0000,  0.0000)
  40 Fe     3.623589    6.723555   11.487969    ( 0.0000,  0.0000,  2.0000)
  41 Cr     6.236915    6.808188   12.360236    ( 0.0000,  0.0000,  0.0000)
  42 Fe     8.783160    6.734207   12.711964    ( 0.0000,  0.0000,  2.0000)
  43 Ni    11.420922    6.466267   12.979555    ( 0.0000,  0.0000,  1.5000)
  44 Cr    14.521761    5.954393   13.252400    ( 0.0000,  0.0000,  0.0000)
  45 Fe     4.994711    8.624799   11.865167    ( 0.0000,  0.0000,  2.0000)
  46 Ni     7.647118    8.899250   12.227225    ( 0.0000,  0.0000,  1.5000)
  47 Ni     9.867007    8.689862   12.231393    ( 0.0000,  0.0000,  1.5000)
  48 Ni    13.039820    8.594925   12.608156    ( 0.0000,  0.0000,  1.5000)
  49 Al    15.377808    8.403187   13.447208    ( 0.0000,  0.0000,  0.0000)
  50 Co     1.060544    0.809946   13.579601    ( 0.0000,  0.0000,  2.1000)
  51 Cr     4.009908    0.794158   14.487174    ( 0.0000,  0.0000,  0.0000)
  52 Co     6.376655    0.998606   14.791342    ( 0.0000,  0.0000,  2.1000)
  53 Ni     9.417998    0.412090   15.137767    ( 0.0000,  0.0000,  1.5000)
  54 Ni    11.628444    0.884861   15.166793    ( 0.0000,  0.0000,  1.5000)
  55 Cr     2.725368    2.991328   14.199913    ( 0.0000,  0.0000,  0.0000)
  56 Cr     5.246095    3.128401   14.465657    ( 0.0000,  0.0000,  0.0000)
  57 Co     7.798261    3.412918   14.804206    ( 0.0000,  0.0000,  2.1000)
  58 Co    10.093588    3.107006   15.218289    ( 0.0000,  0.0000,  2.1000)
  59 Cr    12.703384    2.904600   14.976466    ( 0.0000,  0.0000,  0.0000)
  60 Cr     3.936194    5.165425   14.117216    ( 0.0000,  0.0000,  0.0000)
  61 Co     6.229615    5.225415   14.426158    ( 0.0000,  0.0000,  2.1000)
  62 Co     8.802425    5.474841   14.898642    ( 0.0000,  0.0000,  2.1000)
  63 Ni    11.291148    5.187217   15.153218    ( 0.0000,  0.0000,  1.5000)
  64 Al    13.822507    5.054028   15.628244    ( 0.0000,  0.0000,  0.0000)
  65 Cr     4.866616    7.396354   14.231222    ( 0.0000,  0.0000,  0.0000)
  66 Fe     7.509175    7.712168   14.430959    ( 0.0000,  0.0000,  2.0000)
  67 Cr    10.040473    7.557020   14.682890    ( 0.0000,  0.0000,  0.0000)
  68 Al    12.852917    7.466607   14.956993    ( 0.0000,  0.0000,  0.0000)
  69 Fe    15.570469    6.919570   15.734469    ( 0.0000,  0.0000,  2.0000)
  70 Cr     6.341015    9.701491   14.009018    ( 0.0000,  0.0000,  0.0000)
  71 Ni     8.893223    9.831183   14.186094    ( 0.0000,  0.0000,  1.5000)
  72 Co    11.353364    9.712523   14.416625    ( 0.0000,  0.0000,  2.1000)
  73 Co    14.097366    9.922803   14.686409    ( 0.0000,  0.0000,  2.1000)
  74 Cr    16.565951    9.166953   15.391435    ( 0.0000,  0.0000,  0.0000)
  75 Al    12.858027    1.524488   17.142634    ( 0.0000,  0.0000,  0.0000)
  76 Co     2.464021    1.860202   16.282377    ( 0.0000,  0.0000,  2.1000)
  77 Ni     5.006452    1.688883   16.739565    ( 0.0000,  0.0000,  1.5000)
  78 Fe     7.954436    1.803332   16.685020    ( 0.0000,  0.0000,  2.0000)
  79 Fe    10.158698    1.951100   17.834687    ( 0.0000,  0.0000,  2.0000)
  80 Al    14.204175    3.686670   17.430646    ( 0.0000,  0.0000,  0.0000)
  81 Cr     3.669926    3.837922   16.469124    ( 0.0000,  0.0000,  0.0000)
  82 Cr     6.431860    4.049348   16.832558    ( 0.0000,  0.0000,  0.0000)
  83 Co     8.847520    4.053692   17.171787    ( 0.0000,  0.0000,  2.1000)
  84 Fe    11.565676    3.864786   17.248038    ( 0.0000,  0.0000,  2.0000)
  85 Ni    15.013707    6.028768   17.956631    ( 0.0000,  0.0000,  1.5000)
  86 Cr     4.869866    5.930975   16.586591    ( 0.0000,  0.0000,  0.0000)
  87 Fe     7.626588    6.193097   16.646663    ( 0.0000,  0.0000,  2.0000)
  88 Ni    10.155427    6.049462   16.871103    ( 0.0000,  0.0000,  1.5000)
  89 Co    12.661967    6.129285   17.486521    ( 0.0000,  0.0000,  2.1000)
  90 Co    16.462195    7.959731   17.514689    ( 0.0000,  0.0000,  2.1000)
  91 Co     5.895764    8.144956   16.179370    ( 0.0000,  0.0000,  2.1000)
  92 Fe     8.641720    8.231718   16.561143    ( 0.0000,  0.0000,  2.0000)
  93 Al    11.424790    8.317834   17.240750    ( 0.0000,  0.0000,  0.0000)
  94 Ni    13.939889    8.143649   17.415911    ( 0.0000,  0.0000,  1.5000)
  95 Cr    18.013818   10.434591   17.598905    ( 0.0000,  0.0000,  0.0000)
  96 Co     7.644893   10.352662   16.082062    ( 0.0000,  0.0000,  2.1000)
  97 Ni     9.959395   10.425929   16.500666    ( 0.0000,  0.0000,  1.5000)
  98 Al    12.919649   10.603055   16.866723    ( 0.0000,  0.0000,  0.0000)
  99 Al    15.702546   10.173765   17.418074    ( 0.0000,  0.0000,  0.0000)
 100 Cr     5.949786   11.468800   19.733908    ( 0.0000,  0.0000,  0.0000)
 101 Cr     8.231018   11.114618   18.369411    ( 0.0000,  0.0000,  0.0000)
 102 Fe     4.722758    0.102466   18.865991    ( 0.0000,  0.0000,  2.0000)
 103 Cr    13.397822   11.046890   19.310564    ( 0.0000,  0.0000,  0.0000)
 104 Al    16.216689   11.244760   19.813120    ( 0.0000,  0.0000,  0.0000)
 105 Cr     1.048979    2.282600   19.923168    ( 0.0000,  0.0000,  0.0000)
 106 Fe     3.312153    2.149426   18.825617    ( 0.0000,  0.0000,  2.0000)
 107 Ni     6.130150    2.120592   18.722544    ( 0.0000,  0.0000,  1.5000)
 108 Al     8.400676    2.292103   19.223411    ( 0.0000,  0.0000,  0.0000)
 109 Cr    11.487902    2.514168   19.923748    ( 0.0000,  0.0000,  0.0000)
 110 Ni    15.147278    4.482277   19.872221    ( 0.0000,  0.0000,  1.5000)
 111 Al     4.613541    4.398261   18.805301    ( 0.0000,  0.0000,  0.0000)
 112 Fe     7.556512    4.695172   18.962187    ( 0.0000,  0.0000,  2.0000)
 113 Al    10.231635    4.399723   19.233902    ( 0.0000,  0.0000,  0.0000)
 114 Ni    12.789887    4.517267   19.256861    ( 0.0000,  0.0000,  1.5000)
 115 Al    16.633957    6.864972   19.938037    ( 0.0000,  0.0000,  0.0000)
 116 Ni     6.052961    6.657322   18.515804    ( 0.0000,  0.0000,  1.5000)
 117 Al     8.561560    6.801954   18.940125    ( 0.0000,  0.0000,  0.0000)
 118 Fe    11.185505    6.752590   19.452064    ( 0.0000,  0.0000,  2.0000)
 119 Cr    13.397953    6.976341   20.120544    ( 0.0000,  0.0000,  0.0000)
 120 Fe     5.028752    9.115053   19.594820    ( 0.0000,  0.0000,  2.0000)
 121 Ni     7.041118    8.849661   18.186664    ( 0.0000,  0.0000,  1.5000)
 122 Ni     9.646816    9.284830   18.728491    ( 0.0000,  0.0000,  1.5000)
 123 Fe    12.407917    8.880073   19.430731    ( 0.0000,  0.0000,  2.0000)
 124 Fe    15.039704    8.816411   19.472280    ( 0.0000,  0.0000,  2.0000)

Unit cell:
           periodic     x           y           z      points  spacing
  1. axis:    yes   12.688900    0.000000    0.000000    56     0.1962
  2. axis:    yes    6.352870   11.003500    0.000000    56     0.1965
  3. axis:    no     0.000000    0.000000   29.353100   128     0.2293

  Lengths:  12.688900  12.705746  29.353100
  Angles:   90.000000  90.000000  60.000014

Effective grid spacing dv^(1/3) = 0.2169

     iter     time        total  log10-change:  magmom
                         energy  eigst   dens
iter:   1 21:53:30 -1080.117506                  +140.3333
iter:   2 21:56:37  -979.526853  -0.06  -1.09    +76.9657
iter:   3 21:59:43 -1591.658455  +0.06  -1.07    +63.6051
iter:   4 22:02:50 -1043.700159  +0.09  -0.77    +54.3047
iter:   5 22:05:57  -929.496888  -0.95  -1.07    +38.1343
iter:   6 22:09:04  -896.017875  -1.52  -1.19    +37.2439
iter:   7 22:12:11  -886.636488  -1.75  -1.25    +38.9105
iter:   8 22:15:17  -883.821470  -1.78  -1.29    +40.9013
iter:   9 22:18:24  -911.703296  -1.31  -1.32    +46.8421
iter:  10 22:21:31  -942.500614  -1.24  -1.24    +45.5659
iter:  11 22:24:37  -914.941046  -1.25  -1.18    +43.2190
iter:  12 22:27:44  -889.314638  -1.40  -1.28    +41.6299
iter:  13 22:30:50  -893.347654  -1.49  -1.42    +43.4990
iter:  14 22:33:57  -887.370247  -1.76  -1.41    +45.7958
iter:  15 22:37:03  -873.352648  -1.80  -1.42    +47.1584
iter:  16 22:40:09  -895.155724  -1.66  -1.54    +49.7180
iter:  17 22:43:16  -867.501573  -1.99  -1.37    +51.7476
iter:  18 22:46:22  -869.380833  -2.27  -1.63    +56.4633
iter:  19 22:49:28  -870.256459  -2.10  -1.64    +59.3343
iter:  20 22:52:34  -869.976678  -2.30  -1.68    +62.2250
iter:  21 22:55:40  -902.862005  -1.75  -1.75    +64.7061
iter:  22 22:58:47  -874.588482  -1.92  -1.39    +65.2101
iter:  23 23:01:53  -871.917575  -2.17  -1.71    +66.5354
iter:  24 23:05:00  -873.992726  -2.18  -1.84    +68.7276
iter:  25 23:08:06  -870.924800  -2.58  -1.78    +70.7968
iter:  26 23:11:12  -870.777575  -2.81  -1.98    +72.7441
iter:  27 23:14:18  -871.553602  -3.05  -2.00    +73.9490
iter:  28 23:17:24  -874.285751  -2.65  -1.96    +74.5677
iter:  29 23:20:31  -872.050439  -2.80  -1.84    +75.0642
iter:  30 23:23:37  -872.011049  -2.83  -1.99    +75.4605
iter:  31 23:26:46  -873.044767  -2.66  -2.05    +75.5289
iter:  32 23:29:56  -872.859760  -2.82  -2.03    +75.0496
iter:  33 23:33:06  -874.011844  -2.65  -2.03    +73.9349
iter:  34 23:36:15  -872.738280  -2.88  -1.96    +74.5068
iter:  35 23:39:24  -877.767534  -2.44  -2.16    +74.3996
iter:  36 23:42:33  -872.359893  -2.91  -1.77    +74.2673
iter:  37 23:45:42  -872.445078  -3.18  -2.31    +73.8538
iter:  38 23:48:51  -872.913170  -3.25  -2.41    +73.9774
iter:  39 23:52:01  -873.596873  -2.90  -2.29    +73.9816
iter:  40 23:55:10  -872.686056  -3.26  -2.12    +73.3605
iter:  41 23:58:19  -872.744417  -3.50  -2.43    +73.1052
iter:  42 00:01:28  -872.685310c -3.73  -2.45    +73.0780
iter:  43 00:04:36  -872.738332c -4.08  -2.51    +72.9475
iter:  44 00:07:44  -872.975884  -3.70  -2.52    +72.7999
iter:  45 00:10:52  -872.843309  -3.83  -2.44    +72.8766
iter:  46 00:14:00  -873.354579  -3.49  -2.48    +72.5377
iter:  47 00:17:08  -872.970594  -3.75  -2.29    +72.4144
iter:  48 00:20:17  -873.064787  -3.84  -2.48    +72.5879
iter:  49 00:23:25  -873.012560c -3.51  -2.48    +72.5882
iter:  50 00:26:33  -873.040835c -3.69  -2.64    +72.6065
iter:  51 00:29:41  -873.015906c -3.70  -2.60    +72.4201
iter:  52 00:32:49  -873.040277c -3.94  -2.75    +72.2438
iter:  53 00:35:57  -873.262069  -3.83  -2.79    +72.0274
iter:  54 00:39:06  -873.094231  -4.00  -2.50    +72.0728
iter:  55 00:42:15  -873.107371  -4.31  -2.86    +71.9629
iter:  56 00:45:24  -873.152726c -4.18  -2.97    +71.8728
iter:  57 00:48:33  -873.216057  -4.03  -2.95    +71.7645
iter:  58 00:51:42  -873.185777c -4.59  -2.87    +71.8000
iter:  59 00:54:52  -873.403377  -3.89  -2.94    +71.7566
iter:  60 00:58:01  -873.400558  -3.84  -2.56    +71.6874
iter:  61 01:01:10  -873.270633  -4.03  -2.54    +71.8878
iter:  62 01:04:19  -873.337053  -3.93  -2.96    +71.8554
iter:  63 01:07:28  -873.384411  -4.30  -2.76    +71.8200
iter:  64 01:10:38  -873.407193c -4.42  -2.65    +71.7981
iter:  65 01:13:48  -873.428861c -4.17  -2.64    +71.6868
iter:  66 01:16:57  -873.365717c -4.05  -2.63    +71.6229
iter:  67 01:20:07  -873.420973c -4.00  -2.83    +71.7316
iter:  68 01:23:15  -873.390627c -4.18  -2.68    +71.9654
iter:  69 01:26:24  -873.400882c -4.34  -2.88    +72.1330
iter:  70 01:29:33  -873.459857c -3.93  -2.94    +72.2874
iter:  71 01:32:42  -873.566854  -4.19  -2.76    +72.2909
iter:  72 01:35:51  -873.482778  -4.54  -2.53    +72.2876
iter:  73 01:39:00  -873.471813c -4.30  -2.68    +72.3690
iter:  74 01:42:09  -873.494181c -4.65  -2.71    +72.1522
iter:  75 01:45:19  -873.945874  -3.42  -2.66    +72.0653
iter:  76 01:48:27  -873.473300  -3.72  -2.32    +72.0151
iter:  77 01:51:35  -873.550321  -4.33  -2.72    +71.9970
iter:  78 01:54:42  -873.529072c -4.28  -2.57    +71.9614
iter:  79 01:57:50  -873.476512c -4.44  -2.59    +71.9230
iter:  80 02:00:59  -873.494690c -4.69  -2.66    +71.8951
iter:  81 02:04:07  -874.699639  -3.17  -2.62    +71.8766
iter:  82 02:07:14  -873.446458  -3.44  -2.13    +71.8833
iter:  83 02:10:20  -873.485396  -4.06  -2.76    +72.1373
iter:  84 02:13:26  -873.419634c -4.50  -2.65    +72.1049
iter:  85 02:16:32  -873.452622c -4.19  -2.85    +72.1009
iter:  86 02:19:38  -873.417251c -4.17  -2.76    +72.0641
iter:  87 02:22:44  -873.410570c -4.38  -2.96    +72.1303
iter:  88 02:25:50  -873.412726c -4.73  -3.03    +72.1506
iter:  89 02:28:57  -873.795644  -3.87  -3.10    +72.2793
iter:  90 02:32:03  -873.409358  -4.33  -2.40    +72.2337
iter:  91 02:35:10  -873.411542  -5.03  -3.33    +72.2597
iter:  92 02:38:17  -873.418471c -5.01  -3.28    +72.3478
iter:  93 02:41:23  -873.436913c -4.79  -3.26    +72.4546
iter:  94 02:44:30  -873.442889c -5.20  -3.07    +72.4965
iter:  95 02:47:36  -873.440528c -4.52  -3.05    +72.5895
iter:  96 02:50:43  -873.460894c -5.06  -3.05    +72.5622
iter:  97 02:53:50  -873.478635c -5.10  -2.98    +72.5600
iter:  98 02:56:56  -873.444157c -4.76  -2.89    +72.6039
iter:  99 03:00:03  -873.443087c -4.83  -2.99    +72.5357
iter: 100 03:03:10  -873.553956  -4.29  -3.02    +72.5994
iter: 101 03:06:17  -873.544893  -3.75  -2.66    +72.6299
iter: 102 03:09:23  -873.514479c -3.91  -2.62    +72.7175
iter: 103 03:12:30  -873.488602c -4.50  -2.73    +72.7893
iter: 104 03:15:37  -873.439682c -4.73  -2.79    +72.7876
iter: 105 03:18:43  -873.436371c -5.14  -3.03    +72.7105
iter: 106 03:21:49  -873.448228c -5.11  -3.08    +72.6742
iter: 107 03:24:57  -873.438390c -4.98  -2.99    +72.6724
iter: 108 03:28:03  -873.463676c -4.41  -3.12    +72.6701
iter: 109 03:31:10  -873.456816c -4.24  -2.92    +72.6693
iter: 110 03:34:17  -873.454219c -4.38  -2.96    +72.5709
iter: 111 03:37:24  -873.444078c -5.23  -3.02    +72.5993
iter: 112 03:40:30  -873.442336c -5.44  -3.17    +72.5682
iter: 113 03:43:36  -873.444167c -5.81  -3.25    +72.5513
iter: 114 03:46:42  -873.439501c -5.20  -3.22    +72.5244
iter: 115 03:49:49  -873.440353c -5.36  -3.53    +72.5303
iter: 116 03:52:54  -873.443539c -5.24  -3.43    +72.5050
iter: 117 03:56:00  -873.444017c -5.50  -3.38    +72.4826
iter: 118 03:59:07  -873.441997c -5.63  -3.40    +72.4644
iter: 119 04:02:15  -873.455157c -5.09  -3.64    +72.4500
iter: 120 04:05:22  -873.443377c -5.44  -3.10    +72.4502
iter: 121 04:08:29  -873.443267c -5.80  -3.62    +72.4674
iter: 122 04:11:36  -873.444446c -6.06  -3.59    +72.4592
iter: 123 04:14:43  -873.445235c -5.86  -3.40    +72.4204
iter: 124 04:17:49  -873.447012c -5.34  -3.50    +72.3348
iter: 125 04:20:57  -873.451653c -5.07  -3.45    +72.2847
iter: 126 04:24:03  -873.451685c -5.26  -3.33    +72.3232
iter: 127 04:27:10  -873.450224c -5.26  -3.25    +72.3321
iter: 128 04:30:17  -873.453866c -5.55  -3.39    +72.3515
iter: 129 04:33:24  -873.450213c -5.81  -3.22    +72.3264
iter: 130 04:36:31  -873.477176c -4.62  -3.34    +72.2858
iter: 131 04:39:38  -873.452432c -4.88  -2.90    +72.3041
iter: 132 04:42:46  -873.609740  -4.02  -3.17    +72.2780
iter: 133 04:45:53  -873.445664  -4.37  -2.58    +72.3115
iter: 134 04:48:59  -873.444467  -5.37  -3.31    +72.3069
iter: 135 04:52:05  -873.442400c -5.75  -3.34    +72.3095
iter: 136 04:55:11  -873.444492c -5.90  -3.53    +72.3158
iter: 137 04:58:18  -873.442763c -5.71  -3.37    +72.3241
iter: 138 05:01:24  -873.442451c -5.68  -3.64    +72.3284
iter: 139 05:04:31  -873.443010c -5.92  -3.74    +72.3468
iter: 140 05:07:37  -873.445396c -5.56  -3.75    +72.3811
iter: 141 05:10:43  -873.444498c -5.77  -3.70    +72.3814
iter: 142 05:13:50  -873.443976c -6.18  -3.56    +72.3763
iter: 143 05:16:56  -873.444146c -6.49  -3.91    +72.3802
iter: 144 05:20:03  -873.444190c -6.40  -3.80    +72.3700
iter: 145 05:23:09  -873.444689c -6.33  -3.94    +72.3819
iter: 146 05:26:18  -873.445211c -6.29  -3.99    +72.3745
iter: 147 05:29:28  -873.445337c -5.88  -3.97    +72.4105
iter: 148 05:32:37  -873.445099c -6.32  -3.68    +72.4196
iter: 149 05:35:46  -873.445287c -6.40  -4.04c   +72.4275
iter: 150 05:38:55  -873.445040c -6.74  -3.85    +72.4188
iter: 151 05:42:05  -873.445038c -7.18  -4.03c   +72.4190
iter: 152 05:45:14  -873.446413c -6.17  -4.03c   +72.4184
iter: 153 05:48:22  -873.445069c -6.79  -3.80    +72.4191
iter: 154 05:51:31  -873.445596c -6.58  -4.17c   +72.4139
iter: 155 05:54:39  -873.445249c -6.62  -3.94    +72.4164
iter: 156 05:57:48  -873.445421c -6.65  -4.03c   +72.4133
iter: 157 06:00:57  -873.445761c -6.81  -4.06c   +72.4124
iter: 158 06:04:07  -873.445066c -6.60  -3.91    +72.4191
iter: 159 06:07:16  -873.445684c -6.78  -4.15c   +72.4227
iter: 160 06:10:25  -873.445315c -6.43  -3.95    +72.4242
iter: 161 06:13:34  -873.445418c -6.66  -4.13c   +72.4191
iter: 162 06:16:43  -873.445381c -7.03  -4.38c   +72.4104
iter: 163 06:19:51  -873.445269c -7.39  -4.33c   +72.4103
iter: 164 06:23:00  -873.445264c -7.52c -4.50c   +72.4080

Converged after 164 iterations.

Dipole moment: (93.985491, 1.764854, -0.049368) |e|*Ang

Total magnetic moment: (0.000000, 0.000000, 72.408037)
Local magnetic moments:
   0 Co ( 0.000000,  0.000000,  1.748805)
   1 Fe ( 0.000000,  0.000000,  2.672032)
   2 Co ( 0.000000,  0.000000,  1.305130)
   3 Fe ( 0.000000,  0.000000,  2.527259)
   4 Co ( 0.000000,  0.000000,  1.545037)
   5 Fe ( 0.000000,  0.000000,  2.588714)
   6 Co ( 0.000000,  0.000000,  1.786614)
   7 Al ( 0.000000,  0.000000, -0.060859)
   8 Co ( 0.000000,  0.000000,  1.498584)
   9 Co ( 0.000000,  0.000000,  1.571806)
  10 Fe ( 0.000000,  0.000000,  2.953231)
  11 Fe ( 0.000000,  0.000000,  2.507925)
  12 Co ( 0.000000,  0.000000,  1.238964)
  13 Co ( 0.000000,  0.000000,  1.744190)
  14 Al ( 0.000000,  0.000000, -0.022195)
  15 Fe ( 0.000000,  0.000000,  3.122715)
  16 Al ( 0.000000,  0.000000, -0.044373)
  17 Co ( 0.000000,  0.000000,  1.504193)
  18 Cr ( 0.000000,  0.000000, -2.632298)
  19 Ni ( 0.000000,  0.000000,  0.440293)
  20 Ni ( 0.000000,  0.000000,  0.343552)
  21 Ni ( 0.000000,  0.000000,  0.254503)
  22 Cr ( 0.000000,  0.000000, -2.739331)
  23 Al ( 0.000000,  0.000000,  0.009485)
  24 Al ( 0.000000,  0.000000, -0.036848)
  25 Al ( 0.000000,  0.000000, -0.027502)
  26 Al ( 0.000000,  0.000000, -0.016078)
  27 Al ( 0.000000,  0.000000, -0.024701)
  28 Fe ( 0.000000,  0.000000,  1.921669)
  29 Cr ( 0.000000,  0.000000,  1.220876)
  30 Al ( 0.000000,  0.000000, -0.047191)
  31 Ni ( 0.000000,  0.000000,  0.260389)
  32 Ni ( 0.000000,  0.000000,  0.345512)
  33 Al ( 0.000000,  0.000000, -0.044788)
  34 Co ( 0.000000,  0.000000,  1.228397)
  35 Al ( 0.000000,  0.000000, -0.040353)
  36 Fe ( 0.000000,  0.000000,  2.561229)
  37 Ni ( 0.000000,  0.000000,  0.537382)
  38 Co ( 0.000000,  0.000000,  1.444660)
  39 Cr ( 0.000000,  0.000000,  1.349776)
  40 Fe ( 0.000000,  0.000000,  2.421912)
  41 Cr ( 0.000000,  0.000000, -1.349449)
  42 Fe ( 0.000000,  0.000000,  2.414430)
  43 Ni ( 0.000000,  0.000000, -0.008325)
  44 Cr ( 0.000000,  0.000000, -2.259863)
  45 Fe ( 0.000000,  0.000000,  1.223639)
  46 Ni ( 0.000000,  0.000000,  0.088295)
  47 Ni ( 0.000000,  0.000000, -0.020356)
  48 Ni ( 0.000000,  0.000000, -0.002271)
  49 Al ( 0.000000,  0.000000, -0.024224)
  50 Co ( 0.000000,  0.000000,  0.962177)
  51 Cr ( 0.000000,  0.000000,  1.426284)
  52 Co ( 0.000000,  0.000000,  1.163822)
  53 Ni ( 0.000000,  0.000000,  0.283098)
  54 Ni ( 0.000000,  0.000000,  0.029588)
  55 Cr ( 0.000000,  0.000000,  1.498827)
  56 Cr ( 0.000000,  0.000000, -1.385075)
  57 Co ( 0.000000,  0.000000,  1.362449)
  58 Co ( 0.000000,  0.000000,  1.564544)
  59 Cr ( 0.000000,  0.000000, -1.455485)
  60 Cr ( 0.000000,  0.000000,  0.465390)
  61 Co ( 0.000000,  0.000000,  0.850825)
  62 Co ( 0.000000,  0.000000,  1.490666)
  63 Ni ( 0.000000,  0.000000,  0.412863)
  64 Al ( 0.000000,  0.000000, -0.010575)
  65 Cr ( 0.000000,  0.000000,  1.007057)
  66 Fe ( 0.000000,  0.000000,  2.085262)
  67 Cr ( 0.000000,  0.000000, -2.242448)
  68 Al ( 0.000000,  0.000000, -0.008567)
  69 Fe ( 0.000000,  0.000000,  1.721531)
  70 Cr ( 0.000000,  0.000000, -2.049484)
  71 Ni ( 0.000000,  0.000000,  0.281000)
  72 Co ( 0.000000,  0.000000,  1.198122)
  73 Co ( 0.000000,  0.000000,  1.299386)
  74 Cr ( 0.000000,  0.000000, -1.453402)
  75 Al ( 0.000000,  0.000000, -0.012611)
  76 Co ( 0.000000,  0.000000,  0.474883)
  77 Ni ( 0.000000,  0.000000,  0.206899)
  78 Fe ( 0.000000,  0.000000,  2.612706)
  79 Fe ( 0.000000,  0.000000,  2.074997)
  80 Al ( 0.000000,  0.000000, -0.013221)
  81 Cr ( 0.000000,  0.000000, -1.394092)
  82 Cr ( 0.000000,  0.000000, -2.043848)
  83 Co ( 0.000000,  0.000000,  1.353751)
  84 Fe ( 0.000000,  0.000000,  2.334329)
  85 Ni ( 0.000000,  0.000000,  0.125280)
  86 Cr ( 0.000000,  0.000000,  0.854943)
  87 Fe ( 0.000000,  0.000000,  2.257807)
  88 Ni ( 0.000000,  0.000000,  0.357891)
  89 Co ( 0.000000,  0.000000,  1.287172)
  90 Co ( 0.000000,  0.000000,  0.941342)
  91 Co ( 0.000000,  0.000000,  0.881998)
  92 Fe ( 0.000000,  0.000000,  2.445449)
  93 Al ( 0.000000,  0.000000, -0.035346)
  94 Ni ( 0.000000,  0.000000,  0.266006)
  95 Cr ( 0.000000,  0.000000, -1.928423)
  96 Co ( 0.000000,  0.000000,  1.292032)
  97 Ni ( 0.000000,  0.000000,  0.304577)
  98 Al ( 0.000000,  0.000000, -0.022346)
  99 Al ( 0.000000,  0.000000, -0.005070)
 100 Cr ( 0.000000,  0.000000,  1.940006)
 101 Cr ( 0.000000,  0.000000, -2.586957)
 102 Fe ( 0.000000,  0.000000,  2.621099)
 103 Cr ( 0.000000,  0.000000, -2.836237)
 104 Al ( 0.000000,  0.000000, -0.009901)
 105 Cr ( 0.000000,  0.000000,  2.475125)
 106 Fe ( 0.000000,  0.000000,  2.488552)
 107 Ni ( 0.000000,  0.000000,  0.052420)
 108 Al ( 0.000000,  0.000000, -0.025439)
 109 Cr ( 0.000000,  0.000000, -2.312458)
 110 Ni ( 0.000000,  0.000000,  0.124556)
 111 Al ( 0.000000,  0.000000, -0.015275)
 112 Fe ( 0.000000,  0.000000,  2.383888)
 113 Al ( 0.000000,  0.000000, -0.027720)
 114 Ni ( 0.000000,  0.000000,  0.198511)
 115 Al ( 0.000000,  0.000000, -0.036949)
 116 Ni ( 0.000000,  0.000000,  0.212168)
 117 Al ( 0.000000,  0.000000, -0.048976)
 118 Fe ( 0.000000,  0.000000,  2.574111)
 119 Cr ( 0.000000,  0.000000, -3.079835)
 120 Fe ( 0.000000,  0.000000,  2.600946)
 121 Ni ( 0.000000,  0.000000,  0.200706)
 122 Ni ( 0.000000,  0.000000,  0.290289)
 123 Fe ( 0.000000,  0.000000,  2.422190)
 124 Fe ( 0.000000,  0.000000,  2.437449)

Energy contributions relative to reference atoms: (reference = -3726899.091688)

Kinetic:       +304.635104
Potential:     -295.825084
External:        +0.000000
XC:            -914.327365
Entropy (-ST):   -4.896863
Local:          +34.520512
--------------------------
Free energy:   -875.893695
Extrapolated:  -873.445264

Dipole-layer corrected work functions: 4.501190, 4.565171 eV

Spin contamination: 42.304094 electrons
Showing all kpts
                      Up                     Down
 Kpt  Band  Eigenvalues  Occupancy  Eigenvalues  Occupancy
  0   523      0.05033    0.99843      1.04199    0.03046
  0   524      0.07259    0.99804      1.05602    0.02658
  0   525      0.08828    0.99771      1.06695    0.02389
  0   526      0.10062    0.99741      1.07601    0.02187

  1   523      0.04000    0.99859      1.05477    0.02691
  1   524      0.04992    0.99844      1.06085    0.02536
  1   525      0.07294    0.99803      1.06670    0.02395
  1   526      0.08119    0.99787      1.07131    0.02290


Fermi level: 0.69596

No gap

Forces in eV/Ang:
  0 Co   -0.04791   -0.11381    1.06442
  1 Fe    0.42927   -0.82811    0.32047
  2 Co   -0.06995    0.01586   -0.61878
  3 Fe    0.00203   -0.19341   -1.28904
  4 Co   -0.47012   -0.27806   -0.61228
  5 Fe   -0.32863   -0.02181    0.24358
  6 Co    0.70123    0.23642    1.25561
  7 Al   -0.23173    0.19348   -0.34969
  8 Co    0.40202   -0.04287   -0.49175
  9 Co    0.01316   -0.55308    0.16231
 10 Fe    0.45288    0.23869    0.72101
 11 Fe   -1.04559   -1.34155    0.28471
 12 Co   -0.30221   -0.84841   -1.87715
 13 Co   -0.15890    0.13155    1.01403
 14 Al    0.17884    1.26656   -0.93802
 15 Fe   -0.25345   -0.31878    1.70891
 16 Al    0.87032    2.03326   -0.49661
 17 Co    0.15761   -1.18269    0.19502
 18 Cr   -0.66481   -1.28641   -0.54799
 19 Ni   -0.15384    0.28004    0.77192
 20 Ni    0.06626   -0.48685    0.67296
 21 Ni   -0.72736    1.01809    0.23068
 22 Cr   -0.15819    1.16508   -1.75757
 23 Al    1.73877    1.17164    0.33352
 24 Al   -0.24575    0.06219   -0.66413
 25 Al    0.35144    0.73832    0.58359
 26 Al   -0.48907    0.24858    0.35283
 27 Al   -0.70184   -1.37206    0.46613
 28 Fe    0.75141   -1.31968    1.49179
 29 Cr    0.16471   -0.18503    0.59052
 30 Al   -1.09482    0.20616   -0.52562
 31 Ni    1.00408   -0.59831    0.38279
 32 Ni    0.24690    0.77120   -1.28633
 33 Al    0.05813   -0.39355    0.47929
 34 Co    0.60607   -0.05126    0.64832
 35 Al   -0.29327   -1.07523   -0.36384
 36 Fe   -0.26278    1.03588    0.92294
 37 Ni   -0.61108   -0.83726    0.47363
 38 Co    0.00750    0.63081    0.41612
 39 Cr   -0.04630    0.23125    0.61894
 40 Fe    0.44206    1.12875    0.24680
 41 Cr   -0.27180   -0.72571    0.70733
 42 Fe    1.01238   -0.70217   -0.20464
 43 Ni    0.64187   -0.29421   -0.27024
 44 Cr   -0.44854    0.39263   -0.18957
 45 Fe    0.28420    0.18322    0.48825
 46 Ni   -1.43744   -0.08595   -1.05953
 47 Ni    2.92052    0.44473    1.66199
 48 Ni   -0.00060    0.31009    0.47328
 49 Al   -0.47729   -0.37357   -1.80362
 50 Co   -0.09935    0.36761    1.07010
 51 Cr   -0.75942    0.89414    0.40701
 52 Co    0.80113   -0.42804   -0.12722
 53 Ni   -0.95190    1.27486    0.34454
 54 Ni    0.40594   -1.16444   -0.19672
 55 Cr   -0.39065    1.09933   -0.17727
 56 Cr   -0.51771   -0.57987    0.44442
 57 Co   -0.58482   -1.11164    0.96257
 58 Co    0.50015   -0.65139    0.25815
 59 Cr    0.28185   -0.15673    0.16107
 60 Cr   -1.12177   -0.01341   -0.47048
 61 Co    0.99831    0.84347    0.31232
 62 Co    0.79760   -0.43173   -0.50601
 63 Ni    1.24933   -0.13605   -1.34562
 64 Al    0.48103    1.35031   -2.02600
 65 Cr    0.10349   -0.04551   -0.61598
 66 Fe   -0.52280   -0.46719    0.40016
 67 Cr    0.50549    0.48345    0.29666
 68 Al    0.05410    0.41813   -0.15484
 69 Fe   -1.14297   -0.19402   -1.11677
 70 Cr   -1.39005    0.21499    0.33599
 71 Ni    0.34444   -0.30787    0.24850
 72 Co    1.00418   -0.45742   -0.05848
 73 Co   -1.12735   -0.40803    0.37483
 74 Cr    1.01737    0.08417   -0.00831
 75 Al   -0.59392    0.34774    0.52363
 76 Co   -0.10671   -1.58785   -0.39001
 77 Ni   -0.57606    0.05092   -0.59619
 78 Fe   -0.40183   -0.04803    0.05311
 79 Fe    1.93659   -0.90292   -1.67214
 80 Al   -0.68138   -0.70534    3.38944
 81 Cr    1.33005    0.70376   -1.14546
 82 Cr   -0.68979   -0.64407   -0.13013
 83 Co    0.49398   -0.38258   -0.61220
 84 Fe    0.01654    0.02682   -1.17384
 85 Ni    0.73334   -0.75314    0.13470
 86 Cr   -0.28462   -0.26973   -0.87894
 87 Fe   -1.31361   -0.45604   -0.03411
 88 Ni   -0.16612    1.17425    1.45247
 89 Co   -1.00692    0.11774   -0.13996
 90 Co    1.38900    0.34078    1.10171
 91 Co    0.73124    0.47614    0.57500
 92 Fe    1.19973    0.93034   -0.06852
 93 Al   -1.06697   -0.18646   -0.59067
 94 Ni   -0.11321    1.04657   -0.54154
 95 Cr    1.11925   -0.56603   -0.21701
 96 Co   -1.74932    0.45541    0.38852
 97 Ni    0.97754    0.26928    0.03130
 98 Al   -0.71788   -0.35584   -0.71775
 99 Al   -2.88496    1.32402    0.15108
100 Cr    0.69618   -1.14803   -1.06883
101 Cr    0.39207    0.41597    0.34004
102 Fe   -0.21212    0.27849   -0.84641
103 Cr    1.31741   -0.65186    0.61132
104 Al   -0.58874   -0.76270    0.44662
105 Cr    1.17712    1.10924   -0.18923
106 Fe    0.30501    0.20059   -0.94642
107 Ni   -0.57268    1.41394   -0.06677
108 Al   -0.73227    1.13075    0.97613
109 Cr    0.15088   -1.53474   -0.09803
110 Ni    0.00025   -0.10730   -0.48581
111 Al    0.70187    0.18100    0.42183
112 Fe   -1.12955   -1.00518   -0.15189
113 Al   -1.37159    1.64391   -0.27461
114 Ni   -0.28152    0.49229    0.67560
115 Al   -0.56782   -0.70808   -0.55660
116 Ni   -0.71359    0.09222    0.52747
117 Al    0.75662    1.52736   -0.19808
118 Fe   -0.35348    0.01330   -0.93400
119 Cr    1.26096   -0.97406   -0.50216
120 Fe   -0.75477   -0.39484   -0.61907
121 Ni    0.55207    0.30809    0.80154
122 Ni    0.09105   -1.79325    0.15262
123 Fe   -0.36931    0.62502   -0.48449
124 Fe    0.22515    0.14056    0.11215

Timing:                              incl.     excl.
-----------------------------------------------------------
Forces:                             61.293    61.293   0.2% |
Hamiltonian:                         2.132     0.016   0.0% |
 Atomic:                             0.671     0.002   0.0% |
  XC Correction:                     0.669     0.669   0.0% |
 Calculate atomic Hamiltonians:      0.692     0.692   0.0% |
 Communicate:                        0.119     0.119   0.0% |
 Initialize Hamiltonian:             0.000     0.000   0.0% |
 Poisson:                            0.124     0.124   0.0% |
 XC 3D grid:                         0.509     0.509   0.0% |
LCAO initialization:               332.452     0.957   0.0% |
 LCAO eigensolver:                  14.304     0.012   0.0% |
  Calculate projections:             0.000     0.000   0.0% |
  DenseAtomicCorrection:             0.000     0.000   0.0% |
  Distribute overlap matrix:         9.260     9.260   0.0% |
  Orbital Layouts:                   4.841     4.841   0.0% |
  Potential matrix:                  0.008     0.008   0.0% |
  Sum over cells:                    0.184     0.184   0.0% |
 LCAO to grid:                     314.489   314.489   1.0% |
 Set positions (LCAO WFS):           2.701     2.291   0.0% |
  Basic WFS set positions:           0.006     0.006   0.0% |
  Basis functions set positions:     0.001     0.001   0.0% |
  P tci:                             0.001     0.001   0.0% |
  ST tci:                            0.149     0.149   0.0% |
  mktci:                             0.254     0.254   0.0% |
PWDescriptor:                        0.118     0.118   0.0% |
SCF-cycle:                       30775.902     1.851   0.0% |
 Davidson:                       29902.393 10842.259  34.8% |-------------|
  Apply H:                         501.997   495.156   1.6% ||
   HMM T:                            6.842     6.842   0.0% |
  Subspace diag:                  3310.181     0.083   0.0% |
   calc_h_matrix:                 1338.819   895.725   2.9% ||
    Apply H:                       443.093   436.272   1.4% ||
     HMM T:                          6.821     6.821   0.0% |
   diagonalize:                    255.379   255.379   0.8% |
   rotate_psi:                    1715.900  1715.900   5.5% |-|
  calc. matrices:                 7832.265  6990.169  22.4% |--------|
   Apply H:                        842.096   826.174   2.6% ||
    HMM T:                          15.922    15.922   0.1% |
  diagonalize:                    3744.080  3744.080  12.0% |----|
  rotate_psi:                     3671.611  3671.611  11.8% |----|
 Density:                          446.994     0.007   0.0% |
  Atomic density matrices:           5.185     5.185   0.0% |
  Mix:                             215.447   215.447   0.7% |
  Multipole moments:                 0.186     0.186   0.0% |
  Pseudo density:                  226.169   226.158   0.7% |
   Symmetrize density:               0.011     0.011   0.0% |
 Hamiltonian:                      399.732     2.356   0.0% |
  Atomic:                          111.014     0.291   0.0% |
   XC Correction:                  110.723   110.723   0.4% |
  Calculate atomic Hamiltonians:   179.598   179.598   0.6% |
  Communicate:                      17.121    17.121   0.1% |
  Poisson:                           8.844     8.844   0.0% |
  XC 3D grid:                       80.798    80.798   0.3% |
 Orthonormalize:                    24.933     0.001   0.0% |
  calc_s_matrix:                     2.917     2.917   0.0% |
  inverse-cholesky:                  0.917     0.917   0.0% |
  projections:                      15.813    15.813   0.1% |
  rotate_psi_s:                      5.285     5.285   0.0% |
Set symmetry:                        0.001     0.001   0.0% |
Other:                              10.060    10.060   0.0% |
-----------------------------------------------------------
Total:                                     31181.958 100.0%

Date: Tue Apr 18 06:24:07 2023
