
  ___ ___ ___ _ _ _  
 |   |   |_  | | | | 
 | | | | | . | | | | 
 |__ |  _|___|_____|  22.8.0
 |___|_|             

User:   c.zeng@d0055
Date:   Thu Apr 13 13:39:36 2023
Arch:   x86_64
Pid:    153374
CWD:    /home/c.zeng/projects/hea-corrosion/hea-mlp/data-curation/bulk-md/dft-jobs/11
Python: 3.8.1
gpaw:   /home/c.zeng/usr/installs/gpaw/source/gpaw-22.8.0/gpaw
_gpaw:  /home/c.zeng/usr/installs/gpaw/source/gpaw-22.8.0/
        _gpaw.cpython-38-x86_64-linux-gnu.so
ase:    /home/c.zeng/.local/lib/python3.8/site-packages/ase-3.22.1-py3.8.egg/ase (version 3.22.1)
numpy:  /shared/centos7/python/3.8.1/lib/python3.8/site-packages/numpy (version 1.17.4)
scipy:  /shared/centos7/python/3.8.1/lib/python3.8/site-packages/scipy (version 1.4.1)
libxc:  4.2.3
units:  Angstrom and eV
cores: 28
OpenMP: False
OMP_NUM_THREADS: 1

Input parameters:
  convergence: {energy: 0.0001}
  kpts: [2 2 2]
  maxiter: 666
  mode: {ecut: 350.0,
         name: pw}
  occupations: {fixmagmom: False,
                name: fermi-dirac,
                width: 0.1}
  spinpol: True
  xc: PBE

System changes: positions, numbers, cell, pbc, initial_charges, initial_magmoms 

Initialize ...

species:
  Co:
    name: Cobalt
    id: 339d20d5b0b93d2de9531a1bee871d91
    Z: 27.0
    valence: 9
    core: 18
    charge: 0.0
    file: /home/c.zeng/usr/data/gpaw-setups-0.9.20000/Co.PBE.gz
    compensation charges: {type: gauss,
                           rc: 0.32,
                           lmax: 2}
    cutoffs: {filter: 1.87,
              core: 2.55}
    valence states:
      #              energy  rcut
      - 4s(2.00)    -5.469   1.005
      - 4p(0.00)    -1.277   1.058
      - 3d(7.00)    -8.205   1.005
      -  s          21.742   1.005
      -  p          25.934   1.058
      -  d          19.007   1.005
  
    # Using partial waves for Co as LCAO basis

  Fe:
    name: Iron
    id: 37abbd8d6c3c35915a9b583b742da910
    Z: 26.0
    valence: 8
    core: 18
    charge: 0.0
    file: /home/c.zeng/usr/data/gpaw-setups-0.9.20000/Fe.PBE.gz
    compensation charges: {type: gauss,
                           rc: 0.33,
                           lmax: 2}
    cutoffs: {filter: 2.06,
              core: 2.67}
    valence states:
      #              energy  rcut
      - 4s(2.00)    -5.291   1.164
      - 4p(0.00)    -1.326   1.058
      - 3d(6.00)    -7.505   1.058
      -  s          21.920   1.164
      -  p          25.885   1.058
      -  d          19.706   1.058
  
    # Using partial waves for Fe as LCAO basis

  Cr:
    name: Chromium
    id: 33f258bda2ca9f93018e70263a35547b
    Z: 24.0
    valence: 6
    core: 18
    charge: 0.0
    file: /home/c.zeng/usr/data/gpaw-setups-0.9.20000/Cr.PBE.gz
    compensation charges: {type: gauss,
                           rc: 0.35,
                           lmax: 2}
    cutoffs: {filter: 2.14,
              core: 3.04}
    valence states:
      #              energy  rcut
      - 4s(1.00)    -4.007   1.164
      - 4p(0.00)    -0.989   1.217
      - 3d(5.00)    -2.913   1.111
      -  s          23.205   1.164
      -  p          26.223   1.217
      -  d          24.299   1.111
  
    # Using partial waves for Cr as LCAO basis

  Ni:
    name: Nickel
    id: 0d9f38a9d6e76a2886f07bb4381f212b
    Z: 28.0
    valence: 16
    core: 12
    charge: 0.0
    file: /home/c.zeng/usr/data/gpaw-setups-0.9.20000/Ni.PBE.gz
    compensation charges: {type: gauss,
                           rc: 0.36,
                           lmax: 2}
    cutoffs: {filter: 2.14,
              core: 1.98}
    valence states:
      #              energy  rcut
      - 4s(2.00)    -5.642   1.164
      - 3p(6.00)   -71.394   1.207
      - 4p(0.00)    -1.226   1.207
      - 3d(8.00)    -8.875   1.138
      -  s          21.570   1.164
      -  d          18.337   1.138
  
    # Using partial waves for Ni as LCAO basis

Reference energy: -3846758.590871  # eV

Spin-polarized calculation.
Magnetic moment: 151.200000

Convergence criteria:
 Maximum [total energy] change in last 3 cyles: 0.0001 eV / electron
 Maximum integral of absolute [dens]ity change: 0.0001 electrons / valence electron
 Maximum integral of absolute [eigenst]ate change: 4e-08 eV^2 / valence electron
 Maximum number of scf [iter]ations: 666
 (Square brackets indicate name in SCF output, whereas a 'c' in
 the SCF output indicates the quantity has converged.)

Symmetries present (total): 1

  ( 1  0  0)
  ( 0  1  0)
  ( 0  0  1)

8 k-points: 2 x 2 x 2 Monkhorst-Pack grid
4 k-points in the irreducible part of the Brillouin zone
       k-points in crystal coordinates                weights
   0:     0.25000000   -0.25000000   -0.25000000          2/8
   1:     0.25000000   -0.25000000    0.25000000          2/8
   2:     0.25000000    0.25000000   -0.25000000          2/8
   3:     0.25000000    0.25000000    0.25000000          2/8

Wave functions: Plane wave expansion
  Cutoff energy: 350.000 eV
  Number of coefficients (min, max): 17755, 17755
  Pulay-stress correction: 0.000000 eV/Ang^3 (de/decut=0.000000)
  Using FFTW library
  ScaLapack parameters: grid=1x1, blocksize=None
  Wavefunction extrapolation:
    Improved wavefunction reuse through dual PAW basis 

Occupation numbers: Fermi-Dirac:
  width: 0.1000  # eV
 

Eigensolver
   Davidson(niter=2) 

Densities:
  Coarse grid: 48*48*48 grid
  Fine grid: 96*96*96 grid
  Total Charge: 0.000000 

Density mixing:
  Method: difference
  Backend: pulay
  Linear mixing parameter: 0.05
  old densities: 5
  Damping of long wavelength oscillations: 50 

Hamiltonian:
  XC and Coulomb potentials evaluated on a 96*96*96 grid
  Using the PBE Exchange-Correlation functional
  External potential:
    NoExternalPotential
 

XC parameters: PBE with 2 nearest neighbor stencil

Memory estimate:
  Process memory now: 249.29 MiB
  Calculator: 698.12 MiB
    Density: 10.77 MiB
      Arrays: 4.31 MiB
      Localized functions: 4.74 MiB
      Mixer: 1.72 MiB
    Hamiltonian: 3.34 MiB
      Arrays: 3.20 MiB
      XC: 0.00 MiB
      Poisson: 0.00 MiB
      vbar: 0.14 MiB
    Wavefunctions: 684.02 MiB
      Arrays psit_nG: 393.92 MiB
      Eigensolver: 278.98 MiB
      Projections: 6.16 MiB
      Projectors: 0.64 MiB
      PW-descriptor: 4.32 MiB

Total number of cores used: 28
Parallelization over k-points: 4
Domain decomposition: 7 x 1 x 1

Number of atoms: 108
Number of atomic orbitals: 1053
Number of bands in calculation: 727
Number of valence electrons: 1053
Bands to converge: occupied

... initialized

Initializing position-dependent things.

Density initialized from atomic densities
Creating initial wave functions:
  727 bands from LCAO basis set

        .--------Cr------Fe-------.  
       /|                   Cr    |  
      / |    Fe                   |  
     /Fe|      Cr      Cro       Co  
    /   |Fe      Cr       Cr      Co 
   /    |  FNi    FeCo      Cr    |  
  /  Coi|  CrFeCr    Ni           |  
 *      Cr    CoNi     NiNiCo     |  
 |      |NiCo   NCo Fe      Co   Fe  
 | Cr   | FeCrFeFe CNi Co   Cr    |  
 |   NiCr  NiFeCr   NiFNi    Ni   |  
 |    NiFe  FeFeFeNi Co FCo       |  
 |      |CoCo   CrNiFe   NNiNi   Co  
 |      .-Cr-Co----CNi-Ni--NiCr---.  
 |     /   Cr Co    CoNiCo       /   
 |    FeCr    FFeNi           Fe/    
 |   /            Fe    Co Fe  /     
 |Co/      Cr     CNi         /      
 | /                   Ni    /r      
 |/   Fe                Co  /        
 *-------------------------*         

Positions:
   0 Co    -0.159277    0.370206   10.454443    ( 0.0000,  0.0000,  2.1000)
   1 Co     0.041026    2.000062    1.736305    ( 0.0000,  0.0000,  2.1000)
   2 Fe     1.724687   -0.015057    1.906697    ( 0.0000,  0.0000,  2.0000)
   3 Fe     1.665088    1.773717   10.678748    ( 0.0000,  0.0000,  2.0000)
   4 Cr     3.590450   -0.016048   10.423714    ( 0.0000,  0.0000,  0.0000)
   5 Cr     3.615414    1.525316    1.682042    ( 0.0000,  0.0000,  0.0000)
   6 Co     5.301775   10.549963    1.705638    ( 0.0000,  0.0000,  2.1000)
   7 Cr     5.293102    1.761165   10.568098    ( 0.0000,  0.0000,  0.0000)
   8 Fe     6.917281   -0.075752   10.608853    ( 0.0000,  0.0000,  2.0000)
   9 Ni     6.885221    1.952181    1.637036    ( 0.0000,  0.0000,  1.5000)
  10 Ni     8.825697    0.280594    1.638139    ( 0.0000,  0.0000,  1.5000)
  11 Co     8.809668    1.877604   10.666597    ( 0.0000,  0.0000,  2.1000)
  12 Cr    10.524780    3.539433    0.008309    ( 0.0000,  0.0000,  0.0000)
  13 Fe    10.457655    5.156421    1.654326    ( 0.0000,  0.0000,  2.0000)
  14 Cr     1.796462    3.679087    1.868763    ( 0.0000,  0.0000,  0.0000)
  15 Fe     1.916580    5.315309   10.542424    ( 0.0000,  0.0000,  2.0000)
  16 Ni     3.694645    3.511573   10.535083    ( 0.0000,  0.0000,  1.5000)
  17 Co     3.776413    5.425146    1.707208    ( 0.0000,  0.0000,  2.1000)
  18 Ni     5.383199    3.735023    1.794857    ( 0.0000,  0.0000,  1.5000)
  19 Cr     5.329845    5.284327   10.623495    ( 0.0000,  0.0000,  0.0000)
  20 Co     6.984593    3.604374   10.503501    ( 0.0000,  0.0000,  2.1000)
  21 Ni     7.223026    5.336634    1.890672    ( 0.0000,  0.0000,  1.5000)
  22 Co     8.662784    3.432505    1.806972    ( 0.0000,  0.0000,  2.1000)
  23 Cr     8.828352    5.199158   -0.103901    ( 0.0000,  0.0000,  0.0000)
  24 Fe     0.027367    6.935122   10.412133    ( 0.0000,  0.0000,  2.0000)
  25 Co    10.580587    9.066403    1.748925    ( 0.0000,  0.0000,  2.1000)
  26 Cr     1.695246    7.092889    1.743878    ( 0.0000,  0.0000,  0.0000)
  27 Cr     1.860767    8.862364   10.734809    ( 0.0000,  0.0000,  0.0000)
  28 Fe     3.567919    7.005930   10.625279    ( 0.0000,  0.0000,  2.0000)
  29 Cr     3.602648    8.765382    1.613290    ( 0.0000,  0.0000,  0.0000)
  30 Co     5.354617    6.988487    1.813808    ( 0.0000,  0.0000,  2.1000)
  31 Co     5.485290    8.559700   10.806932    ( 0.0000,  0.0000,  2.1000)
  32 Cr     7.015495    6.879687   10.562239    ( 0.0000,  0.0000,  0.0000)
  33 Ni     7.322529    8.890555    1.694564    ( 0.0000,  0.0000,  1.5000)
  34 Ni     8.875838    6.991732    1.600099    ( 0.0000,  0.0000,  1.5000)
  35 Cr     8.845470    8.829661   10.560439    ( 0.0000,  0.0000,  0.0000)
  36 Fe    -0.143900   10.809640    3.455660    ( 0.0000,  0.0000,  2.0000)
  37 Ni    10.429256    1.905598    5.372037    ( 0.0000,  0.0000,  1.5000)
  38 Cr     1.800290   -0.061723    5.373618    ( 0.0000,  0.0000,  0.0000)
  39 Fe     1.741180    1.717321    3.526508    ( 0.0000,  0.0000,  2.0000)
  40 Fe     3.405272   -0.158692    3.660268    ( 0.0000,  0.0000,  2.0000)
  41 Co     3.757309    1.523400    5.460335    ( 0.0000,  0.0000,  2.1000)
  42 Cr     5.302101   -0.074093    5.503505    ( 0.0000,  0.0000,  0.0000)
  43 Fe     5.266539    1.606705    3.617171    ( 0.0000,  0.0000,  2.0000)
  44 Fe     7.077810    0.024725    3.519267    ( 0.0000,  0.0000,  2.0000)
  45 Fe     7.239009    1.862235    5.242043    ( 0.0000,  0.0000,  2.0000)
  46 Ni     9.006220    0.076653    5.534792    ( 0.0000,  0.0000,  1.5000)
  47 Co     8.804528    1.886262    3.511364    ( 0.0000,  0.0000,  2.1000)
  48 Cr    -0.022678    3.469568    3.469206    ( 0.0000,  0.0000,  0.0000)
  49 Ni     0.196693    5.214133    5.122330    ( 0.0000,  0.0000,  1.5000)
  50 Fe     1.878688    3.433068    5.280961    ( 0.0000,  0.0000,  2.0000)
  51 Co     1.917871    5.533630    3.535748    ( 0.0000,  0.0000,  2.1000)
  52 Co     3.751354    3.762661    3.549653    ( 0.0000,  0.0000,  2.1000)
  53 Fe     3.517563    5.319093    5.357820    ( 0.0000,  0.0000,  2.0000)
  54 Fe     5.189621    3.411430    5.214382    ( 0.0000,  0.0000,  2.0000)
  55 Ni     5.468092    5.500880    3.895977    ( 0.0000,  0.0000,  1.5000)
  56 Ni     6.899052    3.502550    3.545467    ( 0.0000,  0.0000,  1.5000)
  57 Fe     7.094861    5.513762    5.526508    ( 0.0000,  0.0000,  2.0000)
  58 Co     8.811997    3.701413    5.353244    ( 0.0000,  0.0000,  2.1000)
  59 Ni     8.917108    5.169597    3.506997    ( 0.0000,  0.0000,  1.5000)
  60 Ni     0.022908    7.055190    3.409770    ( 0.0000,  0.0000,  1.5000)
  61 Fe    10.449102    9.069349    5.210088    ( 0.0000,  0.0000,  2.0000)
  62 Fe     1.618836    6.883166    5.302241    ( 0.0000,  0.0000,  2.0000)
  63 Ni     1.486046    8.899458    3.514881    ( 0.0000,  0.0000,  1.5000)
  64 Fe     3.566634    7.154960    3.491788    ( 0.0000,  0.0000,  2.0000)
  65 Ni     3.620148    8.949659    5.296463    ( 0.0000,  0.0000,  1.5000)
  66 Co     5.316159    7.162900    5.431827    ( 0.0000,  0.0000,  2.1000)
  67 Ni     5.381638    8.801956    3.513222    ( 0.0000,  0.0000,  1.5000)
  68 Fe     7.377171    7.108617    3.458212    ( 0.0000,  0.0000,  2.0000)
  69 Co     7.152298    8.685326    5.539061    ( 0.0000,  0.0000,  2.1000)
  70 Cr     9.020238    7.149717    5.290937    ( 0.0000,  0.0000,  0.0000)
  71 Ni     8.863945    9.158834    3.456985    ( 0.0000,  0.0000,  1.5000)
  72 Co    10.548387   10.395507    7.148081    ( 0.0000,  0.0000,  2.1000)
  73 Co    -0.111210    1.803040    8.708058    ( 0.0000,  0.0000,  2.1000)
  74 Fe     1.849590   -0.026432    8.884933    ( 0.0000,  0.0000,  2.0000)
  75 Cr     1.901125    1.661861    6.961537    ( 0.0000,  0.0000,  0.0000)
  76 Cr     3.572637   -0.113051    7.066523    ( 0.0000,  0.0000,  0.0000)
  77 Co     3.616720    1.782315    8.786277    ( 0.0000,  0.0000,  2.1000)
  78 Fe     5.346330   10.661122    8.963609    ( 0.0000,  0.0000,  2.0000)
  79 Cr     5.294987    1.641054    7.036614    ( 0.0000,  0.0000,  0.0000)
  80 Ni     6.914605    0.117716    7.082332    ( 0.0000,  0.0000,  1.5000)
  81 Fe     7.182763    1.797696    8.878433    ( 0.0000,  0.0000,  2.0000)
  82 Co     8.899006    0.000751    8.879861    ( 0.0000,  0.0000,  2.1000)
  83 Ni     8.543802    1.819667    7.111722    ( 0.0000,  0.0000,  1.5000)
  84 Cr    10.640766    3.670956    7.037929    ( 0.0000,  0.0000,  0.0000)
  85 Co     0.249688    5.188647    8.869251    ( 0.0000,  0.0000,  2.1000)
  86 Cr     1.756946    3.404994    9.057735    ( 0.0000,  0.0000,  0.0000)
  87 Ni     1.905071    5.413176    7.026938    ( 0.0000,  0.0000,  1.5000)
  88 Cr     3.617494    3.320811    7.048065    ( 0.0000,  0.0000,  0.0000)
  89 Fe     3.641207    5.303248    8.759686    ( 0.0000,  0.0000,  2.0000)
  90 Ni     5.187385    3.597867    8.767574    ( 0.0000,  0.0000,  1.5000)
  91 Co     5.145602    5.169648    6.923383    ( 0.0000,  0.0000,  2.1000)
  92 Ni     6.836342    3.684505    7.010630    ( 0.0000,  0.0000,  1.5000)
  93 Ni     6.971403    5.079519    8.862878    ( 0.0000,  0.0000,  1.5000)
  94 Ni     9.053640    3.495654    8.682213    ( 0.0000,  0.0000,  1.5000)
  95 Cr     8.983105    5.454516    7.281473    ( 0.0000,  0.0000,  0.0000)
  96 Ni     0.102493    6.956927    7.306411    ( 0.0000,  0.0000,  1.5000)
  97 Co    -0.036534    8.896469    8.956170    ( 0.0000,  0.0000,  2.1000)
  98 Fe     2.068321    7.105150    8.784510    ( 0.0000,  0.0000,  2.0000)
  99 Cr     1.580051    8.728585    7.038876    ( 0.0000,  0.0000,  0.0000)
 100 Co     3.500540    7.308662    6.956560    ( 0.0000,  0.0000,  2.1000)
 101 Cr     3.419985    8.978197    8.784635    ( 0.0000,  0.0000,  0.0000)
 102 Fe     5.207619    6.976922    8.630679    ( 0.0000,  0.0000,  2.0000)
 103 Co     5.316833    8.920506    7.446867    ( 0.0000,  0.0000,  2.1000)
 104 Ni     7.159450    7.117007    7.072515    ( 0.0000,  0.0000,  1.5000)
 105 Co     7.106205    8.561088    9.030188    ( 0.0000,  0.0000,  2.1000)
 106 Cr     8.965700    6.918857    8.849651    ( 0.0000,  0.0000,  0.0000)
 107 Cr     8.750463    8.943451    7.229046    ( 0.0000,  0.0000,  0.0000)

Unit cell:
           periodic     x           y           z      points  spacing
  1. axis:    yes   10.614300    0.000000    0.000000    48     0.2211
  2. axis:    yes    0.000000   10.614300    0.000000    48     0.2211
  3. axis:    yes    0.000000    0.000000   10.614300    48     0.2211

  Lengths:  10.614300  10.614300  10.614300
  Angles:   90.000000  90.000000  90.000000

Effective grid spacing dv^(1/3) = 0.2211

     iter     time        total  log10-change:  magmom
                         energy  eigst   dens
iter:   1 13:43:23 -1064.528016                  +151.4733
iter:   2 13:44:40  -937.054002  -0.29  -1.21    +86.2966
iter:   3 13:45:57  -925.153201  -0.95  -1.24    +71.1620
iter:   4 13:47:15  -921.382959  -1.20  -1.31    +66.4184
iter:   5 13:48:32  -896.655523  -1.59  -1.28    +61.0220
iter:   6 13:49:49  -898.504035  -1.31  -1.38    +60.5813
iter:   7 13:51:06  -896.736231  -1.20  -1.46    +58.9563
iter:   8 13:52:24  -875.186871  -1.55  -1.53    +57.0821
iter:   9 13:53:41  -874.714787  -2.16  -1.81    +58.0720
iter:  10 13:54:58  -874.301060  -2.28  -1.83    +59.6203
iter:  11 13:56:15  -874.128242  -2.54  -1.87    +61.1146
iter:  12 13:57:33  -874.370903  -2.63  -1.90    +62.1776
iter:  13 13:58:50  -875.365609  -2.54  -1.94    +63.3625
iter:  14 14:00:07  -875.932471  -2.41  -1.99    +64.1038
iter:  15 14:01:24  -875.531301  -2.55  -2.02    +64.7187
iter:  16 14:02:41  -875.512243  -2.63  -2.10    +64.6019
iter:  17 14:03:59  -875.001485  -2.85  -2.15    +65.2332
iter:  18 14:05:16  -874.955853  -2.96  -2.21    +65.9744
iter:  19 14:06:33  -874.840685  -3.25  -2.24    +66.1100
iter:  20 14:07:50  -874.851056  -3.21  -2.29    +66.3649
iter:  21 14:09:08  -874.908655c -3.15  -2.37    +66.5829
iter:  22 14:10:25  -874.856750c -3.29  -2.35    +67.1756
iter:  23 14:11:42  -875.161346  -3.16  -2.43    +67.1395
iter:  24 14:12:59  -874.884770  -3.23  -2.35    +67.1709
iter:  25 14:14:17  -874.994477  -3.25  -2.50    +67.5682
iter:  26 14:15:34  -874.753742  -3.56  -2.45    +67.7907
iter:  27 14:16:51  -874.849322  -3.62  -2.64    +68.0069
iter:  28 14:18:08  -874.738376  -3.90  -2.60    +67.9311
iter:  29 14:19:25  -874.789790  -3.96  -2.72    +68.1909
iter:  30 14:20:43  -874.765084c -4.23  -2.69    +68.2115
iter:  31 14:22:00  -874.841225c -4.04  -2.77    +68.2256
iter:  32 14:23:17  -874.784378c -4.21  -2.71    +68.2001
iter:  33 14:24:34  -874.876605c -3.91  -2.82    +68.2437
iter:  34 14:25:52  -874.832210c -4.02  -2.73    +68.3342
iter:  35 14:27:09  -874.875517c -4.02  -2.84    +68.2491
iter:  36 14:28:26  -874.821450c -4.19  -2.77    +68.2142
iter:  37 14:29:43  -874.843781c -4.23  -2.92    +68.2804
iter:  38 14:31:00  -874.817259c -4.48  -2.86    +68.3106
iter:  39 14:32:18  -874.827560c -4.79  -2.99    +68.3153
iter:  40 14:33:35  -874.820593c -4.72  -3.00    +68.2768
iter:  41 14:34:52  -874.826759c -5.00  -3.02    +68.3380
iter:  42 14:36:09  -874.830811c -4.85  -3.05    +68.3482
iter:  43 14:37:26  -874.853881c -4.65  -3.05    +68.3505
iter:  44 14:38:44  -874.851710c -4.38  -3.03    +68.3635
iter:  45 14:40:01  -874.849139c -4.51  -2.99    +68.4072
iter:  46 14:41:18  -874.865274c -4.40  -3.10    +68.4747
iter:  47 14:42:35  -874.842430c -4.68  -3.04    +68.3954
iter:  48 14:43:52  -874.837409c -4.97  -3.18    +68.3987
iter:  49 14:45:10  -874.834836c -5.57  -3.26    +68.4359
iter:  50 14:46:27  -874.838812c -5.58  -3.34    +68.4597
iter:  51 14:47:44  -874.838716c -6.12  -3.34    +68.4586
iter:  52 14:49:01  -874.845605c -5.17  -3.38    +68.4602
iter:  53 14:50:18  -874.849886c -4.99  -3.31    +68.4758
iter:  54 14:51:36  -874.849740c -4.90  -3.32    +68.4869
iter:  55 14:52:53  -874.846719c -5.16  -3.32    +68.4514
iter:  56 14:54:10  -874.847258c -5.06  -3.49    +68.4638
iter:  57 14:55:27  -874.843626c -5.29  -3.37    +68.4834
iter:  58 14:56:45  -874.843538c -6.06  -3.64    +68.5143
iter:  59 14:58:02  -874.843690c -6.37  -3.79    +68.5143
iter:  60 14:59:19  -874.844580c -6.54  -3.83    +68.5318
iter:  61 15:00:36  -874.845189c -6.26  -3.85    +68.5460
iter:  62 15:01:54  -874.845663c -6.18  -3.85    +68.5540
iter:  63 15:03:11  -874.846342c -6.34  -4.08c   +68.5645
iter:  64 15:04:28  -874.845998c -6.48  -4.09c   +68.5663
iter:  65 15:05:45  -874.846348c -6.74  -4.19c   +68.5791
iter:  66 15:07:03  -874.846443c -6.92  -4.36c   +68.5853
iter:  67 15:08:20  -874.846880c -6.99  -4.35c   +68.5950
iter:  68 15:09:37  -874.847206c -6.91  -4.41c   +68.6039
iter:  69 15:10:54  -874.848482c -5.90  -4.42c   +68.6365
iter:  70 15:12:11  -874.850531c -5.28  -4.25c   +68.7043
iter:  71 15:13:29  -874.850771c -6.13  -4.02c   +68.7172
iter:  72 15:14:46  -874.850767c -6.62  -4.02c   +68.7210
iter:  73 15:16:03  -874.850531c -6.89  -4.04c   +68.7211
iter:  74 15:17:21  -874.850777c -6.83  -4.03c   +68.7225
iter:  75 15:18:38  -874.851388c -5.98  -3.97    +68.7267
iter:  76 15:19:55  -874.851029c -6.50  -3.97    +68.7283
iter:  77 15:21:13  -874.850420c -6.52  -4.17c   +68.7185
iter:  78 15:22:30  -874.850687c -6.93  -4.11c   +68.7192
iter:  79 15:23:47  -874.850589c -7.37  -4.33c   +68.7134
iter:  80 15:25:04  -874.850640c -7.10  -4.39c   +68.7108
iter:  81 15:26:22  -874.850465c -7.42c -4.35c   +68.7087

Converged after 81 iterations.

Dipole moment: (31.551642, 0.630400, 30.251032) |e|*Ang

Total magnetic moment: (0.000000, 0.000000, 68.708685)
Local magnetic moments:
   0 Co ( 0.000000,  0.000000,  1.470638)
   1 Co ( 0.000000,  0.000000,  0.269748)
   2 Fe ( 0.000000,  0.000000,  1.905802)
   3 Fe ( 0.000000,  0.000000,  1.757050)
   4 Cr ( 0.000000,  0.000000, -0.141742)
   5 Cr ( 0.000000,  0.000000, -1.411802)
   6 Co ( 0.000000,  0.000000,  0.413517)
   7 Cr ( 0.000000,  0.000000,  0.109919)
   8 Fe ( 0.000000,  0.000000,  2.173822)
   9 Ni ( 0.000000,  0.000000,  0.359769)
  10 Ni ( 0.000000,  0.000000,  0.569722)
  11 Co ( 0.000000,  0.000000,  1.436863)
  12 Cr ( 0.000000,  0.000000, -0.102864)
  13 Fe ( 0.000000,  0.000000,  1.532327)
  14 Cr ( 0.000000,  0.000000, -1.671204)
  15 Fe ( 0.000000,  0.000000,  1.578774)
  16 Ni ( 0.000000,  0.000000,  0.061734)
  17 Co ( 0.000000,  0.000000,  1.162577)
  18 Ni ( 0.000000,  0.000000,  0.375383)
  19 Cr ( 0.000000,  0.000000, -1.014963)
  20 Co ( 0.000000,  0.000000,  1.038165)
  21 Ni ( 0.000000,  0.000000,  0.364716)
  22 Co ( 0.000000,  0.000000,  1.327967)
  23 Cr ( 0.000000,  0.000000, -0.398359)
  24 Fe ( 0.000000,  0.000000,  1.768343)
  25 Co ( 0.000000,  0.000000,  1.262488)
  26 Cr ( 0.000000,  0.000000, -1.618748)
  27 Cr ( 0.000000,  0.000000,  0.011398)
  28 Fe ( 0.000000,  0.000000,  1.515094)
  29 Cr ( 0.000000,  0.000000, -1.050024)
  30 Co ( 0.000000,  0.000000,  1.201324)
  31 Co ( 0.000000,  0.000000,  0.920131)
  32 Cr ( 0.000000,  0.000000,  0.528964)
  33 Ni ( 0.000000,  0.000000,  0.328220)
  34 Ni ( 0.000000,  0.000000,  0.218458)
  35 Cr ( 0.000000,  0.000000, -1.638059)
  36 Fe ( 0.000000,  0.000000,  2.203308)
  37 Ni ( 0.000000,  0.000000,  0.232811)
  38 Cr ( 0.000000,  0.000000, -0.895438)
  39 Fe ( 0.000000,  0.000000,  1.984131)
  40 Fe ( 0.000000,  0.000000,  2.014180)
  41 Co ( 0.000000,  0.000000, -0.017573)
  42 Cr ( 0.000000,  0.000000, -0.492299)
  43 Fe ( 0.000000,  0.000000,  2.136687)
  44 Fe ( 0.000000,  0.000000,  2.683876)
  45 Fe ( 0.000000,  0.000000,  2.408283)
  46 Ni ( 0.000000,  0.000000,  0.420550)
  47 Co ( 0.000000,  0.000000,  1.395362)
  48 Cr ( 0.000000,  0.000000, -0.898938)
  49 Ni ( 0.000000,  0.000000,  0.303654)
  50 Fe ( 0.000000,  0.000000,  2.127482)
  51 Co ( 0.000000,  0.000000,  1.135663)
  52 Co ( 0.000000,  0.000000,  1.426034)
  53 Fe ( 0.000000,  0.000000,  2.244850)
  54 Fe ( 0.000000,  0.000000,  2.002988)
  55 Ni ( 0.000000,  0.000000,  0.610798)
  56 Ni ( 0.000000,  0.000000,  0.523862)
  57 Fe ( 0.000000,  0.000000,  2.394132)
  58 Co ( 0.000000,  0.000000,  1.322282)
  59 Ni ( 0.000000,  0.000000,  0.426252)
  60 Ni ( 0.000000,  0.000000,  0.288238)
  61 Fe ( 0.000000,  0.000000,  1.921466)
  62 Fe ( 0.000000,  0.000000,  2.431575)
  63 Ni ( 0.000000,  0.000000,  0.397965)
  64 Fe ( 0.000000,  0.000000,  2.330888)
  65 Ni ( 0.000000,  0.000000,  0.258904)
  66 Co ( 0.000000,  0.000000,  1.569686)
  67 Ni ( 0.000000,  0.000000,  0.506713)
  68 Fe ( 0.000000,  0.000000,  2.643205)
  69 Co ( 0.000000,  0.000000,  1.200397)
  70 Cr ( 0.000000,  0.000000, -2.126129)
  71 Ni ( 0.000000,  0.000000,  0.530009)
  72 Co ( 0.000000,  0.000000,  0.803904)
  73 Co ( 0.000000,  0.000000,  1.207569)
  74 Fe ( 0.000000,  0.000000,  1.201682)
  75 Cr ( 0.000000,  0.000000,  0.475286)
  76 Cr ( 0.000000,  0.000000,  0.121538)
  77 Co ( 0.000000,  0.000000, -0.069440)
  78 Fe ( 0.000000,  0.000000,  1.288930)
  79 Cr ( 0.000000,  0.000000, -0.541876)
  80 Ni ( 0.000000,  0.000000,  0.213657)
  81 Fe ( 0.000000,  0.000000,  2.374144)
  82 Co ( 0.000000,  0.000000,  0.955541)
  83 Ni ( 0.000000,  0.000000,  0.587298)
  84 Cr ( 0.000000,  0.000000, -1.355075)
  85 Co ( 0.000000,  0.000000,  0.517313)
  86 Cr ( 0.000000,  0.000000, -0.583078)
  87 Ni ( 0.000000,  0.000000,  0.442372)
  88 Cr ( 0.000000,  0.000000, -1.057291)
  89 Fe ( 0.000000,  0.000000,  1.790798)
  90 Ni ( 0.000000,  0.000000,  0.200208)
  91 Co ( 0.000000,  0.000000,  1.260429)
  92 Ni ( 0.000000,  0.000000,  0.451181)
  93 Ni ( 0.000000,  0.000000,  0.173198)
  94 Ni ( 0.000000,  0.000000,  0.117569)
  95 Cr ( 0.000000,  0.000000,  0.687348)
  96 Ni ( 0.000000,  0.000000,  0.182146)
  97 Co ( 0.000000,  0.000000,  0.710296)
  98 Fe ( 0.000000,  0.000000,  1.310328)
  99 Cr ( 0.000000,  0.000000, -1.075923)
 100 Co ( 0.000000,  0.000000,  1.156480)
 101 Cr ( 0.000000,  0.000000, -0.463827)
 102 Fe ( 0.000000,  0.000000,  2.284237)
 103 Co ( 0.000000,  0.000000,  0.991802)
 104 Ni ( 0.000000,  0.000000,  0.351484)
 105 Co ( 0.000000,  0.000000,  0.386415)
 106 Cr ( 0.000000,  0.000000, -0.068565)
 107 Cr ( 0.000000,  0.000000, -1.274155)

Energy contributions relative to reference atoms: (reference = -3846758.590871)

Kinetic:       +362.953533
Potential:     -382.757777
External:        +0.000000
XC:            -892.406361
Entropy (-ST):   -4.672659
Local:          +39.696470
--------------------------
Free energy:   -877.186794
Extrapolated:  -874.850465

Spin contamination: 24.526866 electrons
Showing only first 2 kpts
                      Up                     Down
 Kpt  Band  Eigenvalues  Occupancy  Eigenvalues  Occupancy
  0   524      9.84645    0.99555     10.76480    0.02247
  0   525      9.85545    0.99513     10.77795    0.01975
  0   526      9.86561    0.99462     10.79441    0.01681
  0   527      9.87367    0.99417     10.80597    0.01500

  1   524      9.85615    0.99510     10.77180    0.02098
  1   525      9.86756    0.99451     10.79094    0.01739
  1   526      9.87835    0.99389     10.79969    0.01596
  1   527      9.89177    0.99302     10.80982    0.01444


Fermi level: 10.38751

No gap

Forces in eV/Ang:
  0 Co    1.69152   -2.59598    1.55668
  1 Co   -0.20164   -1.09770    0.32813
  2 Fe    0.28148    0.60909   -1.40198
  3 Fe    1.45654   -0.01821   -0.33615
  4 Cr   -0.32437   -0.02699    1.57885
  5 Cr   -0.07256    1.07286    0.49546
  6 Co    0.07870   -0.31579    0.41032
  7 Cr   -0.07927    0.68507    0.10803
  8 Fe    1.14930    0.22859    0.10403
  9 Ni    0.50613   -1.80951    0.84657
 10 Ni   -0.37483   -1.14913    0.65874
 11 Co   -0.76577    0.83708   -1.18231
 12 Cr    0.26865    0.08789   -0.35520
 13 Fe    1.13696    0.71837    0.48492
 14 Cr    0.93885    0.00891   -0.61218
 15 Fe   -0.06510   -0.39989    0.93162
 16 Ni   -1.37761   -0.10430    1.38728
 17 Co   -1.99756   -1.10405    1.13097
 18 Ni   -0.68428   -0.83444   -0.14828
 19 Cr    0.12299    0.42576   -0.41029
 20 Co    0.45195   -0.86935    1.16889
 21 Ni   -0.97524   -0.47270   -0.74061
 22 Co    0.88392    0.78080   -0.50880
 23 Cr   -0.13981    0.07949   -0.11860
 24 Fe    0.77056    0.78053    1.26093
 25 Co   -0.52635   -0.94010   -1.03059
 26 Cr   -0.04531   -0.55942   -0.53389
 27 Cr   -1.21163    0.11465   -0.21332
 28 Fe    0.15587    0.70233   -0.34059
 29 Cr    0.12402    0.71333    0.81396
 30 Co    0.94665    0.49011    0.79160
 31 Co   -1.12199    1.51723   -1.48933
 32 Cr    0.46971    0.03614    0.64174
 33 Ni   -1.14763   -0.38564    0.66382
 34 Ni    0.77985    0.73272    0.12477
 35 Cr    0.69264    0.37561    0.01449
 36 Fe    0.54026    0.35268    0.65517
 37 Ni    1.23114   -0.36016    0.11453
 38 Cr   -0.77576    0.87103   -0.31587
 39 Fe    0.71248    0.66436    0.43391
 40 Fe    0.68994    0.64755   -1.57969
 41 Co   -2.20815    1.42660   -2.23475
 42 Cr    1.00117   -0.99031   -1.61508
 43 Fe   -0.21867    0.35604   -0.97581
 44 Fe   -0.10862   -0.01499    0.02535
 45 Fe   -1.04491   -0.32416    0.19862
 46 Ni   -2.90485    0.38968   -1.58458
 47 Co   -0.22983   -0.23942    0.19742
 48 Cr    0.22927    0.07235    0.58629
 49 Ni   -1.73409   -0.49010    0.92767
 50 Fe   -0.02584    0.25019   -0.34970
 51 Co   -0.20833   -1.80634   -1.30957
 52 Co   -1.44892   -0.92947   -1.02526
 53 Fe    0.15933    0.26983   -0.63799
 54 Fe    0.63910    0.18048    0.92758
 55 Ni   -0.43047   -0.58954   -2.13858
 56 Ni    0.93765    0.52025    0.49925
 57 Fe    0.68489   -1.29847   -1.59315
 58 Co   -0.25250   -0.04641    0.33083
 59 Ni   -0.30709    0.99270    0.58316
 60 Ni   -1.12544    0.05728    0.19471
 61 Fe    1.21199   -2.05663    0.45613
 62 Fe    0.71063    3.40014    0.06291
 63 Ni    1.63769   -0.59413    0.52056
 64 Fe    0.14921    0.26356    0.25050
 65 Ni   -0.54150   -1.79078    0.03618
 66 Co    0.11124    0.90308    0.31932
 67 Ni    0.35258    0.20879    0.24497
 68 Fe   -0.86910    0.70272    0.84721
 69 Co   -0.27344    1.92894   -1.96761
 70 Cr    0.13184   -0.61291   -0.01436
 71 Ni   -0.25092   -1.52484    0.56457
 72 Co    1.42285    1.44723    0.66140
 73 Co    1.19508   -0.58952   -0.80985
 74 Fe   -1.38278    0.82109   -0.43035
 75 Cr   -1.57013    0.08593    0.72786
 76 Cr   -0.60516    0.41476    1.25773
 77 Co   -0.53937   -0.61153    0.38367
 78 Fe    0.27537   -0.35178   -0.52995
 79 Cr    0.41439    1.41783    1.28142
 80 Ni    2.26120   -1.93532    0.46188
 81 Fe   -0.94981    0.57419    0.62276
 82 Co   -1.52597   -0.07425   -0.60015
 83 Ni    2.09937    0.39944   -0.38371
 84 Cr    0.92399   -0.54985   -0.76304
 85 Co   -0.20304   -0.03876   -0.03903
 86 Cr    0.50826    0.16559   -0.93580
 87 Ni   -0.57329   -1.75161    0.89864
 88 Cr   -1.22219    1.24386   -0.26470
 89 Fe   -1.40423   -0.13805    0.20078
 90 Ni    1.22658   -1.27278    0.21819
 91 Co    0.21633    1.56097    0.40152
 92 Ni    1.83085   -1.64499   -0.31820
 93 Ni    1.11423    2.12502   -1.50717
 94 Ni   -2.18993    1.18981    1.14568
 95 Cr   -0.99430   -1.30773   -1.09969
 96 Ni    0.06147    1.00581   -0.86419
 97 Co    0.95670   -0.33420    0.11338
 98 Fe   -1.33160   -0.00744    0.79978
 99 Cr    0.64995    1.01563   -0.20453
100 Co    0.44264   -1.12449    0.02320
101 Cr    0.77922   -1.28075    0.80397
102 Fe    0.61435    0.15285    1.08844
103 Co    1.00268   -0.47625   -2.00306
104 Ni   -0.45043   -0.63321    2.04332
105 Co   -0.13772    1.40620   -0.87732
106 Cr   -1.26925    0.57397    0.32751
107 Cr    0.39588   -0.57450    0.45896

Timing:                              incl.     excl.
-----------------------------------------------------------
Forces:                             17.467    17.467   0.3% |
Hamiltonian:                         0.661     0.003   0.0% |
 Atomic:                             0.304     0.076   0.0% |
  XC Correction:                     0.228     0.228   0.0% |
 Calculate atomic Hamiltonians:      0.222     0.222   0.0% |
 Communicate:                        0.001     0.001   0.0% |
 Initialize Hamiltonian:             0.000     0.000   0.0% |
 Poisson:                            0.001     0.001   0.0% |
 XC 3D grid:                         0.130     0.130   0.0% |
LCAO initialization:               138.891     0.663   0.0% |
 LCAO eigensolver:                  10.582     0.007   0.0% |
  Calculate projections:             0.184     0.184   0.0% |
  DenseAtomicCorrection:             0.275     0.275   0.0% |
  Distribute overlap matrix:         1.438     1.438   0.0% |
  Orbital Layouts:                   3.492     3.492   0.1% |
  Potential matrix:                  4.650     4.650   0.1% |
  Sum over cells:                    0.536     0.536   0.0% |
 LCAO to grid:                     126.010   126.010   2.0% ||
 Set positions (LCAO WFS):           1.636     0.915   0.0% |
  Basic WFS set positions:           0.002     0.002   0.0% |
  Basis functions set positions:     0.000     0.000   0.0% |
  P tci:                             0.276     0.276   0.0% |
  ST tci:                            0.236     0.236   0.0% |
  mktci:                             0.207     0.207   0.0% |
PWDescriptor:                        0.084     0.084   0.0% |
SCF-cycle:                        6264.024     2.860   0.0% |
 Davidson:                        6137.741  1736.501  27.0% |----------|
  Apply H:                          70.925    69.300   1.1% |
   HMM T:                            1.625     1.625   0.0% |
  Subspace diag:                   614.329     0.026   0.0% |
   calc_h_matrix:                  226.414   169.421   2.6% ||
    Apply H:                        56.994    55.394   0.9% |
     HMM T:                          1.600     1.600   0.0% |
   diagonalize:                     71.492    71.492   1.1% |
   rotate_psi:                     316.396   316.396   4.9% |-|
  calc. matrices:                 1393.844  1284.708  20.0% |-------|
   Apply H:                        109.136   105.991   1.6% ||
    HMM T:                           3.145     3.145   0.0% |
  diagonalize:                    1656.420  1656.420  25.8% |---------|
  rotate_psi:                      665.721   665.721  10.4% |---|
 Density:                           60.340     0.002   0.0% |
  Atomic density matrices:           1.385     1.385   0.0% |
  Mix:                              22.020    22.020   0.3% |
  Multipole moments:                 0.039     0.039   0.0% |
  Pseudo density:                   36.894    36.892   0.6% |
   Symmetrize density:               0.003     0.003   0.0% |
 Hamiltonian:                       54.300     0.278   0.0% |
  Atomic:                           24.487     6.422   0.1% |
   XC Correction:                   18.065    18.065   0.3% |
  Calculate atomic Hamiltonians:    18.591    18.591   0.3% |
  Communicate:                       0.232     0.232   0.0% |
  Poisson:                           0.056     0.056   0.0% |
  XC 3D grid:                       10.656    10.656   0.2% |
 Orthonormalize:                     8.784     0.001   0.0% |
  calc_s_matrix:                     1.200     1.200   0.0% |
  inverse-cholesky:                  0.420     0.420   0.0% |
  projections:                       5.170     5.170   0.1% |
  rotate_psi_s:                      1.994     1.994   0.0% |
Set symmetry:                        0.001     0.001   0.0% |
Other:                               4.416     4.416   0.1% |
-----------------------------------------------------------
Total:                                      6425.545 100.0%

Date: Thu Apr 13 15:26:42 2023
