
  ___ ___ ___ _ _ _  
 |   |   |_  | | | | 
 | | | | | . | | | | 
 |__ |  _|___|_____|  22.8.0
 |___|_|             

User:   c.zeng@d0034
Date:   Wed Apr 19 15:51:01 2023
Arch:   x86_64
Pid:    3138
CWD:    /home/c.zeng/projects/hea-corrosion/hea-mlp/data-curation/surface-mcmc/dft-jobs/211
Python: 3.8.1
gpaw:   /home/c.zeng/usr/installs/gpaw/source/gpaw-22.8.0/gpaw
_gpaw:  /home/c.zeng/usr/installs/gpaw/source/gpaw-22.8.0/
        _gpaw.cpython-38-x86_64-linux-gnu.so
ase:    /home/c.zeng/.local/lib/python3.8/site-packages/ase-3.22.1-py3.8.egg/ase (version 3.22.1)
numpy:  /home/c.zeng/.local/lib/python3.8/site-packages/numpy (version 1.24.2)
scipy:  /home/c.zeng/.local/lib/python3.8/site-packages/scipy (version 1.10.1)
libxc:  4.2.3
units:  Angstrom and eV
cores: 30
OpenMP: False
OMP_NUM_THREADS: 1

Input parameters:
  convergence: {energy: 0.0001}
  kpts: [2 2 1]
  maxiter: 666
  mode: {ecut: 350.0,
         name: pw}
  occupations: {fixmagmom: False,
                name: fermi-dirac,
                width: 0.1}
  poissonsolver: {dipolelayer: xy}
  spinpol: True
  symmetry: {point_group: False}
  xc: PBE

System changes: positions, numbers, cell, pbc, initial_charges, initial_magmoms 

Initialize ...

species:
  Co:
    name: Cobalt
    id: 339d20d5b0b93d2de9531a1bee871d91
    Z: 27.0
    valence: 9
    core: 18
    charge: 0.0
    file: /home/c.zeng/usr/data/gpaw-setups-0.9.20000/Co.PBE.gz
    compensation charges: {type: gauss,
                           rc: 0.32,
                           lmax: 2}
    cutoffs: {filter: 1.87,
              core: 2.55}
    valence states:
      #              energy  rcut
      - 4s(2.00)    -5.469   1.005
      - 4p(0.00)    -1.277   1.058
      - 3d(7.00)    -8.205   1.005
      -  s          21.742   1.005
      -  p          25.934   1.058
      -  d          19.007   1.005
  
    # Using partial waves for Co as LCAO basis

  Al:
    name: Aluminium
    id: 0292cae29f5d6237e50f6abdd43a7bdd
    Z: 13.0
    valence: 3
    core: 10
    charge: 0.0
    file: /home/c.zeng/usr/data/gpaw-setups-0.9.20000/Al.PBE.gz
    compensation charges: {type: gauss,
                           rc: 0.34,
                           lmax: 2}
    cutoffs: {filter: 1.91,
              core: 2.36}
    valence states:
      #              energy  rcut
      - 3s(2.00)    -7.753   1.085
      - 3p(1.00)    -2.712   1.085
      -  s          19.459   1.085
      -  p          24.499   1.085
      -  d           0.000   1.085
  
    # Using partial waves for Al as LCAO basis

  Cr:
    name: Chromium
    id: 33f258bda2ca9f93018e70263a35547b
    Z: 24.0
    valence: 6
    core: 18
    charge: 0.0
    file: /home/c.zeng/usr/data/gpaw-setups-0.9.20000/Cr.PBE.gz
    compensation charges: {type: gauss,
                           rc: 0.35,
                           lmax: 2}
    cutoffs: {filter: 2.14,
              core: 3.04}
    valence states:
      #              energy  rcut
      - 4s(1.00)    -4.007   1.164
      - 4p(0.00)    -0.989   1.217
      - 3d(5.00)    -2.913   1.111
      -  s          23.205   1.164
      -  p          26.223   1.217
      -  d          24.299   1.111
  
    # Using partial waves for Cr as LCAO basis

  Ni:
    name: Nickel
    id: 0d9f38a9d6e76a2886f07bb4381f212b
    Z: 28.0
    valence: 16
    core: 12
    charge: 0.0
    file: /home/c.zeng/usr/data/gpaw-setups-0.9.20000/Ni.PBE.gz
    compensation charges: {type: gauss,
                           rc: 0.36,
                           lmax: 2}
    cutoffs: {filter: 2.14,
              core: 1.98}
    valence states:
      #              energy  rcut
      - 4s(2.00)    -5.642   1.164
      - 3p(6.00)   -71.394   1.207
      - 4p(0.00)    -1.226   1.207
      - 3d(8.00)    -8.875   1.138
      -  s          21.570   1.164
      -  d          18.337   1.138
  
    # Using partial waves for Ni as LCAO basis

  Fe:
    name: Iron
    id: 37abbd8d6c3c35915a9b583b742da910
    Z: 26.0
    valence: 8
    core: 18
    charge: 0.0
    file: /home/c.zeng/usr/data/gpaw-setups-0.9.20000/Fe.PBE.gz
    compensation charges: {type: gauss,
                           rc: 0.33,
                           lmax: 2}
    cutoffs: {filter: 2.06,
              core: 2.67}
    valence states:
      #              energy  rcut
      - 4s(2.00)    -5.291   1.164
      - 4p(0.00)    -1.326   1.058
      - 3d(6.00)    -7.505   1.058
      -  s          21.920   1.164
      -  p          25.885   1.058
      -  d          19.706   1.058
  
    # Using partial waves for Fe as LCAO basis

Reference energy: -3726899.091688  # eV

Spin-polarized calculation.
Magnetic moment: 140.000000

Convergence criteria:
 Maximum [total energy] change in last 3 cyles: 0.0001 eV / electron
 Maximum integral of absolute [dens]ity change: 0.0001 electrons / valence electron
 Maximum integral of absolute [eigenst]ate change: 4e-08 eV^2 / valence electron
 Maximum number of scf [iter]ations: 666
 (Square brackets indicate name in SCF output, whereas a 'c' in
 the SCF output indicates the quantity has converged.)

Symmetries present (total): 1

  ( 1  0  0)
  ( 0  1  0)
  ( 0  0  1)

4 k-points: 2 x 2 x 1 Monkhorst-Pack grid
2 k-points in the irreducible part of the Brillouin zone
       k-points in crystal coordinates                weights
   0:     0.25000000   -0.25000000    0.00000000          2/4
   1:     0.25000000    0.25000000    0.00000000          2/4

Wave functions: Plane wave expansion
  Cutoff energy: 350.000 eV
  Number of coefficients (min, max): 60935, 60955
  Pulay-stress correction: 0.000000 eV/Ang^3 (de/decut=0.000000)
  Using FFTW library
  ScaLapack parameters: grid=1x1, blocksize=None
  Wavefunction extrapolation:
    Improved wavefunction reuse through dual PAW basis 

Occupation numbers: Fermi-Dirac:
  width: 0.1000  # eV
 

Eigensolver
   Davidson(niter=2) 

Densities:
  Coarse grid: 56*56*128 grid
  Fine grid: 112*112*256 grid
  Total Charge: 0.000000 

Density mixing:
  Method: difference
  Backend: pulay
  Linear mixing parameter: 0.05
  old densities: 5
  Damping of long wavelength oscillations: 50 

Hamiltonian:
  XC and Coulomb potentials evaluated on a 112*112*256 grid
  Using the PBE Exchange-Correlation functional
  External potential:
    NoExternalPotential
 

XC parameters: PBE with 2 nearest neighbor stencil

Memory estimate:
  Process memory now: 368.03 MiB
  Calculator: 2131.41 MiB
    Density: 19.02 MiB
      Arrays: 7.39 MiB
      Localized functions: 8.68 MiB
      Mixer: 2.95 MiB
    Hamiltonian: 5.75 MiB
      Arrays: 5.49 MiB
      XC: 0.00 MiB
      Poisson: 0.00 MiB
      vbar: 0.26 MiB
    Wavefunctions: 2106.64 MiB
      Arrays psit_nG: 1335.62 MiB
      Eigensolver: 751.15 MiB
      Projections: 3.10 MiB
      Projectors: 1.18 MiB
      PW-descriptor: 15.59 MiB

Total number of cores used: 30
Parallelization over k-points: 2
Domain decomposition: 1 x 3 x 5

Number of atoms: 125
Number of atomic orbitals: 1075
Number of bands in calculation: 718
Number of valence electrons: 1050
Bands to converge: occupied

... initialized

Initializing position-dependent things.

Density initialized from atomic densities
Creating initial wave functions:
  718 bands from LCAO basis set

                                                                  
                                                                  
                                                                  
                                                                  
                          Fe    Ni           Cr    Fe             
                                  Cr                              
                      Cr    Ni          Cr    Cr                  
                       Al    NAl   CFe   AAl    Fe    Al          
                   Al   NCr   CrAl   CNi   NFe   Ni               
        Al                 Fe    Co                               
               Ni   CCo  NNi   CCr    ACr   FAl   Cr              
                Fe   NAl   CCr   CFe     Cr   Al                  
           Al    Co     Al    AlCo  Ni  Cr               Co       
                 Ni   CFe   FAl   NCo   CFe    Co                 
            Co   CFe    Fe    CCo   NAl                           
        Ni    Ni    Ni    Cr Fe Co Al    CCr    Co    Al          
             Al    Ni   FNi    Cr    FFe   Fe    Fe               
               Fe   NAl   CNi   FFe    Ni    Co                   
                 Fe          Ni        Cr                         
                Cr    CAl   Co    Al    Co                        
           Al    Cr     Cr    Ni    Co                            
                                                                  
                                                                  
                                                                  
                                                                  
                                                                  

Positions:
   0 Co    12.697578    1.490688   10.582791    ( 0.0000,  0.0000,  2.1000)
   1 Al     2.542164    1.500437   10.627261    ( 0.0000,  0.0000,  2.0000)
   2 Cr     5.051596    1.499469   10.598054    ( 0.0000,  0.0000,  2.1000)
   3 Cr     7.634905    1.492702   10.546246    ( 0.0000,  0.0000,  2.0000)
   4 Ni    10.187798    1.493538   10.639090    ( 0.0000,  0.0000,  2.1000)
   5 Co    13.968644    3.696637   10.562654    ( 0.0000,  0.0000,  2.0000)
   6 Cr     3.815030    3.662669   10.568965    ( 0.0000,  0.0000,  2.1000)
   7 Cr     6.371550    3.676864   10.379256    ( 0.0000,  0.0000,  0.0000)
   8 Co     8.929883    3.680660   10.627114    ( 0.0000,  0.0000,  2.1000)
   9 Al    11.419281    3.649344   10.658345    ( 0.0000,  0.0000,  2.1000)
  10 Co    15.274513    5.897370   10.548477    ( 0.0000,  0.0000,  2.0000)
  11 Ni     5.059810    5.865944   10.632192    ( 0.0000,  0.0000,  2.0000)
  12 Co     7.645770    5.857944   10.631253    ( 0.0000,  0.0000,  2.1000)
  13 Fe    10.112359    5.849582   10.633748    ( 0.0000,  0.0000,  2.1000)
  14 Cr    12.664006    5.872612   10.350226    ( 0.0000,  0.0000,  0.0000)
  15 Fe    16.518089    8.029617   10.573985    ( 0.0000,  0.0000,  2.0000)
  16 Fe     6.372474    8.042931   10.433618    ( 0.0000,  0.0000,  0.0000)
  17 Co     8.899359    8.058149   10.655528    ( 0.0000,  0.0000,  2.1000)
  18 Fe    11.347730    8.053396   10.581235    ( 0.0000,  0.0000,  0.0000)
  19 Fe    13.974474    8.072476   10.508234    ( 0.0000,  0.0000,  1.5000)
  20 Al    17.786763   10.267487   10.540522    ( 0.0000,  0.0000,  1.5000)
  21 Fe     7.620185   10.288537   10.551618    ( 0.0000,  0.0000,  1.5000)
  22 Al    10.097013   10.262150   10.527196    ( 0.0000,  0.0000,  0.0000)
  23 Co    12.628341   10.288140   10.200907    ( 0.0000,  0.0000,  0.0000)
  24 Co    15.305799   10.302687   10.215701    ( 0.0000,  0.0000,  0.0000)
  25 Co    18.929799   10.964438   12.614348    ( 0.0000,  0.0000,  0.0000)
  26 Co     8.907314   10.932825   12.633339    ( 0.0000,  0.0000,  0.0000)
  27 Fe     5.161938    0.027744   12.591364    ( 0.0000,  0.0000,  0.0000)
  28 Al     7.639849   -0.017272   12.455019    ( 0.0000,  0.0000,  2.0000)
  29 Ni    10.112151   -0.034156   12.574340    ( 0.0000,  0.0000,  0.0000)
  30 Ni    13.898459    2.274577   12.629494    ( 0.0000,  0.0000,  0.0000)
  31 Fe     3.834283    2.207500   12.641705    ( 0.0000,  0.0000,  1.5000)
  32 Al     6.373751    2.258204   12.578625    ( 0.0000,  0.0000,  1.5000)
  33 Ni     8.903971    2.228935   12.670354    ( 0.0000,  0.0000,  0.0000)
  34 Fe    11.398903    2.240324   12.667418    ( 0.0000,  0.0000,  2.1000)
  35 Al     2.693918    4.433332   12.569320    ( 0.0000,  0.0000,  0.0000)
  36 Ni     5.180997    4.392564   12.579271    ( 0.0000,  0.0000,  2.0000)
  37 Ni     7.640404    4.433761   12.623682    ( 0.0000,  0.0000,  1.5000)
  38 Cr    10.149737    4.418753   12.659728    ( 0.0000,  0.0000,  2.1000)
  39 Fe    12.642941    4.469149   12.588547    ( 0.0000,  0.0000,  0.0000)
  40 Co     3.879740    6.581821   12.636392    ( 0.0000,  0.0000,  2.0000)
  41 Al     6.395207    6.593022   12.619455    ( 0.0000,  0.0000,  0.0000)
  42 Cr     8.882544    6.578464   12.632987    ( 0.0000,  0.0000,  2.0000)
  43 Ni    11.378039    6.588192   12.568968    ( 0.0000,  0.0000,  1.5000)
  44 Cr    13.955999    6.597324   12.503922    ( 0.0000,  0.0000,  0.0000)
  45 Co     5.115939    8.711196   12.577128    ( 0.0000,  0.0000,  2.0000)
  46 Fe     7.617963    8.744371   12.628555    ( 0.0000,  0.0000,  1.5000)
  47 Ni    10.162962    8.726392   12.644406    ( 0.0000,  0.0000,  1.5000)
  48 Cr    12.676321    8.832597   12.504509    ( 0.0000,  0.0000,  1.5000)
  49 Co    15.240247    8.741951   12.606188    ( 0.0000,  0.0000,  0.0000)
  50 Ni     1.269616    0.713733   14.695512    ( 0.0000,  0.0000,  2.1000)
  51 Ni     3.799097    0.728240   14.717292    ( 0.0000,  0.0000,  0.0000)
  52 Ni     6.399959    0.810401   14.610329    ( 0.0000,  0.0000,  2.1000)
  53 Cr     8.880072    0.764388   14.691902    ( 0.0000,  0.0000,  1.5000)
  54 Co    11.370392    0.737436   14.704406    ( 0.0000,  0.0000,  1.5000)
  55 Co     2.596190    2.870472   14.732086    ( 0.0000,  0.0000,  0.0000)
  56 Fe     5.091424    2.954792   14.649428    ( 0.0000,  0.0000,  0.0000)
  57 Fe     7.608212    2.991224   14.707811    ( 0.0000,  0.0000,  2.1000)
  58 Co    10.154418    2.949686   14.778640    ( 0.0000,  0.0000,  2.1000)
  59 Al    12.643335    2.944834   14.730413    ( 0.0000,  0.0000,  0.0000)
  60 Ni     3.883223    5.134376   14.743182    ( 0.0000,  0.0000,  0.0000)
  61 Fe     6.365651    5.154303   14.674026    ( 0.0000,  0.0000,  2.1000)
  62 Al     8.874207    5.127400   14.687176    ( 0.0000,  0.0000,  2.1000)
  63 Co    11.381160    5.128401   14.701764    ( 0.0000,  0.0000,  1.5000)
  64 Fe    13.994437    5.150045   14.709073    ( 0.0000,  0.0000,  0.0000)
  65 Ni     5.105303    7.314819   14.691491    ( 0.0000,  0.0000,  0.0000)
  66 Co     7.621049    7.313641   14.679104    ( 0.0000,  0.0000,  2.0000)
  67 Co    10.101824    7.296971   14.657206    ( 0.0000,  0.0000,  0.0000)
  68 Cr    12.701036    7.418890   14.544344    ( 0.0000,  0.0000,  0.0000)
  69 Al    15.272539    7.347367   14.706285    ( 0.0000,  0.0000,  2.0000)
  70 Ni     6.372338    9.509071   14.708838    ( 0.0000,  0.0000,  0.0000)
  71 Co     8.874214    9.489484   14.713828    ( 0.0000,  0.0000,  1.5000)
  72 Al    11.385336    9.581859   14.631493    ( 0.0000,  0.0000,  2.1000)
  73 Fe    13.954574    9.609885   14.606455    ( 0.0000,  0.0000,  2.1000)
  74 Cr    16.558825    9.502579   14.642677    ( 0.0000,  0.0000,  0.0000)
  75 Ni    12.678535    1.403816   16.741746    ( 0.0000,  0.0000,  0.0000)
  76 Al     2.534863    1.419242   16.733997    ( 0.0000,  0.0000,  2.1000)
  77 Co     5.032024    1.508844   16.664371    ( 0.0000,  0.0000,  1.5000)
  78 Al     7.624501    1.526769   16.714506    ( 0.0000,  0.0000,  2.0000)
  79 Al    10.140089    1.502748   16.858366    ( 0.0000,  0.0000,  2.0000)
  80 Cr    14.024748    3.670735   16.858777    ( 0.0000,  0.0000,  0.0000)
  81 Cr     3.842392    3.667775   16.756276    ( 0.0000,  0.0000,  0.0000)
  82 Al     6.334927    3.681056   16.705378    ( 0.0000,  0.0000,  0.0000)
  83 Cr     8.882482    3.670933   16.761471    ( 0.0000,  0.0000,  2.1000)
  84 Fe    11.419526    3.695856   16.803945    ( 0.0000,  0.0000,  2.0000)
  85 Al    15.257368    5.911564   16.801303    ( 0.0000,  0.0000,  1.5000)
  86 Cr     5.087177    5.870422   16.771246    ( 0.0000,  0.0000,  0.0000)
  87 Ni     7.609371    5.857537   16.712716    ( 0.0000,  0.0000,  2.0000)
  88 Cr    10.109019    5.830149   16.764730    ( 0.0000,  0.0000,  1.5000)
  89 Cr    12.675452    5.872392   16.756129    ( 0.0000,  0.0000,  2.1000)
  90 Ni    16.524277    8.015940   16.738312    ( 0.0000,  0.0000,  2.1000)
  91 Ni     6.365933    8.035031   16.712716    ( 0.0000,  0.0000,  2.1000)
  92 Cr     8.835843    8.056003   16.741658    ( 0.0000,  0.0000,  2.0000)
  93 Co    11.351160    8.059051   16.752372    ( 0.0000,  0.0000,  0.0000)
  94 Ni    13.956058    8.042161   16.704057    ( 0.0000,  0.0000,  1.5000)
  95 Al    17.805404   10.218279   16.745210    ( 0.0000,  0.0000,  0.0000)
  96 Ni     7.627525   10.221888   16.720318    ( 0.0000,  0.0000,  2.1000)
  97 Co    10.100033   10.295513   16.718880    ( 0.0000,  0.0000,  1.5000)
  98 Al    12.667792   10.363481   16.695163    ( 0.0000,  0.0000,  0.0000)
  99 Fe    15.313358   10.247516   16.718322    ( 0.0000,  0.0000,  0.0000)
 100 Fe     6.385878   10.951211   18.797109    ( 0.0000,  0.0000,  0.0000)
 101 Ni     8.871549   10.998570   18.734029    ( 0.0000,  0.0000,  0.0000)
 102 Fe     5.012222    0.026603   18.714245    ( 0.0000,  0.0000,  2.0000)
 103 Cr    13.906085   10.955272   18.815278    ( 0.0000,  0.0000,  0.0000)
 104 Fe    16.555065   10.890208   19.190793    ( 0.0000,  0.0000,  0.0000)
 105 Al     1.301962    2.175788   18.880296    ( 0.0000,  0.0000,  0.0000)
 106 Ni     3.763381    2.154408   18.701741    ( 0.0000,  0.0000,  2.0000)
 107 Co     6.282513    2.143955   18.673151    ( 0.0000,  0.0000,  1.5000)
 108 Fe     8.786510    2.178935   18.943933    ( 0.0000,  0.0000,  0.0000)
 109 Co    11.486117    2.202240   18.868055    ( 0.0000,  0.0000,  0.0000)
 110 Fe    15.251278    4.387183   18.855257    ( 0.0000,  0.0000,  1.5000)
 111 Al     5.107352    4.303073   18.990839    ( 0.0000,  0.0000,  0.0000)
 112 Cr     7.597350    4.408838   18.714597    ( 0.0000,  0.0000,  2.0000)
 113 Al    10.211555    4.416706   18.931135    ( 0.0000,  0.0000,  0.0000)
 114 Ni    12.733768    4.452313   18.836295    ( 0.0000,  0.0000,  1.5000)
 115 Fe    16.467351    6.659351   18.958316    ( 0.0000,  0.0000,  0.0000)
 116 Al     6.329237    6.609791   18.727483    ( 0.0000,  0.0000,  1.5000)
 117 Al     8.815790    6.680885   18.889219    ( 0.0000,  0.0000,  0.0000)
 118 Fe    11.427553    6.639820   18.779556    ( 0.0000,  0.0000,  2.0000)
 119 Al    13.906938    6.631006   18.740193    ( 0.0000,  0.0000,  0.0000)
 120 Cr     5.095653    8.774950   18.707200    ( 0.0000,  0.0000,  2.0000)
 121 Ni     7.571098    8.829550   18.729127    ( 0.0000,  0.0000,  1.5000)
 122 Cr    10.146396    8.866884   18.778117    ( 0.0000,  0.0000,  1.5000)
 123 Cr    12.685104    8.811284   18.742072    ( 0.0000,  0.0000,  2.0000)
 124 Cr    15.188299    8.776017   18.730565    ( 0.0000,  0.0000,  2.0000)

Unit cell:
           periodic     x           y           z      points  spacing
  1. axis:    yes   12.688900    0.000000    0.000000    56     0.1962
  2. axis:    yes    6.352870   11.003500    0.000000    56     0.1965
  3. axis:    no     0.000000    0.000000   29.353100   128     0.2293

  Lengths:  12.688900  12.705746  29.353100
  Angles:   90.000000  90.000000  60.000014

Effective grid spacing dv^(1/3) = 0.2169

     iter     time        total  log10-change:  magmom
                         energy  eigst   dens
iter:   1 15:59:20 -1040.335072                  +139.1712
iter:   2 16:02:19 -3386.352772  +1.28  -1.10    +98.0265
iter:   3 16:05:18 -1016.849339  +0.77  -0.54    +66.4947
iter:   4 16:08:17  -971.048733  +0.49  -1.08    +45.0311
iter:   5 16:11:16  -938.907194  -0.14  -1.17    +39.9197
iter:   6 16:14:26  -919.504704  -0.82  -1.24    +38.3392
iter:   7 16:17:55  -930.414573  -1.17  -1.28    +38.2763
iter:   8 16:20:54 -1288.706988  -0.55  -1.24    +38.8166
iter:   9 16:23:52  -932.083170  -0.81  -0.94    +35.7968
iter:  10 16:26:51  -910.616692  -1.62  -1.26    +35.4097
iter:  11 16:29:50  -902.732055  -1.39  -1.36    +37.0342
iter:  12 16:32:49  -935.081114  -1.58  -1.44    +36.4378
iter:  13 16:35:48  -898.352501  -1.57  -1.27    +38.3813
iter:  14 16:38:47  -898.003672  -1.59  -1.50    +38.6132
iter:  15 16:41:46  -896.178998  -1.71  -1.55    +37.7609
iter:  16 16:44:45  -893.318662  -2.05  -1.57    +38.1261
iter:  17 16:47:44  -905.593988  -1.91  -1.62    +39.6879
iter:  18 16:50:44  -890.766505  -2.16  -1.50    +39.2330
iter:  19 16:53:42  -899.926129  -1.97  -1.70    +40.1119
iter:  20 16:56:41  -892.363979  -2.09  -1.57    +41.8665
iter:  21 17:00:18  -889.353602  -2.64  -1.70    +41.4810
iter:  22 17:03:19  -889.816746  -2.60  -1.81    +42.6478
iter:  23 17:06:18  -889.442874  -2.91  -1.82    +42.9323
iter:  24 17:09:17  -892.169857  -2.77  -1.83    +44.1608
iter:  25 17:12:16  -892.703003  -2.43  -1.76    +44.4594
iter:  26 17:15:15  -890.649066  -2.56  -1.80    +44.3273
iter:  27 17:18:14  -895.234157  -2.60  -1.88    +45.1041
iter:  28 17:21:12  -892.693401  -2.47  -1.77    +44.5618
iter:  29 17:24:12  -896.455527  -2.36  -1.91    +45.1471
iter:  30 17:27:11  -897.960261  -2.20  -1.79    +45.3158
iter:  31 17:30:50  -892.594602  -2.52  -1.72    +45.5031
iter:  32 17:33:49  -893.511597  -2.54  -2.08    +46.7282
iter:  33 17:36:48  -892.627093  -2.84  -2.01    +46.5129
iter:  34 17:39:46  -892.888766  -2.96  -2.14    +49.1955
iter:  35 17:42:45  -893.090569  -3.08  -2.19    +49.1250
iter:  36 17:45:44  -892.985391  -3.31  -2.16    +50.3909
iter:  37 17:48:43  -893.130466  -3.44  -2.22    +51.0512
iter:  38 17:52:02  -893.264173  -3.37  -2.25    +51.6702
iter:  39 17:55:19  -893.307308  -3.44  -2.22    +52.0925
iter:  40 17:58:19  -893.316079c -3.50  -2.29    +51.9829
iter:  41 18:01:18  -894.014811  -3.26  -2.33    +52.6739
iter:  42 18:04:16  -894.840295  -2.90  -2.19    +52.6541
iter:  43 18:07:15  -893.893751  -3.07  -2.08    +52.9653
iter:  44 18:10:13  -894.314988  -2.98  -2.28    +53.3661
iter:  45 18:13:19  -893.527038  -3.33  -2.20    +53.2439
iter:  46 18:16:16  -893.549064  -3.65  -2.59    +53.6023
iter:  47 18:19:15  -893.493523c -3.79  -2.61    +53.6681
iter:  48 18:22:09  -893.521303c -4.23  -2.63    +54.2136
iter:  49 18:25:07  -893.794339  -3.69  -2.66    +54.9735
iter:  50 18:28:04  -893.563043  -4.13  -2.45    +54.7079
iter:  51 18:31:01  -893.616641  -3.97  -2.72    +54.9697
iter:  52 18:33:57  -893.602916c -4.13  -2.76    +54.8708
iter:  53 18:37:07  -893.616398c -4.16  -2.83    +54.9747
iter:  54 18:40:04  -893.618531c -4.42  -2.98    +54.9755
iter:  55 18:43:03  -893.681733c -4.27  -3.02    +54.8707
iter:  56 18:46:00  -893.636685c -4.54  -2.77    +55.0388
iter:  57 18:48:57  -893.653173c -4.73  -3.07    +55.0093
iter:  58 18:51:57  -893.687356c -4.37  -3.07    +54.8976
iter:  59 18:55:07  -893.679576c -5.24  -2.98    +54.8942
iter:  60 18:58:03  -893.710361c -4.50  -3.02    +54.8543
iter:  61 19:01:03  -893.828252  -4.28  -2.99    +54.8134
iter:  62 19:04:00  -893.725263  -4.43  -2.61    +54.9307
iter:  63 19:06:59  -893.740879c -4.27  -3.02    +54.8993
iter:  64 19:09:56  -893.756277c -4.49  -3.16    +54.7637
iter:  65 19:12:51  -893.761877c -4.72  -3.13    +54.6907
iter:  66 19:15:49  -893.771107c -4.65  -3.18    +54.5851
iter:  67 19:18:46  -893.814307c -4.38  -3.31    +54.4498
iter:  68 19:21:43  -893.801392c -4.76  -2.92    +54.5258
iter:  69 19:24:37  -893.799436c -4.84  -3.09    +54.4116
iter:  70 19:27:33  -893.817938c -4.51  -3.31    +54.3277
iter:  71 19:30:32  -893.838937c -4.69  -3.26    +54.1975
iter:  72 19:33:27  -893.824440c -5.28  -3.12    +54.2312
iter:  73 19:36:22  -893.853291c -4.39  -3.18    +54.1292
iter:  74 19:39:18  -893.856873c -5.07  -3.04    +54.2655
iter:  75 19:42:14  -893.866965c -4.75  -3.04    +54.3845
iter:  76 19:45:08  -893.891966c -4.56  -2.99    +54.5061
iter:  77 19:48:02  -893.992188  -4.32  -2.87    +54.5734
iter:  78 19:50:55  -893.953485c -3.77  -2.58    +54.5915
iter:  79 19:53:50  -893.863272  -4.12  -2.68    +54.5611
iter:  80 19:56:43  -893.857869c -4.55  -3.02    +54.2958
iter:  81 19:59:37  -893.882498c -4.53  -3.07    +54.3059
iter:  82 20:02:31  -893.849344c -4.94  -2.90    +54.2524
iter:  83 20:05:24  -893.859262c -5.04  -3.20    +54.2065
iter:  84 20:08:22  -893.855157c -5.26  -3.14    +54.1258
iter:  85 20:11:18  -893.862807c -5.05  -3.24    +54.0812
iter:  86 20:14:11  -893.868209c -4.91  -3.14    +54.0491
iter:  87 20:17:06  -893.879227c -4.59  -3.08    +53.8634
iter:  88 20:20:03  -893.868020c -4.79  -2.94    +53.8585
iter:  89 20:22:58  -893.865451c -4.66  -3.16    +53.7793
iter:  90 20:25:50  -893.872812c -4.79  -3.11    +53.7952
iter:  91 20:28:45  -893.861455c -5.00  -3.10    +53.7249
iter:  92 20:31:41  -893.863764c -4.97  -3.35    +53.6368
iter:  93 20:34:39  -893.870696c -5.21  -3.30    +53.6849
iter:  94 20:37:34  -893.862217c -5.47  -3.19    +53.6329
iter:  95 20:40:31  -893.869276c -5.28  -3.47    +53.6016
iter:  96 20:43:30  -893.865849c -5.43  -3.33    +53.5626
iter:  97 20:46:29  -893.867621c -5.48  -3.42    +53.5450
iter:  98 20:49:23  -893.873947c -5.10  -3.46    +53.5061
iter:  99 20:52:23  -893.878468c -4.97  -3.26    +53.4460
iter: 100 20:55:17  -893.871118c -5.14  -3.10    +53.4087
iter: 101 20:58:15  -893.869229c -5.45  -3.43    +53.3751
iter: 102 21:01:12  -893.873458c -5.65  -3.54    +53.3470
iter: 103 21:04:06  -893.871934c -5.97  -3.38    +53.2969
iter: 104 21:07:00  -893.874322c -5.69  -3.51    +53.2299
iter: 105 21:09:57  -893.872335c -5.89  -3.44    +53.2372
iter: 106 21:12:53  -893.875488c -5.49  -3.57    +53.1536
iter: 107 21:15:47  -893.873114c -5.44  -3.47    +53.1318
iter: 108 21:18:53  -893.874594c -5.78  -3.71    +53.1319
iter: 109 21:21:47  -893.876118c -5.44  -3.72    +53.0922
iter: 110 21:24:42  -893.874230c -5.97  -3.45    +53.0971
iter: 111 21:27:37  -893.875057c -6.07  -3.99    +53.0628
iter: 112 21:30:32  -893.875559c -6.38  -4.21c   +53.0728
iter: 113 21:33:28  -893.876651c -5.88  -4.10c   +53.0539
iter: 114 21:36:22  -893.878456c -5.46  -4.16c   +53.0217
iter: 115 21:39:16  -893.875819c -5.48  -3.96    +53.0584
iter: 116 21:42:11  -893.880885c -4.90  -3.90    +52.9712
iter: 117 21:45:06  -893.881729c -5.54  -3.83    +52.9343
iter: 118 21:48:00  -893.883108c -5.48  -3.79    +52.8829
iter: 119 21:50:55  -893.885396c -5.97  -3.76    +52.8921
iter: 120 21:53:49  -893.886245c -5.99  -3.51    +52.8682
iter: 121 21:56:44  -893.885923c -6.27  -3.54    +52.8064
iter: 122 21:59:37  -893.886530c -5.62  -3.62    +52.7698
iter: 123 22:02:32  -893.885452c -5.46  -3.57    +52.6886
iter: 124 22:05:27  -893.968146c -4.45  -3.57    +52.6609
iter: 125 22:08:30  -893.893641c -4.59  -2.71    +52.6734
iter: 126 22:11:27  -893.884766c -5.17  -3.31    +52.7485
iter: 127 22:14:22  -893.884679c -5.58  -3.71    +52.7505
iter: 128 22:17:16  -893.885036c -6.05  -3.90    +52.7074
iter: 129 22:20:11  -893.885187c -5.96  -3.90    +52.6604
iter: 130 22:23:05  -893.885484c -6.44  -4.01c   +52.6598
iter: 131 22:26:01  -893.885430c -6.15  -3.97    +52.6075
iter: 132 22:28:55  -893.885375c -6.49  -3.66    +52.6182
iter: 133 22:31:50  -893.885418c -6.20  -4.08c   +52.5968
iter: 134 22:34:45  -893.885577c -6.28  -4.10c   +52.5890
iter: 135 22:37:39  -893.885557c -6.75  -4.03c   +52.5815
iter: 136 22:40:33  -893.885358c -6.46  -4.15c   +52.5540
iter: 137 22:43:26  -893.887749c -6.19  -4.16c   +52.5491
iter: 138 22:46:21  -893.885644c -6.20  -3.63    +52.5378
iter: 139 22:49:14  -893.885552c -6.67  -3.93    +52.5244
iter: 140 22:52:09  -893.885616c -6.46  -4.37c   +52.5205
iter: 141 22:55:03  -893.885673c -6.93  -4.07c   +52.5241
iter: 142 22:57:56  -893.885785c -7.28  -4.46c   +52.5219
iter: 143 23:00:49  -893.885569c -7.42c -4.48c   +52.5136

Converged after 143 iterations.

Dipole moment: (65.221957, 52.221495, 0.022518) |e|*Ang

Total magnetic moment: (0.000000, 0.000000, 52.513559)
Local magnetic moments:
   0 Co ( 0.000000,  0.000000,  1.489856)
   1 Al ( 0.000000,  0.000000, -0.051034)
   2 Cr ( 0.000000,  0.000000,  1.287364)
   3 Cr ( 0.000000,  0.000000,  2.415967)
   4 Ni ( 0.000000,  0.000000,  0.434383)
   5 Co ( 0.000000,  0.000000,  1.126406)
   6 Cr ( 0.000000,  0.000000,  1.623580)
   7 Cr ( 0.000000,  0.000000, -2.719091)
   8 Co ( 0.000000,  0.000000,  1.246391)
   9 Al ( 0.000000,  0.000000, -0.040062)
  10 Co ( 0.000000,  0.000000,  1.151339)
  11 Ni ( 0.000000,  0.000000,  0.329901)
  12 Co ( 0.000000,  0.000000,  1.179901)
  13 Fe ( 0.000000,  0.000000,  2.356938)
  14 Cr ( 0.000000,  0.000000, -2.842253)
  15 Fe ( 0.000000,  0.000000,  2.616923)
  16 Fe ( 0.000000,  0.000000,  2.737786)
  17 Co ( 0.000000,  0.000000,  1.404089)
  18 Fe ( 0.000000,  0.000000,  2.513430)
  19 Fe ( 0.000000,  0.000000,  2.530628)
  20 Al ( 0.000000,  0.000000, -0.065330)
  21 Fe ( 0.000000,  0.000000,  2.503146)
  22 Al ( 0.000000,  0.000000, -0.059453)
  23 Co ( 0.000000,  0.000000,  1.445665)
  24 Co ( 0.000000,  0.000000,  1.603320)
  25 Co ( 0.000000,  0.000000,  1.628514)
  26 Co ( 0.000000,  0.000000,  1.459472)
  27 Fe ( 0.000000,  0.000000,  2.144257)
  28 Al ( 0.000000,  0.000000, -0.023410)
  29 Ni ( 0.000000,  0.000000,  0.234902)
  30 Ni ( 0.000000,  0.000000,  0.335039)
  31 Fe ( 0.000000,  0.000000,  1.863558)
  32 Al ( 0.000000,  0.000000, -0.012804)
  33 Ni ( 0.000000,  0.000000,  0.269444)
  34 Fe ( 0.000000,  0.000000,  2.416236)
  35 Al ( 0.000000,  0.000000, -0.026338)
  36 Ni ( 0.000000,  0.000000,  0.172940)
  37 Ni ( 0.000000,  0.000000,  0.292368)
  38 Cr ( 0.000000,  0.000000, -1.548647)
  39 Fe ( 0.000000,  0.000000,  1.938391)
  40 Co ( 0.000000,  0.000000,  1.242639)
  41 Al ( 0.000000,  0.000000, -0.048497)
  42 Cr ( 0.000000,  0.000000,  1.022189)
  43 Ni ( 0.000000,  0.000000,  0.260632)
  44 Cr ( 0.000000,  0.000000,  1.338030)
  45 Co ( 0.000000,  0.000000,  1.411258)
  46 Fe ( 0.000000,  0.000000,  2.484292)
  47 Ni ( 0.000000,  0.000000,  0.289728)
  48 Cr ( 0.000000,  0.000000, -1.406913)
  49 Co ( 0.000000,  0.000000,  1.010570)
  50 Ni ( 0.000000,  0.000000,  0.270047)
  51 Ni ( 0.000000,  0.000000,  0.254625)
  52 Ni ( 0.000000,  0.000000,  0.160036)
  53 Cr ( 0.000000,  0.000000, -1.636380)
  54 Co ( 0.000000,  0.000000,  0.944505)
  55 Co ( 0.000000,  0.000000, -0.661409)
  56 Fe ( 0.000000,  0.000000, -1.938587)
  57 Fe ( 0.000000,  0.000000,  1.648294)
  58 Co ( 0.000000,  0.000000,  0.751956)
  59 Al ( 0.000000,  0.000000, -0.015804)
  60 Ni ( 0.000000,  0.000000,  0.010255)
  61 Fe ( 0.000000,  0.000000,  2.242523)
  62 Al ( 0.000000,  0.000000, -0.011516)
  63 Co ( 0.000000,  0.000000,  0.776232)
  64 Fe ( 0.000000,  0.000000, -1.830544)
  65 Ni ( 0.000000,  0.000000,  0.183416)
  66 Co ( 0.000000,  0.000000,  1.131330)
  67 Co ( 0.000000,  0.000000,  0.871530)
  68 Cr ( 0.000000,  0.000000, -1.049802)
  69 Al ( 0.000000,  0.000000, -0.004008)
  70 Ni ( 0.000000,  0.000000,  0.284327)
  71 Co ( 0.000000,  0.000000,  1.481235)
  72 Al ( 0.000000,  0.000000, -0.022060)
  73 Fe ( 0.000000,  0.000000,  1.880797)
  74 Cr ( 0.000000,  0.000000, -1.631782)
  75 Ni ( 0.000000,  0.000000, -0.089782)
  76 Al ( 0.000000,  0.000000, -0.006243)
  77 Co ( 0.000000,  0.000000,  0.845472)
  78 Al ( 0.000000,  0.000000,  0.017203)
  79 Al ( 0.000000,  0.000000,  0.024513)
  80 Cr ( 0.000000,  0.000000, -1.528237)
  81 Cr ( 0.000000,  0.000000,  1.363383)
  82 Al ( 0.000000,  0.000000, -0.021681)
  83 Cr ( 0.000000,  0.000000, -1.177617)
  84 Fe ( 0.000000,  0.000000,  1.614667)
  85 Al ( 0.000000,  0.000000,  0.001213)
  86 Cr ( 0.000000,  0.000000, -1.507059)
  87 Ni ( 0.000000,  0.000000,  0.143059)
  88 Cr ( 0.000000,  0.000000,  0.963958)
  89 Cr ( 0.000000,  0.000000,  1.180366)
  90 Ni ( 0.000000,  0.000000,  0.061709)
  91 Ni ( 0.000000,  0.000000,  0.175890)
  92 Cr ( 0.000000,  0.000000, -1.641425)
  93 Co ( 0.000000,  0.000000,  0.523891)
  94 Ni ( 0.000000,  0.000000,  0.131153)
  95 Al ( 0.000000,  0.000000,  0.018968)
  96 Ni ( 0.000000,  0.000000,  0.092636)
  97 Co ( 0.000000,  0.000000,  1.049628)
  98 Al ( 0.000000,  0.000000, -0.008869)
  99 Fe ( 0.000000,  0.000000, -1.703568)
 100 Fe ( 0.000000,  0.000000, -2.540652)
 101 Ni ( 0.000000,  0.000000,  0.056566)
 102 Fe ( 0.000000,  0.000000,  2.312319)
 103 Cr ( 0.000000,  0.000000, -2.021963)
 104 Fe ( 0.000000,  0.000000, -2.686532)
 105 Al ( 0.000000,  0.000000,  0.015207)
 106 Ni ( 0.000000,  0.000000,  0.212588)
 107 Co ( 0.000000,  0.000000,  0.659469)
 108 Fe ( 0.000000,  0.000000, -2.310423)
 109 Co ( 0.000000,  0.000000, -1.242461)
 110 Fe ( 0.000000,  0.000000,  2.218369)
 111 Al ( 0.000000,  0.000000, -0.015992)
 112 Cr ( 0.000000,  0.000000,  2.132754)
 113 Al ( 0.000000,  0.000000, -0.007243)
 114 Ni ( 0.000000,  0.000000,  0.029963)
 115 Fe ( 0.000000,  0.000000, -2.038173)
 116 Al ( 0.000000,  0.000000, -0.005268)
 117 Al ( 0.000000,  0.000000, -0.014337)
 118 Fe ( 0.000000,  0.000000,  1.837190)
 119 Al ( 0.000000,  0.000000, -0.018876)
 120 Cr ( 0.000000,  0.000000,  2.512842)
 121 Ni ( 0.000000,  0.000000,  0.005043)
 122 Cr ( 0.000000,  0.000000,  1.942833)
 123 Cr ( 0.000000,  0.000000,  1.064805)
 124 Cr ( 0.000000,  0.000000,  1.922824)

Energy contributions relative to reference atoms: (reference = -3726899.091688)

Kinetic:       +419.997245
Potential:     -384.182924
External:        +0.000000
XC:            -962.469156
Entropy (-ST):   -5.071915
Local:          +35.305223
--------------------------
Free energy:   -896.421527
Extrapolated:  -893.885569

Dipole-layer corrected work functions: 4.843883, 4.814700 eV

Spin contamination: 43.702456 electrons
Showing all kpts
                      Up                     Down
 Kpt  Band  Eigenvalues  Occupancy  Eigenvalues  Occupancy
  0   523      0.04915    0.98104      0.72319    0.05764
  0   524      0.05396    0.98012      0.73007    0.05401
  0   525      0.06893    0.97699      0.74321    0.04768
  0   526      0.08997    0.97175      0.75238    0.04368

  1   523      0.02195    0.98549      0.72369    0.05737
  1   524      0.04296    0.98216      0.73448    0.05180
  1   525      0.05498    0.97992      0.74805    0.04553
  1   526      0.07462    0.97567      0.75377    0.04311


Fermi level: 0.44377

No gap

Forces in eV/Ang:
  0 Co    0.17299   -0.11056    0.47867
  1 Al   -1.43912    0.22195   -0.63739
  2 Cr    0.31793    0.17530   -0.53359
  3 Cr    0.37027    0.16040   -1.31240
  4 Ni   -0.13641   -0.10077   -0.19572
  5 Co   -0.09131    0.22879    0.52030
  6 Cr    0.49645    0.06159   -0.93681
  7 Cr    0.11940    0.29769    0.15762
  8 Co   -0.06050    0.26124    0.21455
  9 Al    0.00387   -0.67762   -1.96646
 10 Co   -0.20865   -0.07270    0.30455
 11 Ni    0.26225    0.11173   -0.30049
 12 Co    0.19333    0.14236   -0.14403
 13 Fe   -0.32798   -0.28769   -0.63279
 14 Cr    0.40978    0.56436    0.56340
 15 Fe   -0.48663    0.11352    0.12803
 16 Fe    0.25323   -0.21854    0.22307
 17 Co   -0.34269   -0.14865   -0.21985
 18 Fe    0.35396    0.26940   -0.16646
 19 Fe    0.00586    0.66868   -0.11703
 20 Al   -0.31336    0.21808   -0.58546
 21 Fe   -0.25071    0.05011    0.45197
 22 Al    0.70163   -0.84502   -0.47256
 23 Co    0.36965   -0.15384    1.13547
 24 Co   -0.53195   -0.43178    1.03461
 25 Co    1.05223    0.18523    0.50108
 26 Co   -0.29400    0.25512    0.40137
 27 Fe   -0.62502   -0.11818   -0.45643
 28 Al    0.88519   -0.72559   -0.01697
 29 Ni    0.06148    0.01852    0.40836
 30 Ni    0.36525   -0.45923    0.29319
 31 Fe   -0.02233   -0.41868    0.48495
 32 Al    0.17691    0.66176    0.72978
 33 Ni   -0.23874   -0.15099   -0.16236
 34 Fe   -0.07977   -0.92340    0.21427
 35 Al   -0.93065   -0.32443    1.14039
 36 Ni   -0.45377   -0.17732    0.30355
 37 Ni    0.16763   -0.46820   -0.29432
 38 Cr   -0.04269   -0.02194   -0.03345
 39 Fe    0.41098   -0.13890    0.24050
 40 Co   -0.38510    0.41994   -0.37684
 41 Al   -0.97477   -0.32393   -0.10537
 42 Cr    0.95864    0.23070   -0.35003
 43 Ni    0.46392    0.22289    0.45729
 44 Cr   -0.00576    0.35000    0.18430
 45 Co   -0.19262    0.71032    0.15706
 46 Fe   -0.04431    1.07274    0.19716
 47 Ni   -0.06892    0.63530    0.10196
 48 Cr   -0.22296   -1.05991   -0.63177
 49 Co    0.17968    0.21258   -0.10055
 50 Ni   -0.09961   -0.10902   -0.48216
 51 Ni    0.18053   -0.08897   -0.78431
 52 Ni   -0.58307   -0.17980    0.22624
 53 Cr    0.61901    0.06891   -0.58889
 54 Co   -0.14532   -0.49299   -0.50107
 55 Co   -0.29391    0.85229   -0.24737
 56 Fe   -0.70709   -0.08393   -0.01408
 57 Fe    0.56765   -0.40866   -0.10413
 58 Co   -0.26956   -0.20777   -0.29482
 59 Al    0.64224   -0.13399   -0.05673
 60 Ni   -0.41994   -0.03849   -0.38564
 61 Fe   -0.48785   -0.09395    0.10673
 62 Al   -0.15287    0.26882    0.09963
 63 Co    0.52648    0.58140    0.07664
 64 Fe   -0.16283   -0.31128   -0.24644
 65 Ni    0.04642    0.22467    0.03993
 66 Co    0.06612    0.32621   -0.15926
 67 Co    0.57423   -0.03571    0.28514
 68 Cr   -0.61492   -0.90721    0.25268
 69 Al    0.07321   -0.16518   -0.86349
 70 Ni   -0.07862    0.12305   -0.56771
 71 Co   -0.07281    0.20750   -0.32215
 72 Al   -0.88621   -0.08098    0.07493
 73 Fe    0.50124   -0.48399   -0.02039
 74 Cr   -0.22327    0.69210   -0.89192
 75 Ni    0.09890    0.61101    0.25361
 76 Al   -0.08621   -0.70956   -0.71889
 77 Co    0.20616   -0.07930    0.08693
 78 Al   -0.55634   -0.66065    0.55349
 79 Al    1.19277   -0.44160    0.45557
 80 Cr   -0.11557    0.75078   -0.22388
 81 Cr   -0.32974    0.12120   -0.33994
 82 Al   -0.28955    0.04313   -0.10545
 83 Cr    0.42061    0.76683    0.59015
 84 Fe    0.28353    0.01181    0.17509
 85 Al    0.47708   -0.22689   -0.26715
 86 Cr   -0.45337   -0.25692   -0.60927
 87 Ni   -0.01671    0.41986    0.01399
 88 Cr    0.82005    0.49185   -0.00012
 89 Cr   -1.01822   -0.27168   -1.31808
 90 Ni   -0.02528    0.30374   -0.01834
 91 Ni   -0.19094   -0.05079   -0.08031
 92 Cr    0.56749    0.41019   -0.70087
 93 Co    0.57783   -0.08612   -0.06991
 94 Ni   -0.18848    0.62095   -0.39676
 95 Al    0.38397    0.33551   -0.61694
 96 Ni   -0.04658    0.26762   -0.01979
 97 Co    0.50350   -0.60710    0.13828
 98 Al    0.00728   -1.10408   -0.23426
 99 Fe   -0.56381    0.06803    0.55687
100 Fe   -0.44050    0.36520    0.18497
101 Ni   -0.11951   -0.26466    0.26864
102 Fe   -0.00228    0.62447    0.09264
103 Cr    0.02620   -0.07234    0.62734
104 Fe   -0.07466    0.53675   -0.89874
105 Al   -0.63530   -0.15366    1.45702
106 Ni    0.09919    0.32855    0.39095
107 Co    0.25555   -0.09004    0.03008
108 Fe    0.54154    0.28119   -0.30825
109 Co   -0.47037   -0.37006   -0.49561
110 Fe   -0.26411    0.14103   -0.29746
111 Al   -0.83534   -0.29301    0.72154
112 Cr    0.93341   -1.05017    0.44050
113 Al    0.46356   -0.70285    0.74658
114 Ni   -0.13612   -0.36221    0.04053
115 Fe    0.22972   -0.08788   -0.56520
116 Al    0.21905    0.44294    1.27179
117 Al    0.63378   -0.04600    0.82164
118 Fe   -0.51663    0.10691   -0.31295
119 Al   -0.06850   -0.49783    2.30908
120 Cr   -0.25226    0.11601    1.43677
121 Ni    0.33744   -0.20077    0.19937
122 Cr    0.02251    0.19773   -0.31648
123 Cr   -0.30419    0.11615    0.00310
124 Cr    0.11874    0.51932    0.03004

Timing:                              incl.     excl.
-----------------------------------------------------------
Forces:                             48.984    48.984   0.2% |
Hamiltonian:                         2.060     0.017   0.0% |
 Atomic:                             0.415     0.002   0.0% |
  XC Correction:                     0.413     0.413   0.0% |
 Calculate atomic Hamiltonians:      0.990     0.990   0.0% |
 Communicate:                        0.096     0.096   0.0% |
 Initialize Hamiltonian:             0.000     0.000   0.0% |
 Poisson:                            0.121     0.121   0.0% |
 XC 3D grid:                         0.421     0.421   0.0% |
LCAO initialization:               304.009     0.632   0.0% |
 LCAO eigensolver:                  18.640     0.019   0.0% |
  Calculate projections:             0.000     0.000   0.0% |
  DenseAtomicCorrection:             0.000     0.000   0.0% |
  Distribute overlap matrix:         9.297     9.297   0.0% |
  Orbital Layouts:                   9.277     9.277   0.0% |
  Potential matrix:                  0.004     0.004   0.0% |
  Sum over cells:                    0.043     0.043   0.0% |
 LCAO to grid:                     282.521   282.521   1.1% |
 Set positions (LCAO WFS):           2.216     1.838   0.0% |
  Basic WFS set positions:           0.004     0.004   0.0% |
  Basis functions set positions:     0.001     0.001   0.0% |
  P tci:                             0.001     0.001   0.0% |
  ST tci:                            0.159     0.159   0.0% |
  mktci:                             0.212     0.212   0.0% |
PWDescriptor:                        0.167     0.167   0.0% |
SCF-cycle:                       25477.431     1.876   0.0% |
 Davidson:                       24398.886  7396.761  28.6% |----------|
  Apply H:                         488.163   479.435   1.9% ||
   HMM T:                            8.729     8.729   0.0% |
  Subspace diag:                  2287.407     0.081   0.0% |
   calc_h_matrix:                 1021.796   568.487   2.2% ||
    Apply H:                       453.310   445.078   1.7% ||
     HMM T:                          8.232     8.232   0.0% |
   diagonalize:                    214.406   214.406   0.8% |
   rotate_psi:                    1051.124  1051.124   4.1% |-|
  calc. matrices:                 5392.321  4574.308  17.7% |------|
   Apply H:                        818.014   800.594   3.1% ||
    HMM T:                          17.420    17.420   0.1% |
  diagonalize:                    6506.152  6506.152  25.2% |---------|
  rotate_psi:                     2328.081  2328.081   9.0% |---|
 Density:                          622.933     0.006   0.0% |
  Atomic density matrices:           4.007     4.007   0.0% |
  Mix:                             356.882   356.882   1.4% ||
  Multipole moments:                 0.115     0.115   0.0% |
  Pseudo density:                  261.923   261.913   1.0% |
   Symmetrize density:               0.009     0.009   0.0% |
 Hamiltonian:                      434.622     2.521   0.0% |
  Atomic:                           59.518     0.253   0.0% |
   XC Correction:                   59.264    59.264   0.2% |
  Calculate atomic Hamiltonians:   281.918   281.918   1.1% |
  Communicate:                      13.282    13.282   0.1% |
  Poisson:                           7.815     7.815   0.0% |
  XC 3D grid:                       69.569    69.569   0.3% |
 Orthonormalize:                    19.114     0.001   0.0% |
  calc_s_matrix:                     2.313     2.313   0.0% |
  inverse-cholesky:                  0.788     0.788   0.0% |
  projections:                      12.323    12.323   0.0% |
  rotate_psi_s:                      3.689     3.689   0.0% |
Set symmetry:                        0.001     0.001   0.0% |
Other:                               9.584     9.584   0.0% |
-----------------------------------------------------------
Total:                                     25842.236 100.0%

Date: Wed Apr 19 23:01:43 2023
