
  ___ ___ ___ _ _ _  
 |   |   |_  | | | | 
 | | | | | . | | | | 
 |__ |  _|___|_____|  22.8.0
 |___|_|             

User:   c.zeng@d0022
Date:   Mon Apr 17 19:34:15 2023
Arch:   x86_64
Pid:    50556
CWD:    /home/c.zeng/projects/hea-corrosion/hea-mlp/data-curation/surface-md/dft-jobs/77
Python: 3.8.1
gpaw:   /home/c.zeng/usr/installs/gpaw/source/gpaw-22.8.0/gpaw
_gpaw:  /home/c.zeng/usr/installs/gpaw/source/gpaw-22.8.0/
        _gpaw.cpython-38-x86_64-linux-gnu.so
ase:    /home/c.zeng/.local/lib/python3.8/site-packages/ase-3.22.1-py3.8.egg/ase (version 3.22.1)
numpy:  /home/c.zeng/.local/lib/python3.8/site-packages/numpy (version 1.24.2)
scipy:  /home/c.zeng/.local/lib/python3.8/site-packages/scipy (version 1.10.1)
libxc:  4.2.3
units:  Angstrom and eV
cores: 30
OpenMP: False
OMP_NUM_THREADS: 1

Input parameters:
  convergence: {energy: 0.0001}
  kpts: [2 2 1]
  maxiter: 666
  mode: {ecut: 350.0,
         name: pw}
  occupations: {fixmagmom: False,
                name: fermi-dirac,
                width: 0.1}
  poissonsolver: {dipolelayer: xy}
  spinpol: True
  symmetry: {point_group: False}
  xc: PBE

System changes: positions, numbers, cell, pbc, initial_charges, initial_magmoms 

Initialize ...

species:
  Cr:
    name: Chromium
    id: 33f258bda2ca9f93018e70263a35547b
    Z: 24.0
    valence: 6
    core: 18
    charge: 0.0
    file: /home/c.zeng/usr/data/gpaw-setups-0.9.20000/Cr.PBE.gz
    compensation charges: {type: gauss,
                           rc: 0.35,
                           lmax: 2}
    cutoffs: {filter: 2.14,
              core: 3.04}
    valence states:
      #              energy  rcut
      - 4s(1.00)    -4.007   1.164
      - 4p(0.00)    -0.989   1.217
      - 3d(5.00)    -2.913   1.111
      -  s          23.205   1.164
      -  p          26.223   1.217
      -  d          24.299   1.111
  
    # Using partial waves for Cr as LCAO basis

  Al:
    name: Aluminium
    id: 0292cae29f5d6237e50f6abdd43a7bdd
    Z: 13.0
    valence: 3
    core: 10
    charge: 0.0
    file: /home/c.zeng/usr/data/gpaw-setups-0.9.20000/Al.PBE.gz
    compensation charges: {type: gauss,
                           rc: 0.34,
                           lmax: 2}
    cutoffs: {filter: 1.91,
              core: 2.36}
    valence states:
      #              energy  rcut
      - 3s(2.00)    -7.753   1.085
      - 3p(1.00)    -2.712   1.085
      -  s          19.459   1.085
      -  p          24.499   1.085
      -  d           0.000   1.085
  
    # Using partial waves for Al as LCAO basis

  Fe:
    name: Iron
    id: 37abbd8d6c3c35915a9b583b742da910
    Z: 26.0
    valence: 8
    core: 18
    charge: 0.0
    file: /home/c.zeng/usr/data/gpaw-setups-0.9.20000/Fe.PBE.gz
    compensation charges: {type: gauss,
                           rc: 0.33,
                           lmax: 2}
    cutoffs: {filter: 2.06,
              core: 2.67}
    valence states:
      #              energy  rcut
      - 4s(2.00)    -5.291   1.164
      - 4p(0.00)    -1.326   1.058
      - 3d(6.00)    -7.505   1.058
      -  s          21.920   1.164
      -  p          25.885   1.058
      -  d          19.706   1.058
  
    # Using partial waves for Fe as LCAO basis

  Co:
    name: Cobalt
    id: 339d20d5b0b93d2de9531a1bee871d91
    Z: 27.0
    valence: 9
    core: 18
    charge: 0.0
    file: /home/c.zeng/usr/data/gpaw-setups-0.9.20000/Co.PBE.gz
    compensation charges: {type: gauss,
                           rc: 0.32,
                           lmax: 2}
    cutoffs: {filter: 1.87,
              core: 2.55}
    valence states:
      #              energy  rcut
      - 4s(2.00)    -5.469   1.005
      - 4p(0.00)    -1.277   1.058
      - 3d(7.00)    -8.205   1.005
      -  s          21.742   1.005
      -  p          25.934   1.058
      -  d          19.007   1.005
  
    # Using partial waves for Co as LCAO basis

  Ni:
    name: Nickel
    id: 0d9f38a9d6e76a2886f07bb4381f212b
    Z: 28.0
    valence: 16
    core: 12
    charge: 0.0
    file: /home/c.zeng/usr/data/gpaw-setups-0.9.20000/Ni.PBE.gz
    compensation charges: {type: gauss,
                           rc: 0.36,
                           lmax: 2}
    cutoffs: {filter: 2.14,
              core: 1.98}
    valence states:
      #              energy  rcut
      - 4s(2.00)    -5.642   1.164
      - 3p(6.00)   -71.394   1.207
      - 4p(0.00)    -1.226   1.207
      - 3d(8.00)    -8.875   1.138
      -  s          21.570   1.164
      -  d          18.337   1.138
  
    # Using partial waves for Ni as LCAO basis

Reference energy: -3927717.499734  # eV

Spin-polarized calculation.
Magnetic moment: 149.100000

Convergence criteria:
 Maximum [total energy] change in last 3 cyles: 0.0001 eV / electron
 Maximum integral of absolute [dens]ity change: 0.0001 electrons / valence electron
 Maximum integral of absolute [eigenst]ate change: 4e-08 eV^2 / valence electron
 Maximum number of scf [iter]ations: 666
 (Square brackets indicate name in SCF output, whereas a 'c' in
 the SCF output indicates the quantity has converged.)

Symmetries present (total): 1

  ( 1  0  0)
  ( 0  1  0)
  ( 0  0  1)

4 k-points: 2 x 2 x 1 Monkhorst-Pack grid
2 k-points in the irreducible part of the Brillouin zone
       k-points in crystal coordinates                weights
   0:     0.25000000   -0.25000000    0.00000000          2/4
   1:     0.25000000    0.25000000    0.00000000          2/4

Wave functions: Plane wave expansion
  Cutoff energy: 350.000 eV
  Number of coefficients (min, max): 60143, 60161
  Pulay-stress correction: 0.000000 eV/Ang^3 (de/decut=0.000000)
  Using FFTW library
  ScaLapack parameters: grid=1x1, blocksize=None
  Wavefunction extrapolation:
    Improved wavefunction reuse through dual PAW basis 

Occupation numbers: Fermi-Dirac:
  width: 0.1000  # eV
 

Eigensolver
   Davidson(niter=2) 

Densities:
  Coarse grid: 56*56*128 grid
  Fine grid: 112*112*256 grid
  Total Charge: 0.000000 

Density mixing:
  Method: difference
  Backend: pulay
  Linear mixing parameter: 0.05
  old densities: 5
  Damping of long wavelength oscillations: 50 

Hamiltonian:
  XC and Coulomb potentials evaluated on a 112*112*256 grid
  Using the PBE Exchange-Correlation functional
  External potential:
    NoExternalPotential
 

XC parameters: PBE with 2 nearest neighbor stencil

Memory estimate:
  Process memory now: 378.92 MiB
  Calculator: 2209.57 MiB
    Density: 18.91 MiB
      Arrays: 7.39 MiB
      Localized functions: 8.57 MiB
      Mixer: 2.95 MiB
    Hamiltonian: 5.75 MiB
      Arrays: 5.49 MiB
      XC: 0.00 MiB
      Poisson: 0.00 MiB
      vbar: 0.26 MiB
    Wavefunctions: 2184.92 MiB
      Arrays psit_nG: 1382.48 MiB
      Eigensolver: 782.37 MiB
      Projections: 3.31 MiB
      Projectors: 1.16 MiB
      PW-descriptor: 15.59 MiB

Total number of cores used: 30
Parallelization over k-points: 2
Domain decomposition: 1 x 3 x 5

Number of atoms: 125
Number of atomic orbitals: 1116
Number of bands in calculation: 753
Number of valence electrons: 1098
Bands to converge: occupied

... initialized

Initializing position-dependent things.

Density initialized from atomic densities
Creating initial wave functions:
  753 bands from LCAO basis set

                                                                     
                                                                     
                                                                     
                                                                     
                                                                     
                                                                     
                                                                     
                                                 Fe                  
                                            Ni                       
                        CoCo  Fe     FNi      NiCr                   
                  Al            Al        Al       Ni                
                         Crr Cr       Co Co    Co    Ni              
                     Fe     Ni    Cor   Ni Co Ni                     
        Cr     Fe    NiCo  Ni Ni CrCCr          Al                   
                  Co   Fe Cr Ni Fe     Al   Fe                       
          Cr             Al   Coi  FeCr   Al       Ni                
            Co     CoFe Ni      Coi Cr  Al  Co    NiCr     Al        
               Cr   Fe    ColNi     Ni    Co  Cr                     
                       Co   Nie Al Fe NiFe    CoCr    Cr             
         Co    Fei   Fe           Co Fe  Fe     Al                   
                  Co    Crr FeCr FeAl  Co Al                         
           Al       Co    Ni    Fe            Fe                     
                         Al       Cr  Ni    Co        Fe             
               Cr    Al      Al         Cr       Ni                  
                        Ni    Fe Cr    Cr                            
                                                                     
                                                                     
                                                                     
                                                                     
                                                                     
                                                                     
                                                                     

Positions:
   0 Cr    13.227662    2.119912   10.188239    ( 0.0000,  0.0000,  0.0000)
   1 Cr     3.155056    2.264492   10.745891    ( 0.0000,  0.0000,  0.0000)
   2 Al     5.696461    2.100938   10.599905    ( 0.0000,  0.0000,  0.0000)
   3 Fe     8.946242    4.429082    9.333264    ( 0.0000,  0.0000,  2.0000)
   4 Cr    10.786863    2.240310   10.347459    ( 0.0000,  0.0000,  0.0000)
   5 Co    14.577259    4.472554   10.915953    ( 0.0000,  0.0000,  2.1000)
   6 Co     4.697811    4.377824   11.454420    ( 0.0000,  0.0000,  2.1000)
   7 Ni     7.265077    4.246354   11.553176    ( 0.0000,  0.0000,  1.5000)
   8 Fe     9.796863    4.045828   11.497949    ( 0.0000,  0.0000,  2.0000)
   9 Ni    12.023822    4.234562   10.851196    ( 0.0000,  0.0000,  1.5000)
  10 Ni    16.601902    4.979577    9.370468    ( 0.0000,  0.0000,  1.5000)
  11 Ni     6.419228    4.293452    9.350567    ( 0.0000,  0.0000,  1.5000)
  12 Al     7.801636    6.694824    8.865847    ( 0.0000,  0.0000,  0.0000)
  13 Cr    10.223931    6.106161    9.785469    ( 0.0000,  0.0000,  0.0000)
  14 Cr    12.699649    6.045224    9.157927    ( 0.0000,  0.0000,  0.0000)
  15 Fe    18.040752    6.950719    8.992580    ( 0.0000,  0.0000,  2.0000)
  16 Fe     6.791799    9.115986    9.497984    ( 0.0000,  0.0000,  2.0000)
  17 Fe     9.081829    8.491913    9.988600    ( 0.0000,  0.0000,  2.0000)
  18 Co    11.487573    8.249654    9.895790    ( 0.0000,  0.0000,  2.1000)
  19 Fe    14.518346    7.993911    9.409765    ( 0.0000,  0.0000,  2.0000)
  20 Al    18.888997   11.130755   12.323656    ( 0.0000,  0.0000,  0.0000)
  21 Ni    10.639048   10.452403   10.442229    ( 0.0000,  0.0000,  1.5000)
  22 Co    11.802520   11.340149   12.397622    ( 0.0000,  0.0000,  2.1000)
  23 Co    13.503729   11.106253   10.568145    ( 0.0000,  0.0000,  2.1000)
  24 Al    14.047107   12.875768    8.875781    ( 0.0000,  0.0000,  0.0000)
  25 Al     8.026791   10.907271   10.309702    ( 0.0000,  0.0000,  0.0000)
  26 Fe     9.082647   11.042678   12.520083    ( 0.0000,  0.0000,  2.0000)
  27 Al     7.690322    0.184101   13.019761    ( 0.0000,  0.0000,  0.0000)
  28 Ni    14.845999   13.118312   11.249130    ( 0.0000,  0.0000,  1.5000)
  29 Cr    16.224360   11.123767   11.909900    ( 0.0000,  0.0000,  0.0000)
  30 Al     1.706970    2.341907   12.295585    ( 0.0000,  0.0000,  0.0000)
  31 Co     4.189276    2.546108   12.874182    ( 0.0000,  0.0000,  2.1000)
  32 Cr     6.808509    2.377386   12.867968    ( 0.0000,  0.0000,  0.0000)
  33 Cr     9.397656    1.990967   13.338795    ( 0.0000,  0.0000,  0.0000)
  34 Al    11.472231    2.770100   12.839104    ( 0.0000,  0.0000,  0.0000)
  35 Ni     3.010209    4.810745   12.945579    ( 0.0000,  0.0000,  1.5000)
  36 Co     5.730327    4.885920   13.441944    ( 0.0000,  0.0000,  2.1000)
  37 Fe     8.544888    4.557585   13.456832    ( 0.0000,  0.0000,  2.0000)
  38 Fe    10.777311    4.664776   13.838999    ( 0.0000,  0.0000,  2.0000)
  39 Fe    13.293795    4.678289   12.933848    ( 0.0000,  0.0000,  2.0000)
  40 Cr     3.347891    6.696625   11.184965    ( 0.0000,  0.0000,  0.0000)
  41 Cr     6.061326    6.681218   11.302835    ( 0.0000,  0.0000,  0.0000)
  42 Fe     8.478767    6.338056   11.442727    ( 0.0000,  0.0000,  2.0000)
  43 Fe    11.096939    6.200298   11.990419    ( 0.0000,  0.0000,  2.0000)
  44 Al    13.088909    6.891197   11.081985    ( 0.0000,  0.0000,  0.0000)
  45 Cr    17.408300    8.939456   11.485903    ( 0.0000,  0.0000,  0.0000)
  46 Ni     7.430970    9.043959   11.954025    ( 0.0000,  0.0000,  1.5000)
  47 Ni    10.023364    8.686580   12.052777    ( 0.0000,  0.0000,  1.5000)
  48 Co    12.522655    9.123586   11.867121    ( 0.0000,  0.0000,  2.1000)
  49 Cr    14.893201    9.073904   11.463637    ( 0.0000,  0.0000,  0.0000)
  50 Co     1.122237    0.614709   14.503383    ( 0.0000,  0.0000,  2.1000)
  51 Fe     3.698244    0.864219   14.619055    ( 0.0000,  0.0000,  2.0000)
  52 Fe     6.198684    0.590308   14.881659    ( 0.0000,  0.0000,  2.0000)
  53 Ni     8.905552    0.676243   15.329099    ( 0.0000,  0.0000,  1.5000)
  54 Co    11.500645    0.856300   14.366094    ( 0.0000,  0.0000,  2.1000)
  55 Cr     2.859439    3.175594   14.771163    ( 0.0000,  0.0000,  0.0000)
  56 Fe     5.237783    3.107140   14.888130    ( 0.0000,  0.0000,  2.0000)
  57 Co     7.679044    2.917580   15.262502    ( 0.0000,  0.0000,  2.1000)
  58 Co    10.231333    2.890355   15.700261    ( 0.0000,  0.0000,  2.1000)
  59 Fe    13.120997    2.916706   14.772399    ( 0.0000,  0.0000,  2.0000)
  60 Fe     4.105350    5.438065   15.216967    ( 0.0000,  0.0000,  2.0000)
  61 Al     6.616829    5.425552   15.723180    ( 0.0000,  0.0000,  0.0000)
  62 Ni     9.235637    5.204409   15.589379    ( 0.0000,  0.0000,  1.5000)
  63 Cr    11.597600    4.927754   15.938703    ( 0.0000,  0.0000,  0.0000)
  64 Co    14.316336    5.676894   15.075229    ( 0.0000,  0.0000,  2.1000)
  65 Fe     4.474957    7.151784   13.808248    ( 0.0000,  0.0000,  2.0000)
  66 Al     7.094220    6.861250   13.594686    ( 0.0000,  0.0000,  0.0000)
  67 Ni     9.574691    6.954013   13.841691    ( 0.0000,  0.0000,  1.5000)
  68 Al    12.199232    7.085471   14.265970    ( 0.0000,  0.0000,  0.0000)
  69 Cr    14.677094    7.393450   13.351616    ( 0.0000,  0.0000,  0.0000)
  70 Cr     5.844357    9.459943   14.066628    ( 0.0000,  0.0000,  0.0000)
  71 Fe     8.533499    9.289224   14.183638    ( 0.0000,  0.0000,  2.0000)
  72 Al    11.088145    9.754495   14.417226    ( 0.0000,  0.0000,  0.0000)
  73 Fe    13.474991    9.184535   14.751347    ( 0.0000,  0.0000,  2.0000)
  74 Ni    16.179994    9.285117   13.980189    ( 0.0000,  0.0000,  1.5000)
  75 Cr    12.054363    1.563819   16.727068    ( 0.0000,  0.0000,  0.0000)
  76 Co     2.380381    1.339175   16.798198    ( 0.0000,  0.0000,  2.1000)
  77 Co     4.971304    1.474242   16.754570    ( 0.0000,  0.0000,  2.1000)
  78 Ni     7.267854    1.411884   16.997107    ( 0.0000,  0.0000,  1.5000)
  79 Co     9.834460    1.179612   17.537453    ( 0.0000,  0.0000,  2.1000)
  80 Al    13.999212    3.886694   16.714187    ( 0.0000,  0.0000,  0.0000)
  81 Co     3.968277    3.709823   16.922333    ( 0.0000,  0.0000,  2.1000)
  82 Fe     6.193226    3.734621   17.533279    ( 0.0000,  0.0000,  2.0000)
  83 Ni     8.804021    3.620628   17.622319    ( 0.0000,  0.0000,  1.5000)
  84 Cr    11.355140    3.477218   17.979185    ( 0.0000,  0.0000,  0.0000)
  85 Ni    15.101325    5.939939   17.629134    ( 0.0000,  0.0000,  1.5000)
  86 Fe     5.012106    5.626087   17.955024    ( 0.0000,  0.0000,  2.0000)
  87 Ni     7.722188    5.724178   18.051506    ( 0.0000,  0.0000,  1.5000)
  88 Co    10.044868    5.664525   18.058894    ( 0.0000,  0.0000,  2.1000)
  89 Ni    12.578347    5.771238   18.079780    ( 0.0000,  0.0000,  1.5000)
  90 Al    15.506164    7.910511   15.702950    ( 0.0000,  0.0000,  0.0000)
  91 Co     5.121854    7.494905   16.123036    ( 0.0000,  0.0000,  2.1000)
  92 Ni     7.919755    7.568935   15.923190    ( 0.0000,  0.0000,  1.5000)
  93 Cr    10.280157    7.351140   16.205522    ( 0.0000,  0.0000,  0.0000)
  94 Ni    13.178399    7.699980   16.651367    ( 0.0000,  0.0000,  1.5000)
  95 Ni    16.841500   10.144768   16.219684    ( 0.0000,  0.0000,  1.5000)
  96 Cr     6.987748    9.930571   16.369896    ( 0.0000,  0.0000,  0.0000)
  97 Cr     9.363309    9.846111   16.239312    ( 0.0000,  0.0000,  0.0000)
  98 Co    11.950205    9.821131   16.726257    ( 0.0000,  0.0000,  2.1000)
  99 Co    14.283167   10.012906   16.921119    ( 0.0000,  0.0000,  2.1000)
 100 Co     5.583401   10.055793   18.252182    ( 0.0000,  0.0000,  2.1000)
 101 Cr     1.816251   -0.610873   18.623160    ( 0.0000,  0.0000,  0.0000)
 102 Fe    10.311903   10.659874   18.110545    ( 0.0000,  0.0000,  2.0000)
 103 Ni    12.817707   10.698708   18.868621    ( 0.0000,  0.0000,  1.5000)
 104 Fe    15.248998   10.246805   19.346321    ( 0.0000,  0.0000,  2.0000)
 105 Cr     0.715636    1.509585   18.835037    ( 0.0000,  0.0000,  0.0000)
 106 Fe     3.207385    2.113535   18.642221    ( 0.0000,  0.0000,  2.0000)
 107 Ni     5.548296    2.028895   18.938386    ( 0.0000,  0.0000,  1.5000)
 108 Ni     8.219602    1.646605   19.425996    ( 0.0000,  0.0000,  1.5000)
 109 Cr    10.758067    1.179092   19.608536    ( 0.0000,  0.0000,  0.0000)
 110 Al    14.337520    2.397598   20.792442    ( 0.0000,  0.0000,  0.0000)
 111 Al     4.097300    4.269344   19.841132    ( 0.0000,  0.0000,  0.0000)
 112 Cr     7.060640    3.960860   19.550605    ( 0.0000,  0.0000,  0.0000)
 113 Al     9.716072    4.016380   20.003264    ( 0.0000,  0.0000,  0.0000)
 114 Co    12.307293    3.269930   20.114826    ( 0.0000,  0.0000,  2.1000)
 115 Cr    15.604274    6.451513   19.937170    ( 0.0000,  0.0000,  0.0000)
 116 Co     6.007087    6.038536   19.950909    ( 0.0000,  0.0000,  2.1000)
 117 Fe     8.423191    6.049807   20.305578    ( 0.0000,  0.0000,  2.0000)
 118 Ni    11.848947    5.630073   20.269222    ( 0.0000,  0.0000,  1.5000)
 119 Co    14.412586    4.244712   18.987990    ( 0.0000,  0.0000,  2.1000)
 120 Ni    16.459608    8.295242   17.899191    ( 0.0000,  0.0000,  1.5000)
 121 Cr     6.244469    7.518506   18.065304    ( 0.0000,  0.0000,  0.0000)
 122 Co     8.670982    7.989615   18.049353    ( 0.0000,  0.0000,  2.1000)
 123 Fe    11.294126    8.215830   18.656312    ( 0.0000,  0.0000,  2.0000)
 124 Ni    14.315830    8.337368   18.612891    ( 0.0000,  0.0000,  1.5000)

Unit cell:
           periodic     x           y           z      points  spacing
  1. axis:    yes   12.614700    0.000000    0.000000    56     0.1951
  2. axis:    yes    6.308550   10.926700    0.000000    56     0.1951
  3. axis:    no     0.000000    0.000000   29.353100   128     0.2293

  Lengths:  12.614700  12.617075  29.353100
  Angles:   90.000000  90.000000  59.999934

Effective grid spacing dv^(1/3) = 0.2160

     iter     time        total  log10-change:  magmom
                         energy  eigst   dens
iter:   1 19:41:41 -1157.631890                  +149.4302
iter:   2 19:44:12 -1414.597662  +0.34  -1.06    +78.2532
iter:   3 19:46:43 -3722.652661  +1.55  -0.87    +53.2277
iter:   4 19:49:14  -984.784296  +0.33  -0.49    +30.6180
iter:   5 19:51:46  -937.410183  +0.02  -1.14    +26.7732
iter:   6 19:54:17  -939.717951  -0.44  -1.21    +27.8103
iter:   7 19:56:46  -924.918827  -0.83  -1.22    +29.0067
iter:   8 19:59:15  -926.777533  -0.75  -1.24    +30.7797
iter:   9 20:01:44 -1406.206582  -0.62  -1.23    +33.4151
iter:  10 20:04:13  -917.907023  -0.86  -0.87    +30.1417
iter:  11 20:06:42  -916.842627  -1.56  -1.30    +30.4820
iter:  12 20:09:10  -917.482908  -1.20  -1.31    +34.5411
iter:  13 20:11:39  -914.319438  -1.38  -1.38    +35.9469
iter:  14 20:14:07  -903.924697  -1.44  -1.34    +39.1116
iter:  15 20:16:36  -892.672308  -1.58  -1.41    +41.1149
iter:  16 20:19:05  -948.548067  -1.48  -1.52    +44.7091
iter:  17 20:21:34  -892.344708  -1.70  -1.25    +44.9418
iter:  18 20:24:02  -903.305845  -2.02  -1.56    +48.7160
iter:  19 20:26:31  -900.285281  -1.86  -1.47    +52.1944
iter:  20 20:29:00  -893.381519  -2.33  -1.50    +54.8626
iter:  21 20:31:28  -899.205259  -2.26  -1.57    +59.1725
iter:  22 20:33:57  -892.261154  -2.08  -1.53    +61.2855
iter:  23 20:36:25  -890.737765  -2.33  -1.65    +63.6656
iter:  24 20:38:54  -892.048109  -2.18  -1.69    +65.6456
iter:  25 20:41:23  -898.171280  -2.23  -1.70    +66.8829
iter:  26 20:43:51  -891.301441  -2.29  -1.60    +68.3844
iter:  27 20:46:20  -892.844325  -2.25  -1.75    +69.4071
iter:  28 20:48:49  -893.935771  -2.34  -1.77    +69.5550
iter:  29 20:51:18  -891.889913  -2.39  -1.77    +69.8521
iter:  30 20:53:48  -894.605336  -2.79  -1.83    +70.7746
iter:  31 20:56:17  -894.882993  -2.35  -1.78    +71.7969
iter:  32 20:58:47  -892.848635  -2.51  -1.80    +71.6070
iter:  33 21:01:17  -893.021142  -2.76  -1.91    +70.8492
iter:  34 21:03:46  -893.219000  -2.77  -1.97    +71.0777
iter:  35 21:06:16  -894.288019  -2.50  -2.04    +71.2428
iter:  36 21:08:46  -894.383706  -2.81  -1.99    +71.1878
iter:  37 21:11:16  -899.477556  -2.56  -2.03    +70.5125
iter:  38 21:13:46  -894.739483  -2.57  -1.76    +71.1827
iter:  39 21:16:16  -894.103765  -2.84  -2.05    +71.9494
iter:  40 21:18:46  -894.208712  -3.21  -2.15    +72.1202
iter:  41 21:21:16  -894.507307  -3.19  -2.19    +72.5016
iter:  42 21:23:46  -894.555370  -3.54  -2.20    +72.9151
iter:  43 21:26:17  -896.315686  -3.12  -2.22    +73.3865
iter:  44 21:28:47  -895.834244  -3.02  -2.05    +73.3086
iter:  45 21:31:17  -895.152817  -3.26  -2.06    +73.4700
iter:  46 21:33:47  -895.196317  -3.00  -2.25    +74.1253
iter:  47 21:36:17  -895.038791  -3.11  -2.32    +74.0568
iter:  48 21:38:47  -895.080916  -3.58  -2.43    +73.8351
iter:  49 21:41:17  -895.332222  -3.26  -2.47    +73.6608
iter:  50 21:43:47  -895.198452  -3.55  -2.33    +73.9398
iter:  51 21:46:17  -895.054293  -4.01  -2.45    +73.7790
iter:  52 21:48:47  -895.058598  -3.79  -2.65    +73.6155
iter:  53 21:51:16  -895.061660c -3.95  -2.69    +73.6082
iter:  54 21:53:46  -895.132432c -4.04  -2.74    +73.5083
iter:  55 21:56:16  -895.140414c -4.22  -2.71    +73.2920
iter:  56 21:58:46  -895.130723c -4.05  -2.70    +73.0183
iter:  57 22:01:16  -895.101405c -4.55  -2.69    +73.0552
iter:  58 22:03:47  -895.128402c -4.59  -2.85    +72.9382
iter:  59 22:06:17  -895.164638c -4.35  -2.84    +72.8009
iter:  60 22:08:47  -895.220264c -4.16  -2.82    +72.6221
iter:  61 22:11:17  -895.244852c -4.88  -2.74    +72.6332
iter:  62 22:13:47  -895.239826c -4.17  -2.70    +72.5235
iter:  63 22:16:17  -895.375354  -4.11  -2.78    +72.4719
iter:  64 22:18:48  -895.217118  -4.16  -2.56    +72.3852
iter:  65 22:21:18  -895.208980  -4.01  -2.86    +72.3247
iter:  66 22:23:48  -895.217677c -4.39  -2.92    +72.3173
iter:  67 22:26:18  -895.196761c -4.53  -2.90    +72.1546
iter:  68 22:28:48  -895.196214c -4.62  -3.05    +72.1134
iter:  69 22:31:18  -895.196245c -4.47  -3.11    +72.1167
iter:  70 22:33:48  -895.300885c -4.43  -3.10    +72.1449
iter:  71 22:36:19  -895.212992c -4.35  -2.70    +72.1334
iter:  72 22:38:49  -895.198235c -4.78  -2.93    +72.1864
iter:  73 22:41:19  -895.194510c -4.92  -3.13    +72.2218
iter:  74 22:43:49  -895.192906c -5.25  -3.21    +72.2213
iter:  75 22:46:20  -895.193117c -5.24  -3.26    +72.2282
iter:  76 22:48:50  -895.193907c -5.44  -3.30    +72.2520
iter:  77 22:51:20  -895.219555c -5.02  -3.26    +72.2891
iter:  78 22:53:50  -895.197494c -4.99  -3.01    +72.2833
iter:  79 22:56:21  -895.199727c -4.92  -3.30    +72.3270
iter:  80 22:58:51  -895.198161c -5.15  -3.24    +72.3551
iter:  81 23:01:21  -895.201752c -5.15  -3.35    +72.3889
iter:  82 23:03:51  -895.200271c -5.21  -3.32    +72.3878
iter:  83 23:06:21  -895.203971c -5.23  -3.40    +72.3983
iter:  84 23:08:51  -895.200093c -5.58  -3.18    +72.4481
iter:  85 23:11:21  -895.203134c -5.29  -3.56    +72.4873
iter:  86 23:13:51  -895.202313c -5.44  -3.44    +72.5018
iter:  87 23:16:21  -895.204326c -5.47  -3.48    +72.5688
iter:  88 23:18:51  -895.206614c -5.36  -3.49    +72.5981
iter:  89 23:21:21  -895.211683c -5.34  -3.60    +72.6333
iter:  90 23:23:53  -895.207243c -5.58  -3.40    +72.6263
iter:  91 23:26:25  -895.210505c -5.58  -3.75    +72.6992
iter:  92 23:28:58  -895.208890c -6.43  -3.66    +72.6769
iter:  93 23:31:30  -895.206586c -5.59  -3.66    +72.6527
iter:  94 23:34:02  -895.211254c -5.62  -3.77    +72.7223
iter:  95 23:36:35  -895.216265c -5.25  -3.80    +72.6566
iter:  96 23:39:08  -895.215915c -4.98  -3.26    +72.7718
iter:  97 23:41:40  -895.216295c -5.51  -3.54    +72.7945
iter:  98 23:44:13  -895.222068c -5.44  -3.63    +72.8810
iter:  99 23:46:45  -895.220392c -5.49  -3.43    +72.7992
iter: 100 23:49:18  -895.226377c -5.01  -3.26    +72.9651
iter: 101 23:51:50  -895.244756c -5.02  -3.53    +72.9950
iter: 102 23:54:23  -895.234292c -5.26  -3.09    +73.0532
iter: 103 23:56:55  -895.250350c -4.98  -3.51    +73.1355
iter: 104 23:59:28  -895.239991c -5.51  -3.25    +73.1162
iter: 105 00:02:01  -895.247652c -4.99  -3.48    +73.1987
iter: 106 00:04:33  -895.264539c -4.66  -3.37    +73.2000
iter: 107 00:07:05  -895.313299c -4.40  -3.03    +73.3303
iter: 108 00:09:38  -895.253109c -4.86  -2.83    +73.3197
iter: 109 00:12:11  -895.263073c -5.14  -3.66    +73.4230
iter: 110 00:14:43  -895.214294c -3.86  -3.68    +72.8127
iter: 111 00:17:16  -895.201284c -4.11  -3.67    +72.5028
iter: 112 00:19:48  -895.203585c -5.23  -3.34    +72.5708
iter: 113 00:22:21  -895.209526c -5.40  -3.59    +72.5785
iter: 114 00:24:54  -895.204821c -5.72  -3.40    +72.5895
iter: 115 00:27:26  -895.208165c -5.21  -3.77    +72.6278
iter: 116 00:29:58  -895.209734c -5.35  -3.55    +72.6189
iter: 117 00:32:31  -895.209970c -5.48  -3.37    +72.7066
iter: 118 00:35:03  -895.213459c -5.37  -3.85    +72.7312
iter: 119 00:37:35  -895.212370c -5.55  -3.53    +72.7478
iter: 120 00:40:08  -895.216644c -5.37  -4.05c   +72.8103
iter: 121 00:42:41  -895.213024c -5.94  -3.87    +72.7574
iter: 122 00:45:13  -895.198316c -4.19  -4.00    +72.4166
iter: 123 00:47:45  -895.196049c -4.59  -3.53    +72.2800
iter: 124 00:50:18  -895.197472c -4.52  -3.37    +72.0938
iter: 125 00:52:50  -895.208362c -5.06  -3.21    +72.0542
iter: 126 00:55:23  -895.195165c -5.43  -3.07    +72.1412
iter: 127 00:57:55  -895.191970c -5.53  -3.26    +72.1746
iter: 128 01:00:28  -895.197722c -5.39  -3.26    +72.1596
iter: 129 01:03:01  -895.263564c -4.07  -3.23    +72.2055
iter: 130 01:05:34  -895.213054c -4.46  -2.85    +72.2005
iter: 131 01:08:06  -895.279758c -4.19  -3.02    +72.1541
iter: 132 01:10:38  -895.190119c -4.64  -2.67    +72.1998
iter: 133 01:13:11  -895.190106c -5.10  -3.34    +72.1999
iter: 134 01:15:43  -895.191302c -5.19  -3.60    +72.2100
iter: 135 01:18:16  -895.193209c -5.39  -3.66    +72.2397
iter: 136 01:20:48  -895.194774c -5.54  -3.70    +72.2664
iter: 137 01:23:21  -895.196430c -5.37  -3.62    +72.2872
iter: 138 01:25:53  -895.196315c -5.58  -3.39    +72.3090
iter: 139 01:28:26  -895.198813c -5.69  -3.78    +72.3518
iter: 140 01:30:58  -895.196782c -6.04  -3.56    +72.3569
iter: 141 01:33:30  -895.199359c -5.96  -4.03c   +72.3901
iter: 142 01:36:03  -895.200498c -6.00  -3.78    +72.4276
iter: 143 01:38:35  -895.194566c -4.85  -3.82    +72.2478
iter: 144 01:41:08  -895.200959c -4.93  -3.46    +72.4543
iter: 145 01:43:40  -895.201701c -5.88  -3.87    +72.4736
iter: 146 01:46:13  -895.202577c -5.82  -3.84    +72.5026
iter: 147 01:48:45  -895.203328c -6.43  -3.87    +72.5053
iter: 148 01:51:18  -895.205985c -5.84  -3.79    +72.5532
iter: 149 01:53:50  -895.197685c -5.00  -3.75    +72.3994
iter: 150 01:56:23  -895.196925c -5.61  -3.93    +72.4030
iter: 151 01:58:56  -895.198760c -6.08  -4.09c   +72.4410
iter: 152 02:01:28  -895.197627c -6.12  -4.23c   +72.3915
iter: 153 02:04:01  -895.197822c -6.40  -3.92    +72.3996
iter: 154 02:06:31  -895.198671c -6.51  -4.19c   +72.4241
iter: 155 02:09:01  -895.199971c -6.06  -4.30c   +72.4498
iter: 156 02:11:32  -895.200262c -6.53  -3.72    +72.4581
iter: 157 02:14:02  -895.202504c -5.93  -4.15c   +72.5158
iter: 158 02:16:32  -895.189965c -4.29  -4.03c   +72.1076
iter: 159 02:19:02  -895.186290c -4.28  -3.75    +71.7996
iter: 160 02:21:32  -895.186767c -5.49  -3.47    +71.8729
iter: 161 02:24:02  -895.186606c -5.57  -3.52    +71.9670
iter: 162 02:26:32  -895.186515c -6.28  -3.60    +71.9342
iter: 163 02:29:02  -895.184997c -6.12  -3.57    +71.9627
iter: 164 02:31:32  -895.224872c -4.79  -3.54    +71.9500
iter: 165 02:34:02  -895.207066c -4.65  -2.86    +71.9976
iter: 166 02:36:32  -895.199980c -4.96  -3.12    +72.0351
iter: 167 02:39:03  -895.193006c -4.77  -3.14    +72.0044
iter: 168 02:41:33  -895.183793c -5.30  -3.32    +71.9924
iter: 169 02:44:03  -895.190721c -5.22  -3.62    +72.0366
iter: 170 02:46:33  -895.187469c -5.53  -3.47    +72.0229
iter: 171 02:49:03  -895.194589c -5.63  -3.76    +72.0400
iter: 172 02:51:33  -895.187891c -5.76  -3.35    +72.0501
iter: 173 02:54:03  -895.189638c -5.66  -3.96    +72.0685
iter: 174 02:56:34  -895.189591c -5.93  -3.72    +72.1080
iter: 175 02:59:04  -895.189661c -6.09  -4.01c   +72.1312
iter: 176 03:01:34  -895.191230c -6.22  -4.18c   +72.1202
iter: 177 03:04:04  -895.190372c -6.03  -3.72    +72.1565
iter: 178 03:06:35  -895.190836c -6.56  -3.93    +72.1525
iter: 179 03:09:05  -895.191814c -6.16  -4.28c   +72.1861
iter: 180 03:11:35  -895.188872c -5.46  -4.28c   +72.0852
iter: 181 03:14:05  -895.184551c -4.60  -4.30c   +71.8471
iter: 182 03:16:35  -895.184358c -5.32  -3.72    +71.8275
iter: 183 03:19:06  -895.184616c -5.59  -3.68    +71.8186
iter: 184 03:21:36  -895.185077c -6.36  -3.62    +71.8403
iter: 185 03:24:06  -895.185010c -6.02  -3.63    +71.8026
iter: 186 03:26:36  -895.186932c -5.58  -3.50    +71.8650
iter: 187 03:29:06  -895.186654c -5.77  -3.47    +71.8403
iter: 188 03:31:36  -895.243143c -4.55  -3.43    +71.8735
iter: 189 03:34:06  -895.186055c -4.93  -2.80    +71.8592
iter: 190 03:36:36  -895.239547c -4.50  -3.38    +71.9156
iter: 191 03:39:06  -895.188166c -4.74  -2.87    +71.9007
iter: 192 03:41:36  -895.191525c -4.94  -3.28    +71.8799
iter: 193 03:44:07  -895.185452c -5.15  -3.35    +71.8945
iter: 194 03:46:37  -895.184703c -5.61  -3.50    +71.9207
iter: 195 03:49:07  -895.185584c -5.68  -3.69    +71.9323
iter: 196 03:51:37  -895.194629c -5.28  -3.87    +71.9597
iter: 197 03:54:07  -895.186546c -5.73  -3.34    +71.9513
iter: 198 03:56:37  -895.186999c -5.76  -3.67    +71.9714
iter: 199 03:59:08  -895.188078c -5.92  -3.88    +71.9896
iter: 200 04:01:38  -895.187598c -6.08  -3.57    +72.0112
iter: 201 04:04:08  -895.188095c -6.16  -3.67    +72.0293
iter: 202 04:06:39  -895.196039c -5.48  -3.70    +72.0525
iter: 203 04:09:09  -895.188944c -5.82  -3.34    +72.0540
iter: 204 04:11:39  -895.189564c -6.03  -3.70    +72.0757
iter: 205 04:14:10  -895.189784c -6.37  -3.92    +72.0824
iter: 206 04:16:41  -895.190163c -6.09  -3.75    +72.1044
iter: 207 04:19:11  -895.190404c -5.98  -4.00    +72.1141
iter: 208 04:21:42  -895.191718c -5.97  -3.74    +72.1368
iter: 209 04:24:13  -895.190982c -6.06  -3.85    +72.1528
iter: 210 04:26:43  -895.191884c -6.16  -3.77    +72.1860
iter: 211 04:29:14  -895.192814c -6.34  -4.07c   +72.2115
iter: 212 04:31:44  -895.191807c -6.42  -3.95    +72.1668
iter: 213 04:34:15  -895.188326c -5.01  -4.07c   +71.9806
iter: 214 04:36:45  -895.189464c -6.00  -3.82    +71.9945
iter: 215 04:39:16  -895.189564c -6.20  -3.77    +72.0225
iter: 216 04:41:46  -895.189563c -5.98  -3.69    +72.0611
iter: 217 04:44:16  -895.191118c -6.02  -3.79    +72.0821
iter: 218 04:46:47  -895.190546c -5.92  -3.84    +72.1004
iter: 219 04:49:17  -895.191656c -5.95  -4.00c   +72.1269
iter: 220 04:51:47  -895.192332c -5.75  -4.05c   +72.1685
iter: 221 04:54:17  -895.192860c -6.42  -3.84    +72.1878
iter: 222 04:56:48  -895.194194c -6.00  -4.16c   +72.2380
iter: 223 04:59:18  -895.189765c -5.02  -3.97    +72.0400
iter: 224 05:01:49  -895.186832c -4.94  -4.02c   +71.8653
iter: 225 05:04:19  -895.187755c -6.19  -3.76    +71.9216
iter: 226 05:06:50  -895.188833c -5.89  -3.87    +71.9797
iter: 227 05:09:20  -895.188273c -6.89  -3.71    +71.9554
iter: 228 05:11:51  -895.189537c -6.05  -3.84    +71.9815
iter: 229 05:14:21  -895.188728c -5.75  -3.71    +71.9949
iter: 230 05:16:52  -895.190806c -5.78  -3.91    +72.0232
iter: 231 05:19:22  -895.189932c -5.67  -3.72    +72.0420
iter: 232 05:21:53  -895.190530c -5.68  -3.66    +72.0773
iter: 233 05:24:24  -895.194532c -5.66  -3.67    +72.1279
iter: 234 05:26:58  -895.191774c -5.95  -3.52    +72.1438
iter: 235 05:29:31  -895.192948c -5.84  -4.05c   +72.1843
iter: 236 05:32:04  -895.193473c -6.40  -4.07c   +72.1769
iter: 237 05:34:37  -895.193732c -5.87  -3.89    +72.2260
iter: 238 05:37:11  -895.194320c -6.00  -3.91    +72.2493
iter: 239 05:39:44  -895.196072c -5.95  -3.69    +72.2955
iter: 240 05:42:17  -895.197449c -6.13  -3.79    +72.3294
iter: 241 05:44:50  -895.197037c -6.04  -3.68    +72.2817
iter: 242 05:47:24  -895.206602c -5.39  -3.60    +72.2904
iter: 243 05:49:57  -895.195716c -5.76  -3.24    +72.3136
iter: 244 05:52:31  -895.197077c -5.54  -3.78    +72.3518
iter: 245 05:55:04  -895.198278c -5.71  -3.78    +72.3767
iter: 246 05:57:37  -895.198490c -5.78  -3.69    +72.4141
iter: 247 06:00:10  -895.200390c -5.81  -3.85    +72.4647
iter: 248 06:02:37  -895.212803c -5.52  -4.01c   +72.4902
iter: 249 06:05:07  -895.204450c -5.79  -3.22    +72.5191
iter: 250 06:07:50  -895.207105c -5.64  -3.59    +72.5819
iter: 251 06:10:34  -895.205626c -6.11  -3.60    +72.5291
iter: 252 06:13:18  -895.212527c -5.39  -3.59    +72.6411
iter: 253 06:16:01  -895.197415c -4.39  -3.46    +72.2439
iter: 254 06:18:45  -895.208788c -5.06  -3.42    +72.4822
iter: 255 06:21:29  -895.199643c -5.75  -3.31    +72.4139
iter: 256 06:24:13  -895.201291c -6.00  -3.79    +72.4699
iter: 257 06:26:56  -895.202222c -6.35  -3.81    +72.4832
iter: 258 06:29:40  -895.205775c -5.59  -3.71    +72.5273
iter: 259 06:32:24  -895.205283c -5.38  -3.56    +72.5349
iter: 260 06:35:08  -895.206029c -5.69  -3.48    +72.5633
iter: 261 06:37:52  -895.211168c -5.59  -3.81    +72.6272
iter: 262 06:40:36  -895.206149c -5.91  -3.53    +72.5661
iter: 263 06:43:20  -895.216434c -5.31  -3.73    +72.6537
iter: 264 06:46:04  -895.215046c -5.61  -3.30    +72.6599
iter: 265 06:48:48  -895.214698c -5.38  -3.37    +72.6850
iter: 266 06:51:32  -895.217219c -5.56  -3.57    +72.7345
iter: 267 06:54:16  -895.225945c -5.08  -3.55    +72.7744
iter: 268 06:57:00  -895.220970c -5.14  -3.15    +72.8291
iter: 269 06:59:45  -895.225683c -5.13  -3.41    +72.9502
iter: 270 07:02:29  -895.232450c -5.13  -3.52    +73.0074
iter: 271 07:05:13  -895.231364c -5.51  -3.33    +73.0375
iter: 272 07:07:57  -895.243512c -5.18  -3.58    +73.0911
iter: 273 07:10:41  -895.246419c -5.04  -3.29    +73.1115
iter: 274 07:13:25  -895.247334c -4.97  -3.13    +73.1749
iter: 275 07:16:09  -895.251439c -5.06  -3.31    +73.2769
iter: 276 07:18:53  -895.260388c -5.10  -3.52    +73.3455
iter: 277 07:21:37  -895.260317c -5.18  -3.40    +73.3609
iter: 278 07:24:21  -895.281209c -4.95  -3.44    +73.4123
iter: 279 07:27:06  -895.268816c -5.18  -3.11    +73.4580
iter: 280 07:29:49  -895.278474c -5.08  -3.43    +73.5268
iter: 281 07:32:34  -895.293813c -4.98  -3.52    +73.5871
iter: 282 07:35:18  -895.294507c -5.24  -3.18    +73.5810
iter: 283 07:38:02  -895.304040c -4.84  -3.17    +73.7591
iter: 284 07:40:45  -895.315950c -4.87  -3.32    +73.8802
iter: 285 07:43:29  -895.329652c -4.98  -3.24    +73.9505
iter: 286 07:46:13  -895.347599c -4.45  -3.07    +74.0544
iter: 287 07:48:58  -895.329644c -4.78  -2.98    +74.0881
iter: 288 07:51:41  -895.342167c -4.82  -3.35    +74.1760
iter: 289 07:54:26  -895.345385c -4.91  -3.15    +74.2399
iter: 290 07:57:10  -895.354044c -4.87  -3.23    +74.2781
iter: 291 07:59:54  -895.353282c -5.07  -3.19    +74.2821
iter: 292 08:02:38  -895.359426c -4.95  -3.21    +74.3444
iter: 293 08:05:22  -895.366386c -4.97  -3.22    +74.3521
iter: 294 08:08:06  -895.360494c -5.19  -3.18    +74.3529
iter: 295 08:10:51  -895.367739c -5.10  -3.31    +74.4170
iter: 296 08:13:35  -895.383546c -5.28  -3.21    +74.4410
iter: 297 08:16:19  -895.375561c -4.77  -3.02    +74.4565
iter: 298 08:19:03  -895.380557c -5.01  -3.09    +74.5086
iter: 299 08:21:47  -895.393920c -5.12  -3.09    +74.5247
iter: 300 08:24:31  -895.372504c -4.86  -2.98    +74.4989
iter: 301 08:27:15  -895.373395c -4.82  -3.21    +74.5412
iter: 302 08:29:59  -895.371271c -5.15  -3.14    +74.5627
iter: 303 08:32:43  -895.398296c -4.75  -3.25    +74.5815
iter: 304 08:35:28  -895.371876c -4.88  -2.89    +74.5901
iter: 305 08:38:12  -895.401472c -4.74  -3.25    +74.6282
iter: 306 08:40:56  -895.369333c -4.92  -2.93    +74.6043
iter: 307 08:43:40  -895.378180c -4.84  -3.27    +74.6145
iter: 308 08:46:24  -895.372573c -4.60  -3.13    +74.6244
iter: 309 08:49:08  -895.380910c -4.81  -3.21    +74.6363
iter: 310 08:51:53  -895.409364c -4.45  -3.09    +74.6236
iter: 311 08:54:37  -895.371149c -4.80  -2.85    +74.6327
iter: 312 08:57:21  -895.365576c -4.84  -3.14    +74.7351
iter: 313 09:00:05  -895.363378c -5.38  -3.45    +74.7178
iter: 314 09:02:50  -895.362725c -5.73  -3.55    +74.7120
iter: 315 09:05:34  -895.363022c -5.51  -3.60    +74.7065
iter: 316 09:08:18  -895.362799c -5.91  -3.64    +74.6995
iter: 317 09:11:02  -895.370309c -5.45  -3.71    +74.6829
iter: 318 09:13:47  -895.365427c -5.44  -3.19    +74.6863
iter: 319 09:16:31  -895.363066c -5.76  -3.53    +74.7044
iter: 320 09:19:15  -895.362493c -6.06  -3.54    +74.6969
iter: 321 09:21:59  -895.362492c -6.20  -3.64    +74.6984
iter: 322 09:24:44  -895.362452c -6.63  -3.57    +74.6937
iter: 323 09:27:28  -895.365571c -5.69  -3.61    +74.6886
iter: 324 09:30:12  -895.363547c -5.62  -3.57    +74.6870
iter: 325 09:32:56  -895.362222c -5.86  -3.67    +74.6742
iter: 326 09:35:40  -895.362148c -6.80  -3.79    +74.6843
iter: 327 09:38:24  -895.362178c -6.59  -3.90    +74.6849
iter: 328 09:41:08  -895.362155c -7.00  -4.15c   +74.6828
iter: 329 09:43:52  -895.362213c -7.01  -4.11c   +74.6802
iter: 330 09:46:36  -895.362216c -7.11  -4.44c   +74.6800
iter: 331 09:49:20  -895.362546c -6.86  -4.08c   +74.6787
iter: 332 09:52:04  -895.362365c -7.52c -4.30c   +74.6785

Converged after 332 iterations.

Dipole moment: (11.713594, -20.630300, -0.005817) |e|*Ang

Total magnetic moment: (0.000000, 0.000000, 74.678461)
Local magnetic moments:
   0 Cr ( 0.000000,  0.000000,  2.939428)
   1 Cr ( 0.000000,  0.000000, -2.667589)
   2 Al ( 0.000000,  0.000000, -0.012841)
   3 Fe ( 0.000000,  0.000000,  2.350790)
   4 Cr ( 0.000000,  0.000000, -2.998743)
   5 Co ( 0.000000,  0.000000,  1.240845)
   6 Co ( 0.000000,  0.000000,  1.358848)
   7 Ni ( 0.000000,  0.000000,  0.267784)
   8 Fe ( 0.000000,  0.000000,  1.662363)
   9 Ni ( 0.000000,  0.000000,  0.127287)
  10 Ni ( 0.000000,  0.000000,  0.565191)
  11 Ni ( 0.000000,  0.000000,  0.292661)
  12 Al ( 0.000000,  0.000000, -0.049980)
  13 Cr ( 0.000000,  0.000000, -1.895306)
  14 Cr ( 0.000000,  0.000000, -3.333522)
  15 Fe ( 0.000000,  0.000000,  2.740153)
  16 Fe ( 0.000000,  0.000000,  2.714401)
  17 Fe ( 0.000000,  0.000000,  2.474475)
  18 Co ( 0.000000,  0.000000,  1.320269)
  19 Fe ( 0.000000,  0.000000,  2.655218)
  20 Al ( 0.000000,  0.000000, -0.034133)
  21 Ni ( 0.000000,  0.000000,  0.378258)
  22 Co ( 0.000000,  0.000000,  0.914142)
  23 Co ( 0.000000,  0.000000,  1.115450)
  24 Al ( 0.000000,  0.000000, -0.028539)
  25 Al ( 0.000000,  0.000000, -0.028197)
  26 Fe ( 0.000000,  0.000000,  2.342958)
  27 Al ( 0.000000,  0.000000, -0.026199)
  28 Ni ( 0.000000,  0.000000, -0.120911)
  29 Cr ( 0.000000,  0.000000,  2.178199)
  30 Al ( 0.000000,  0.000000, -0.034429)
  31 Co ( 0.000000,  0.000000,  1.012013)
  32 Cr ( 0.000000,  0.000000, -1.925237)
  33 Cr ( 0.000000,  0.000000, -1.702772)
  34 Al ( 0.000000,  0.000000, -0.044185)
  35 Ni ( 0.000000,  0.000000,  0.331536)
  36 Co ( 0.000000,  0.000000,  1.198514)
  37 Fe ( 0.000000,  0.000000,  2.310335)
  38 Fe ( 0.000000,  0.000000,  1.753647)
  39 Fe ( 0.000000,  0.000000,  2.581172)
  40 Cr ( 0.000000,  0.000000, -2.535874)
  41 Cr ( 0.000000,  0.000000, -2.566169)
  42 Fe ( 0.000000,  0.000000,  2.277216)
  43 Fe ( 0.000000,  0.000000,  2.113086)
  44 Al ( 0.000000,  0.000000, -0.045301)
  45 Cr ( 0.000000,  0.000000,  2.719918)
  46 Ni ( 0.000000,  0.000000,  0.294293)
  47 Ni ( 0.000000,  0.000000,  0.642672)
  48 Co ( 0.000000,  0.000000,  1.408567)
  49 Cr ( 0.000000,  0.000000, -2.052355)
  50 Co ( 0.000000,  0.000000,  1.304843)
  51 Fe ( 0.000000,  0.000000,  2.235234)
  52 Fe ( 0.000000,  0.000000,  2.300916)
  53 Ni ( 0.000000,  0.000000,  0.444736)
  54 Co ( 0.000000,  0.000000,  0.887984)
  55 Cr ( 0.000000,  0.000000, -1.951568)
  56 Fe ( 0.000000,  0.000000,  2.437746)
  57 Co ( 0.000000,  0.000000,  1.613848)
  58 Co ( 0.000000,  0.000000,  1.373672)
  59 Fe ( 0.000000,  0.000000,  2.043371)
  60 Fe ( 0.000000,  0.000000,  2.376987)
  61 Al ( 0.000000,  0.000000, -0.037245)
  62 Ni ( 0.000000,  0.000000,  0.258074)
  63 Cr ( 0.000000,  0.000000, -2.215509)
  64 Co ( 0.000000,  0.000000,  1.265739)
  65 Fe ( 0.000000,  0.000000,  2.078539)
  66 Al ( 0.000000,  0.000000, -0.028492)
  67 Ni ( 0.000000,  0.000000,  0.341457)
  68 Al ( 0.000000,  0.000000, -0.033383)
  69 Cr ( 0.000000,  0.000000,  1.778471)
  70 Cr ( 0.000000,  0.000000, -2.500707)
  71 Fe ( 0.000000,  0.000000,  2.351712)
  72 Al ( 0.000000,  0.000000, -0.055088)
  73 Fe ( 0.000000,  0.000000,  2.196006)
  74 Ni ( 0.000000,  0.000000,  0.208739)
  75 Cr ( 0.000000,  0.000000, -2.161613)
  76 Co ( 0.000000,  0.000000,  1.275532)
  77 Co ( 0.000000,  0.000000,  1.591732)
  78 Ni ( 0.000000,  0.000000,  0.667923)
  79 Co ( 0.000000,  0.000000,  1.331363)
  80 Al ( 0.000000,  0.000000, -0.024653)
  81 Co ( 0.000000,  0.000000,  1.297742)
  82 Fe ( 0.000000,  0.000000,  2.062389)
  83 Ni ( 0.000000,  0.000000,  0.385227)
  84 Cr ( 0.000000,  0.000000,  2.014369)
  85 Ni ( 0.000000,  0.000000,  0.295968)
  86 Fe ( 0.000000,  0.000000,  2.049083)
  87 Ni ( 0.000000,  0.000000,  0.312423)
  88 Co ( 0.000000,  0.000000,  1.354898)
  89 Ni ( 0.000000,  0.000000,  0.342229)
  90 Al ( 0.000000,  0.000000, -0.040853)
  91 Co ( 0.000000,  0.000000,  0.956671)
  92 Ni ( 0.000000,  0.000000,  0.170789)
  93 Cr ( 0.000000,  0.000000,  2.271364)
  94 Ni ( 0.000000,  0.000000,  0.460387)
  95 Ni ( 0.000000,  0.000000,  0.468165)
  96 Cr ( 0.000000,  0.000000,  2.021150)
  97 Cr ( 0.000000,  0.000000, -1.548021)
  98 Co ( 0.000000,  0.000000,  1.481699)
  99 Co ( 0.000000,  0.000000,  1.776262)
 100 Co ( 0.000000,  0.000000,  1.370827)
 101 Cr ( 0.000000,  0.000000, -2.510631)
 102 Fe ( 0.000000,  0.000000,  2.119607)
 103 Ni ( 0.000000,  0.000000,  0.654548)
 104 Fe ( 0.000000,  0.000000,  3.034631)
 105 Cr ( 0.000000,  0.000000,  2.113023)
 106 Fe ( 0.000000,  0.000000,  2.364023)
 107 Ni ( 0.000000,  0.000000,  0.536226)
 108 Ni ( 0.000000,  0.000000,  0.420587)
 109 Cr ( 0.000000,  0.000000, -3.052343)
 110 Al ( 0.000000,  0.000000, -0.017695)
 111 Al ( 0.000000,  0.000000, -0.014239)
 112 Cr ( 0.000000,  0.000000, -2.533629)
 113 Al ( 0.000000,  0.000000, -0.023361)
 114 Co ( 0.000000,  0.000000,  1.178658)
 115 Cr ( 0.000000,  0.000000, -3.535280)
 116 Co ( 0.000000,  0.000000,  1.225749)
 117 Fe ( 0.000000,  0.000000,  2.900962)
 118 Ni ( 0.000000,  0.000000,  0.648136)
 119 Co ( 0.000000,  0.000000,  1.258574)
 120 Ni ( 0.000000,  0.000000,  0.348362)
 121 Cr ( 0.000000,  0.000000, -2.100449)
 122 Co ( 0.000000,  0.000000,  1.228483)
 123 Fe ( 0.000000,  0.000000,  3.147053)
 124 Ni ( 0.000000,  0.000000,  0.617676)

Energy contributions relative to reference atoms: (reference = -3927717.499734)

Kinetic:       +386.075244
Potential:     -372.115116
External:        +0.000000
XC:            -943.187010
Entropy (-ST):   -5.244773
Local:          +36.486904
--------------------------
Free energy:   -897.984752
Extrapolated:  -895.362365

Dipole-layer corrected work functions: 4.234053, 4.241690 eV

Spin contamination: 55.134076 electrons
Showing all kpts
                      Up                     Down
 Kpt  Band  Eigenvalues  Occupancy  Eigenvalues  Occupancy
  0   547      0.28214    0.99850      1.25720    0.03738
  0   548      0.29104    0.99836      1.27131    0.03262
  0   549      0.30507    0.99812      1.27602    0.03117
  0   550      0.31128    0.99800      1.28782    0.02779

  1   547      0.27988    0.99854      1.25926    0.03665
  1   548      0.28828    0.99841      1.26919    0.03330
  1   549      0.30708    0.99808      1.27853    0.03042
  1   550      0.31759    0.99787      1.28707    0.02800


Fermi level: 0.93235

No gap

Forces in eV/Ang:
  0 Cr   -0.66269    1.15387   -0.71239
  1 Cr    2.13477   -0.23684   -3.58237
  2 Al    0.08511    0.38922   -0.63597
  3 Fe   -0.97442   -1.19680    0.53533
  4 Cr   -0.22852   -0.83340   -0.72485
  5 Co   -0.21335    0.07360   -0.92620
  6 Co    0.58195   -0.12032   -1.55058
  7 Ni   -0.70902    0.48363   -1.07787
  8 Fe    0.13009    1.41704    0.44403
  9 Ni    1.05292    0.88731   -0.66419
 10 Ni   -0.10595    0.22795    0.13303
 11 Ni   -0.00519    0.47519   -0.09251
 12 Al   -0.05458   -0.43288    0.06459
 13 Cr    0.06228    0.71914    0.44872
 14 Cr    0.20318   -1.67122   -3.43252
 15 Fe   -1.07417   -0.16058    1.04625
 16 Fe   -0.71629   -1.86827    0.20525
 17 Fe    0.02975    0.10383   -0.14718
 18 Co    0.09336   -0.36662    0.24315
 19 Fe    0.23796   -0.18816    0.52564
 20 Al    0.16142    0.56773   -1.24518
 21 Ni    0.06251    0.53217    0.39446
 22 Co   -1.92931    0.17084    0.42871
 23 Co    0.08684   -0.66747    0.21005
 24 Al    0.11744    0.53456    0.50267
 25 Al    1.77270   -0.51313   -0.47207
 26 Fe    0.91258   -0.24142    0.17997
 27 Al    1.12785   -2.17265    0.31617
 28 Ni   -1.54700   -0.96241   -1.71056
 29 Cr    0.23708    0.88642    0.21034
 30 Al   -2.29369    1.01922    5.06679
 31 Co    0.15856   -0.35781   -0.26479
 32 Cr   -1.08116    1.54180    1.89601
 33 Cr   -1.08687    0.34304    1.69550
 34 Al    2.90373   -0.82117   -0.99612
 35 Ni    0.74428    0.84420    1.49770
 36 Co   -0.05733   -0.16160   -0.07558
 37 Fe   -1.35744   -0.09826    0.15341
 38 Fe    0.50099    1.16538    0.17362
 39 Fe   -0.80496    0.76714    0.70430
 40 Cr   -0.13806   -0.33968   -0.41433
 41 Cr   -0.12061   -0.15946   -1.08657
 42 Fe    0.62449    0.64084    0.54252
 43 Fe   -1.55275    0.20452    0.62646
 44 Al    2.61721    0.86649    3.88753
 45 Cr    0.44020   -1.43538    0.22375
 46 Ni    0.11799   -0.79306   -0.20577
 47 Ni    0.16208   -0.23154    0.92437
 48 Co   -0.27087    0.26995    0.53849
 49 Cr   -0.19441    0.15564    0.53104
 50 Co    1.67600    0.13043    0.44134
 51 Fe   -0.47183    0.90038    0.32580
 52 Fe    1.03035    1.65954    0.57110
 53 Ni   -0.42780    0.01706   -0.83462
 54 Co   -2.06041    0.08820    0.53819
 55 Cr   -0.58452   -0.37556   -0.20734
 56 Fe    0.95578   -0.32820    0.90426
 57 Co    0.28838    0.48967   -0.35677
 58 Co   -0.09002   -0.43027   -0.91858
 59 Fe   -1.11540    0.09618   -0.65410
 60 Fe   -0.67052   -0.33968    1.24055
 61 Al    0.28947   -0.45451    0.41499
 62 Ni   -1.05641    0.05255    1.53383
 63 Cr    0.96362    0.49179    0.72957
 64 Co   -0.63637   -0.13521   -0.26145
 65 Fe    0.85599   -0.28443   -2.11845
 66 Al    0.63953    1.24543    0.40998
 67 Ni    0.13671    0.11839   -0.02984
 68 Al   -0.15596   -0.58575   -0.41219
 69 Cr   -0.32215   -0.57761   -1.41220
 70 Cr    1.10016   -1.31175    1.00092
 71 Fe   -0.15138   -0.33480   -0.80315
 72 Al   -0.22089   -2.45664   -1.87180
 73 Fe    0.62372    0.74789   -0.37184
 74 Ni   -1.51911    1.85465   -1.11215
 75 Cr    0.85175   -0.70934    0.02185
 76 Co   -1.02990   -0.53184   -1.58612
 77 Co   -0.90965   -0.19613   -0.58997
 78 Ni    0.57484    0.03056    1.04486
 79 Co   -0.87971    0.08631   -0.20923
 80 Al   -0.33094   -0.28400    1.44767
 81 Co   -1.23615   -0.17070    0.51923
 82 Fe    0.85478   -1.08112   -1.34046
 83 Ni   -0.05080   -1.04818   -0.31774
 84 Cr    0.31147   -0.22797   -0.21948
 85 Ni    0.41985    1.04511   -1.39084
 86 Fe   -1.06444    1.12861   -1.17420
 87 Ni   -0.13668    0.12052   -0.73746
 88 Co    0.87388    0.80035    0.48148
 89 Ni    0.53498    0.42271   -0.19631
 90 Al   -1.18351   -0.44760    1.23825
 91 Co    1.52140    0.44119   -1.02747
 92 Ni   -0.92663   -0.24624   -0.93836
 93 Cr    1.31023    0.66807    0.22131
 94 Ni   -0.58860   -0.93949   -0.43260
 95 Ni    0.82872   -0.47738    0.00754
 96 Cr   -0.39517    0.00881    0.29827
 97 Cr   -0.73611   -0.15464    0.34508
 98 Co   -0.22717   -0.27336    0.13573
 99 Co    0.76297    0.12077    0.24103
100 Co   -0.51315    0.52807    0.31550
101 Cr   -0.77303   -0.08974    0.01534
102 Fe    0.79317    0.43698    1.10201
103 Ni    0.35612   -0.27740   -0.44203
104 Fe    0.47140    0.57855   -0.68668
105 Cr   -0.91201   -0.07719   -1.64805
106 Fe    0.00033    0.43979    1.30584
107 Ni    0.36219   -0.52252    1.09003
108 Ni   -0.15442    0.32707   -0.81683
109 Cr    0.71205    0.51665    0.15133
110 Al    1.00551    0.29378    0.36302
111 Al    1.05745   -1.63144   -0.22074
112 Cr   -0.11910   -0.41955    0.81378
113 Al    0.62013   -0.91633   -0.04710
114 Co   -0.52025    0.63876   -0.09821
115 Cr   -0.11441    1.19716   -0.37466
116 Co   -0.01349   -0.05422    0.50112
117 Fe   -0.17080    0.73306   -0.82021
118 Ni   -0.76590   -0.60515   -0.82298
119 Co   -0.58409   -1.01178    1.66773
120 Ni    0.49793    0.15507    0.88602
121 Cr    0.64521    2.04174    0.19183
122 Co    1.09965    0.22704    1.02899
123 Fe    0.19030   -0.21760   -0.96024
124 Ni   -1.57559   -1.06966    0.54678

Timing:                              incl.     excl.
-----------------------------------------------------------
Forces:                             44.366    44.366   0.1% |
Hamiltonian:                         1.666     0.010   0.0% |
 Atomic:                             0.370     0.001   0.0% |
  XC Correction:                     0.368     0.368   0.0% |
 Calculate atomic Hamiltonians:      0.665     0.665   0.0% |
 Communicate:                        0.140     0.140   0.0% |
 Initialize Hamiltonian:             0.000     0.000   0.0% |
 Poisson:                            0.098     0.098   0.0% |
 XC 3D grid:                         0.382     0.382   0.0% |
LCAO initialization:               273.408     0.572   0.0% |
 LCAO eigensolver:                  12.641     0.012   0.0% |
  Calculate projections:             0.000     0.000   0.0% |
  DenseAtomicCorrection:             0.000     0.000   0.0% |
  Distribute overlap matrix:         7.747     7.747   0.0% |
  Orbital Layouts:                   4.826     4.826   0.0% |
  Potential matrix:                  0.009     0.009   0.0% |
  Sum over cells:                    0.046     0.046   0.0% |
 LCAO to grid:                     258.136   258.136   0.5% |
 Set positions (LCAO WFS):           2.060     1.788   0.0% |
  Basic WFS set positions:           0.004     0.004   0.0% |
  Basis functions set positions:     0.001     0.001   0.0% |
  P tci:                             0.000     0.000   0.0% |
  ST tci:                            0.097     0.097   0.0% |
  mktci:                             0.170     0.170   0.0% |
PWDescriptor:                        0.143     0.143   0.0% |
SCF-cycle:                       51190.548     2.621   0.0% |
 Davidson:                       49566.439 16601.981  32.2% |------------|
  Apply H:                         974.767   958.760   1.9% ||
   HMM T:                           16.006    16.006   0.0% |
  Subspace diag:                  5392.020     0.132   0.0% |
   calc_h_matrix:                 2289.480  1383.645   2.7% ||
    Apply H:                       905.834   889.932   1.7% ||
     HMM T:                         15.903    15.903   0.0% |
   diagonalize:                    429.378   429.378   0.8% |
   rotate_psi:                    2673.030  2673.030   5.2% |-|
  calc. matrices:                12506.423 10869.630  21.1% |-------|
   Apply H:                       1636.793  1606.887   3.1% ||
    HMM T:                          29.906    29.906   0.1% |
  diagonalize:                    8446.780  8446.780  16.4% |------|
  rotate_psi:                     5644.469  5644.469  11.0% |---|
 Density:                          905.925     0.011   0.0% |
  Atomic density matrices:           7.798     7.798   0.0% |
  Mix:                             427.261   427.261   0.8% |
  Multipole moments:                 0.235     0.235   0.0% |
  Pseudo density:                  470.621   470.605   0.9% |
   Symmetrize density:               0.016     0.016   0.0% |
 Hamiltonian:                      696.392     4.552   0.0% |
  Atomic:                          128.679     0.498   0.0% |
   XC Correction:                  128.181   128.181   0.2% |
  Calculate atomic Hamiltonians:   374.643   374.643   0.7% |
  Communicate:                      44.701    44.701   0.1% |
  Poisson:                          13.791    13.791   0.0% |
  XC 3D grid:                      130.025   130.025   0.3% |
 Orthonormalize:                    19.171     0.001   0.0% |
  calc_s_matrix:                     2.273     2.273   0.0% |
  inverse-cholesky:                  0.777     0.777   0.0% |
  projections:                      12.110    12.110   0.0% |
  rotate_psi_s:                      4.010     4.010   0.0% |
Set symmetry:                        0.001     0.001   0.0% |
Other:                               7.755     7.755   0.0% |
-----------------------------------------------------------
Total:                                     51517.887 100.0%

Date: Tue Apr 18 09:52:53 2023
