
  ___ ___ ___ _ _ _  
 |   |   |_  | | | | 
 | | | | | . | | | | 
 |__ |  _|___|_____|  22.8.0
 |___|_|             

User:   c.zeng@d0093
Date:   Thu Apr 20 07:57:37 2023
Arch:   x86_64
Pid:    67837
CWD:    /home/c.zeng/projects/hea-corrosion/hea-mlp/data-curation/surface-mcmc/dft-jobs/58
Python: 3.8.1
gpaw:   /home/c.zeng/usr/installs/gpaw/source/gpaw-22.8.0/gpaw
_gpaw:  /home/c.zeng/usr/installs/gpaw/source/gpaw-22.8.0/
        _gpaw.cpython-38-x86_64-linux-gnu.so
ase:    /home/c.zeng/.local/lib/python3.8/site-packages/ase-3.22.1-py3.8.egg/ase (version 3.22.1)
numpy:  /home/c.zeng/.local/lib/python3.8/site-packages/numpy (version 1.24.2)
scipy:  /home/c.zeng/.local/lib/python3.8/site-packages/scipy (version 1.10.1)
libxc:  4.2.3
units:  Angstrom and eV
cores: 30
OpenMP: False
OMP_NUM_THREADS: 1

Input parameters:
  convergence: {energy: 0.0001}
  kpts: [2 2 1]
  maxiter: 666
  mode: {ecut: 350.0,
         name: pw}
  occupations: {fixmagmom: False,
                name: fermi-dirac,
                width: 0.1}
  poissonsolver: {dipolelayer: xy}
  spinpol: True
  symmetry: {point_group: False}
  xc: PBE

System changes: positions, numbers, cell, pbc, initial_charges, initial_magmoms 

Initialize ...

species:
  Co:
    name: Cobalt
    id: 339d20d5b0b93d2de9531a1bee871d91
    Z: 27.0
    valence: 9
    core: 18
    charge: 0.0
    file: /home/c.zeng/usr/data/gpaw-setups-0.9.20000/Co.PBE.gz
    compensation charges: {type: gauss,
                           rc: 0.32,
                           lmax: 2}
    cutoffs: {filter: 1.87,
              core: 2.55}
    valence states:
      #              energy  rcut
      - 4s(2.00)    -5.469   1.005
      - 4p(0.00)    -1.277   1.058
      - 3d(7.00)    -8.205   1.005
      -  s          21.742   1.005
      -  p          25.934   1.058
      -  d          19.007   1.005
  
    # Using partial waves for Co as LCAO basis

  Cr:
    name: Chromium
    id: 33f258bda2ca9f93018e70263a35547b
    Z: 24.0
    valence: 6
    core: 18
    charge: 0.0
    file: /home/c.zeng/usr/data/gpaw-setups-0.9.20000/Cr.PBE.gz
    compensation charges: {type: gauss,
                           rc: 0.35,
                           lmax: 2}
    cutoffs: {filter: 2.14,
              core: 3.04}
    valence states:
      #              energy  rcut
      - 4s(1.00)    -4.007   1.164
      - 4p(0.00)    -0.989   1.217
      - 3d(5.00)    -2.913   1.111
      -  s          23.205   1.164
      -  p          26.223   1.217
      -  d          24.299   1.111
  
    # Using partial waves for Cr as LCAO basis

  Ni:
    name: Nickel
    id: 0d9f38a9d6e76a2886f07bb4381f212b
    Z: 28.0
    valence: 16
    core: 12
    charge: 0.0
    file: /home/c.zeng/usr/data/gpaw-setups-0.9.20000/Ni.PBE.gz
    compensation charges: {type: gauss,
                           rc: 0.36,
                           lmax: 2}
    cutoffs: {filter: 2.14,
              core: 1.98}
    valence states:
      #              energy  rcut
      - 4s(2.00)    -5.642   1.164
      - 3p(6.00)   -71.394   1.207
      - 4p(0.00)    -1.226   1.207
      - 3d(8.00)    -8.875   1.138
      -  s          21.570   1.164
      -  d          18.337   1.138
  
    # Using partial waves for Ni as LCAO basis

  Al:
    name: Aluminium
    id: 0292cae29f5d6237e50f6abdd43a7bdd
    Z: 13.0
    valence: 3
    core: 10
    charge: 0.0
    file: /home/c.zeng/usr/data/gpaw-setups-0.9.20000/Al.PBE.gz
    compensation charges: {type: gauss,
                           rc: 0.34,
                           lmax: 2}
    cutoffs: {filter: 1.91,
              core: 2.36}
    valence states:
      #              energy  rcut
      - 3s(2.00)    -7.753   1.085
      - 3p(1.00)    -2.712   1.085
      -  s          19.459   1.085
      -  p          24.499   1.085
      -  d           0.000   1.085
  
    # Using partial waves for Al as LCAO basis

  Fe:
    name: Iron
    id: 37abbd8d6c3c35915a9b583b742da910
    Z: 26.0
    valence: 8
    core: 18
    charge: 0.0
    file: /home/c.zeng/usr/data/gpaw-setups-0.9.20000/Fe.PBE.gz
    compensation charges: {type: gauss,
                           rc: 0.33,
                           lmax: 2}
    cutoffs: {filter: 2.06,
              core: 2.67}
    valence states:
      #              energy  rcut
      - 4s(2.00)    -5.291   1.164
      - 4p(0.00)    -1.326   1.058
      - 3d(6.00)    -7.505   1.058
      -  s          21.920   1.164
      -  p          25.885   1.058
      -  d          19.706   1.058
  
    # Using partial waves for Fe as LCAO basis

Reference energy: -4275894.041763  # eV

Spin-polarized calculation.
Magnetic moment: 165.900000

Convergence criteria:
 Maximum [total energy] change in last 3 cyles: 0.0001 eV / electron
 Maximum integral of absolute [dens]ity change: 0.0001 electrons / valence electron
 Maximum integral of absolute [eigenst]ate change: 4e-08 eV^2 / valence electron
 Maximum number of scf [iter]ations: 666
 (Square brackets indicate name in SCF output, whereas a 'c' in
 the SCF output indicates the quantity has converged.)

Symmetries present (total): 1

  ( 1  0  0)
  ( 0  1  0)
  ( 0  0  1)

4 k-points: 2 x 2 x 1 Monkhorst-Pack grid
2 k-points in the irreducible part of the Brillouin zone
       k-points in crystal coordinates                weights
   0:     0.25000000   -0.25000000    0.00000000          2/4
   1:     0.25000000    0.25000000    0.00000000          2/4

Wave functions: Plane wave expansion
  Cutoff energy: 350.000 eV
  Number of coefficients (min, max): 58901, 58943
  Pulay-stress correction: 0.000000 eV/Ang^3 (de/decut=0.000000)
  Using FFTW library
  ScaLapack parameters: grid=1x1, blocksize=None
  Wavefunction extrapolation:
    Improved wavefunction reuse through dual PAW basis 

Occupation numbers: Fermi-Dirac:
  width: 0.1000  # eV
 

Eigensolver
   Davidson(niter=2) 

Densities:
  Coarse grid: 54*54*128 grid
  Fine grid: 108*108*256 grid
  Total Charge: 0.000000 

Density mixing:
  Method: difference
  Backend: pulay
  Linear mixing parameter: 0.05
  old densities: 5
  Damping of long wavelength oscillations: 50 

Hamiltonian:
  XC and Coulomb potentials evaluated on a 108*108*256 grid
  Using the PBE Exchange-Correlation functional
  External potential:
    NoExternalPotential
 

XC parameters: PBE with 2 nearest neighbor stencil

Memory estimate:
  Process memory now: 366.96 MiB
  Calculator: 2335.53 MiB
    Density: 17.84 MiB
      Arrays: 6.75 MiB
      Localized functions: 8.39 MiB
      Mixer: 2.70 MiB
    Hamiltonian: 5.27 MiB
      Arrays: 5.01 MiB
      XC: 0.00 MiB
      Poisson: 0.00 MiB
      vbar: 0.25 MiB
    Wavefunctions: 2312.43 MiB
      Arrays psit_nG: 1458.82 MiB
      Eigensolver: 834.29 MiB
      Projections: 3.66 MiB
      Projectors: 1.14 MiB
      PW-descriptor: 14.51 MiB

Total number of cores used: 30
Parallelization over k-points: 2
Domain decomposition: 1 x 3 x 5

Number of atoms: 125
Number of atomic orbitals: 1185
Number of bands in calculation: 811
Number of valence electrons: 1179
Bands to converge: occupied

... initialized

Initializing position-dependent things.

Density initialized from atomic densities
Creating initial wave functions:
  811 bands from LCAO basis set

                                                                  
                                                                  
                                                                  
                                                                  
                             Cr                       Cr          
                               Ni    Co    Ni    Cr    Ni         
                          Co     Ni    Cr    Cr    Co             
                                Fe    Fe    Co    Al    Cr        
                Co    Cr   NCr   CCo    FAl   Cr    Ni            
           Ni     Co   FCo   FCo   FCo   Cr     Ni   Ni           
             Cr    Co     CoCo    Ni    Co     Fe                 
                  Fe    NNi   FCr   CFe   CNi   ANi               
              Fe   NNi   FNi   CCFe  FNCr  NNi   Fe               
               Fe    Fe    Cr    Ni     Co                        
                          Fe    NFe   CFe   CNi   CNi   Al        
           Fe    Cr   ACr  FCFe   FCr   CFe   CFe   Ni            
            Ni    Fe    Fe    Co    Ni                            
                       Co    Cr    Al    Cr    Cr                 
       Ni    Cr   CCr    Co    NFe   Co    Ni                     
              Cr    Co    Cr     Cr    Co                         
                                                                  
                                                                  
                                                                  
                                                                  
                                                                  

Positions:
   0 Co    12.486468    1.462777   10.528605    ( 0.0000,  0.0000,  1.5000)
   1 Cr     2.491286    1.427324   10.624355    ( 0.0000,  0.0000,  2.0000)
   2 Co     4.996443    1.433664   10.615695    ( 0.0000,  0.0000,  2.1000)
   3 Cr     7.497692    1.450585   10.618513    ( 0.0000,  0.0000,  2.0000)
   4 Cr     9.980354    1.438381   10.617016    ( 0.0000,  0.0000,  2.1000)
   5 Ni    13.725570    3.599047   10.613993    ( 0.0000,  0.0000,  2.1000)
   6 Co     3.721032    3.570702   10.596763    ( 0.0000,  0.0000,  1.5000)
   7 Co     6.265421    3.568181   10.621801    ( 0.0000,  0.0000,  2.0000)
   8 Ni     8.741341    3.586865   10.615549    ( 0.0000,  0.0000,  2.0000)
   9 Co    11.233064    3.610428   10.573163    ( 0.0000,  0.0000,  0.0000)
  10 Cr    14.927431    5.761281   10.554435    ( 0.0000,  0.0000,  1.5000)
  11 Co     5.002416    5.751707   10.362584    ( 0.0000,  0.0000,  0.0000)
  12 Cr     7.528897    5.754942   10.601782    ( 0.0000,  0.0000,  1.5000)
  13 Al     9.984614    5.751426   10.596909    ( 0.0000,  0.0000,  2.1000)
  14 Cr    12.467830    5.774643   10.569993    ( 0.0000,  0.0000,  0.0000)
  15 Ni    16.185528    7.952943   10.517715    ( 0.0000,  0.0000,  0.0000)
  16 Fe     6.281890    7.953062   10.585785    ( 0.0000,  0.0000,  2.0000)
  17 Cr     8.751632    7.929564   10.589659    ( 0.0000,  0.0000,  2.0000)
  18 Co    11.232798    7.933199   10.565472    ( 0.0000,  0.0000,  0.0000)
  19 Co    13.711755    7.928211   10.595530    ( 0.0000,  0.0000,  2.0000)
  20 Al    17.465073   10.103493   10.559367    ( 0.0000,  0.0000,  2.1000)
  21 Ni     7.524528   10.087482   10.585491    ( 0.0000,  0.0000,  2.1000)
  22 Cr     9.999339   10.092837   10.628699    ( 0.0000,  0.0000,  2.1000)
  23 Co    12.492524   10.103136   10.590364    ( 0.0000,  0.0000,  1.5000)
  24 Co    14.967562   10.103591   10.598553    ( 0.0000,  0.0000,  1.5000)
  25 Ni     0.039549    0.061487   12.592509    ( 0.0000,  0.0000,  0.0000)
  26 Cr     2.543839    0.004196   12.633574    ( 0.0000,  0.0000,  2.1000)
  27 Cr     5.007959    0.016292   12.619485    ( 0.0000,  0.0000,  1.5000)
  28 Al    13.725047   10.821613   12.614847    ( 0.0000,  0.0000,  1.5000)
  29 Fe     9.941746    0.020015   12.634836    ( 0.0000,  0.0000,  2.1000)
  30 Ni     1.280557    2.197634   12.622449    ( 0.0000,  0.0000,  2.0000)
  31 Fe     3.757003    2.159238   12.617870    ( 0.0000,  0.0000,  0.0000)
  32 Fe     6.259391    2.150539   12.632283    ( 0.0000,  0.0000,  0.0000)
  33 Co     8.729061    2.160536   12.640942    ( 0.0000,  0.0000,  1.5000)
  34 Ni    11.206426    2.199527   12.600112    ( 0.0000,  0.0000,  0.0000)
  35 Fe    14.980028    4.321894   12.623066    ( 0.0000,  0.0000,  1.5000)
  36 Al     5.000637    4.306532   12.605865    ( 0.0000,  0.0000,  0.0000)
  37 Cr     7.511972    4.316766   12.613115    ( 0.0000,  0.0000,  2.0000)
  38 Fe     9.977581    4.334444   12.603575    ( 0.0000,  0.0000,  2.0000)
  39 Fe    12.466237    4.352219   12.609857    ( 0.0000,  0.0000,  0.0000)
  40 Ni    16.217374    6.438246   12.562775    ( 0.0000,  0.0000,  2.1000)
  41 Fe     6.249088    6.441384   12.586551    ( 0.0000,  0.0000,  2.1000)
  42 Fe     8.734867    6.480104   12.598380    ( 0.0000,  0.0000,  2.1000)
  43 Fe    11.217541    6.497393   12.580210    ( 0.0000,  0.0000,  1.5000)
  44 Ni    13.747589    6.470530   12.591629    ( 0.0000,  0.0000,  0.0000)
  45 Fe     4.965631    8.600697   12.619661    ( 0.0000,  0.0000,  0.0000)
  46 Cr     7.527050    8.647229   12.603517    ( 0.0000,  0.0000,  2.0000)
  47 Fe     9.992787    8.639093   12.602137    ( 0.0000,  0.0000,  0.0000)
  48 Ni    12.461146    8.678950   12.599202    ( 0.0000,  0.0000,  2.1000)
  49 Fe    14.923147    8.662851   12.605102    ( 0.0000,  0.0000,  0.0000)
  50 Fe     1.264555    0.726556   14.701676    ( 0.0000,  0.0000,  2.1000)
  51 Cr     3.750060    0.743838   14.683888    ( 0.0000,  0.0000,  1.5000)
  52 Cr     6.237655    0.730758   14.677812    ( 0.0000,  0.0000,  2.1000)
  53 Fe     8.726659    0.737641   14.712772    ( 0.0000,  0.0000,  2.0000)
  54 Cr    11.216460    0.725550   14.709367    ( 0.0000,  0.0000,  2.1000)
  55 Fe     2.513395    2.883675   14.691579    ( 0.0000,  0.0000,  1.5000)
  56 Fe     4.990849    2.893120   14.684241    ( 0.0000,  0.0000,  2.0000)
  57 Cr     7.488486    2.893629   14.696334    ( 0.0000,  0.0000,  0.0000)
  58 Ni     9.972278    2.890664   14.692489    ( 0.0000,  0.0000,  2.0000)
  59 Co    12.467576    2.877141   14.691667    ( 0.0000,  0.0000,  0.0000)
  60 Ni     3.758526    5.050346   14.670151    ( 0.0000,  0.0000,  2.0000)
  61 Fe     6.246120    5.038056   14.669564    ( 0.0000,  0.0000,  1.5000)
  62 Co     8.732126    5.049902   14.667773    ( 0.0000,  0.0000,  1.5000)
  63 Ni    11.205583    5.023028   14.695277    ( 0.0000,  0.0000,  1.5000)
  64 Ni    13.756582    5.017781   14.684505    ( 0.0000,  0.0000,  2.0000)
  65 Ni     5.010694    7.182699   14.702674    ( 0.0000,  0.0000,  1.5000)
  66 Fe     7.485228    7.189460   14.657588    ( 0.0000,  0.0000,  0.0000)
  67 Co     9.946463    7.198159   14.653068    ( 0.0000,  0.0000,  2.1000)
  68 Co    12.473405    7.201264   14.677166    ( 0.0000,  0.0000,  0.0000)
  69 Ni    15.017763    7.213900   14.645054    ( 0.0000,  0.0000,  2.1000)
  70 Co     6.251064    9.372532   14.712302    ( 0.0000,  0.0000,  2.1000)
  71 Ni     8.729758    9.372705   14.658410    ( 0.0000,  0.0000,  0.0000)
  72 Co    11.200962    9.406124   14.647901    ( 0.0000,  0.0000,  1.5000)
  73 Fe    13.749704    9.394894   14.665366    ( 0.0000,  0.0000,  2.0000)
  74 Ni    16.223386    9.399309   14.720785    ( 0.0000,  0.0000,  1.5000)
  75 Cr    12.479408    1.425961   16.738106    ( 0.0000,  0.0000,  1.5000)
  76 Fe     2.490684    1.454436   16.739222    ( 0.0000,  0.0000,  1.5000)
  77 Ni     4.964072    1.458060   16.748615    ( 0.0000,  0.0000,  2.0000)
  78 Ni     7.493576    1.474137   16.738664    ( 0.0000,  0.0000,  1.5000)
  79 Fe     9.990724    1.450314   16.751932    ( 0.0000,  0.0000,  2.0000)
  80 Ni    13.736871    3.597619   16.749671    ( 0.0000,  0.0000,  2.1000)
  81 Fe     3.731782    3.620695   16.737637    ( 0.0000,  0.0000,  2.0000)
  82 Ni     6.217757    3.600962   16.741893    ( 0.0000,  0.0000,  0.0000)
  83 Cr     8.739843    3.608427   16.720025    ( 0.0000,  0.0000,  2.1000)
  84 Fe    11.236517    3.591755   16.778291    ( 0.0000,  0.0000,  2.0000)
  85 Ni    14.987780    5.779273   16.714506    ( 0.0000,  0.0000,  0.0000)
  86 Fe     4.996827    5.757928   16.729565    ( 0.0000,  0.0000,  1.5000)
  87 Fe     7.493878    5.760427   16.738488    ( 0.0000,  0.0000,  2.0000)
  88 Fe     9.975457    5.766269   16.736932    ( 0.0000,  0.0000,  2.0000)
  89 Cr    12.478104    5.731140   16.775473    ( 0.0000,  0.0000,  1.5000)
  90 Ni    16.238159    7.937775   16.730328    ( 0.0000,  0.0000,  2.0000)
  91 Ni     6.231444    7.940404   16.765522    ( 0.0000,  0.0000,  0.0000)
  92 Cr     8.728840    7.936931   16.735611    ( 0.0000,  0.0000,  0.0000)
  93 Fe    11.192557    7.913866   16.746149    ( 0.0000,  0.0000,  0.0000)
  94 Cr    13.768802    7.904897   16.753722    ( 0.0000,  0.0000,  1.5000)
  95 Cr    17.466742   10.100767   16.763996    ( 0.0000,  0.0000,  2.0000)
  96 Fe     7.483726   10.114128   16.752695    ( 0.0000,  0.0000,  0.0000)
  97 Fe     9.946168   10.127316   16.729242    ( 0.0000,  0.0000,  0.0000)
  98 Co    12.492406   10.089342   16.764671    ( 0.0000,  0.0000,  0.0000)
  99 Al    15.005292   10.118575   16.753076    ( 0.0000,  0.0000,  2.0000)
 100 Cr     6.250979   10.817826   18.755486    ( 0.0000,  0.0000,  2.1000)
 101 Cr     2.491992    0.007607   18.757365    ( 0.0000,  0.0000,  2.0000)
 102 Co     4.959039    0.011376   18.813253    ( 0.0000,  0.0000,  1.5000)
 103 Co     7.505721    0.033872   18.830425    ( 0.0000,  0.0000,  0.0000)
 104 Cr    16.226478   10.816744   18.766934    ( 0.0000,  0.0000,  1.5000)
 105 Ni     1.262456    2.149912   18.735438    ( 0.0000,  0.0000,  2.1000)
 106 Co     3.733330    2.172036   18.731769    ( 0.0000,  0.0000,  2.1000)
 107 Co     6.235561    2.176310   18.762208    ( 0.0000,  0.0000,  0.0000)
 108 Co     8.740232    2.176277   18.742160    ( 0.0000,  0.0000,  2.0000)
 109 Co    11.216255    2.130427   18.758333    ( 0.0000,  0.0000,  1.5000)
 110 Co     2.521812    4.343315   18.747649    ( 0.0000,  0.0000,  2.1000)
 111 Cr     4.991012    4.329273   18.757688    ( 0.0000,  0.0000,  0.0000)
 112 Cr     7.490880    4.334898   18.725399    ( 0.0000,  0.0000,  2.1000)
 113 Co     9.943770    4.322230   18.730184    ( 0.0000,  0.0000,  2.0000)
 114 Al    12.464525    4.326265   18.943816    ( 0.0000,  0.0000,  0.0000)
 115 Co    16.224051    6.495359   18.723022    ( 0.0000,  0.0000,  2.0000)
 116 Co     6.226814    6.495348   18.761650    ( 0.0000,  0.0000,  0.0000)
 117 Ni     8.730619    6.495759   18.735203    ( 0.0000,  0.0000,  1.5000)
 118 Cr    11.207915    6.503819   18.742835    ( 0.0000,  0.0000,  2.1000)
 119 Cr    13.765796    6.524169   18.782109    ( 0.0000,  0.0000,  0.0000)
 120 Ni    17.450702    8.660601   18.763558    ( 0.0000,  0.0000,  0.0000)
 121 Ni     7.490686    8.670024   18.761621    ( 0.0000,  0.0000,  1.5000)
 122 Co     9.981419    8.673010   18.727630    ( 0.0000,  0.0000,  2.1000)
 123 Ni    12.489241    8.635804   18.838438    ( 0.0000,  0.0000,  0.0000)
 124 Cr    14.988874    8.667774   18.729832    ( 0.0000,  0.0000,  2.1000)

Unit cell:
           periodic     x           y           z      points  spacing
  1. axis:    yes   12.474800    0.000000    0.000000    54     0.2001
  2. axis:    yes    6.246240   10.818800    0.000000    54     0.2003
  3. axis:    no     0.000000    0.000000   29.353100   128     0.2293

  Lengths:  12.474800  12.492476  29.353100
  Angles:   90.000000  90.000000  59.999988

Effective grid spacing dv^(1/3) = 0.2198

     iter     time        total  log10-change:  magmom
                         energy  eigst   dens
iter:   1 08:04:27 -1056.532450                  +165.5126
iter:   2 08:06:45 -2102.446426  +0.39  -1.21    +130.5704
iter:   3 08:09:03 -1396.660011  +0.44  -0.80    +103.4023
iter:   4 08:11:21 -1077.811018  -0.71  -0.99    +69.2420
iter:   5 08:13:39 -1007.668582  -1.33  -1.23    +55.2649
iter:   6 08:15:58  -996.313875  -1.78  -1.33    +48.0169
iter:   7 08:18:15  -992.797865  -1.85  -1.36    +44.8080
iter:   8 08:20:33 -1680.015946  -0.57  -1.37    +45.0371
iter:   9 08:22:52  -995.444963  -0.73  -0.87    +42.8417
iter:  10 08:25:10  -979.942906  -1.62  -1.37    +41.6281
iter:  11 08:27:28  -967.918502  -1.74  -1.44    +42.1852
iter:  12 08:29:46 -1011.379159  -1.52  -1.57    +42.3869
iter:  13 08:32:04  -998.287070  -1.53  -1.36    +43.3273
iter:  14 08:34:22  -971.485739  -1.61  -1.43    +42.4183
iter:  15 08:36:40  -973.898102  -1.77  -1.68    +41.5805
iter:  16 08:38:58  -986.939052  -1.77  -1.60    +42.4179
iter:  17 08:41:16  -965.253665  -2.08  -1.51    +43.1639
iter:  18 08:43:34  -974.815864  -2.23  -1.74    +44.8960
iter:  19 08:45:52  -970.247512  -2.20  -1.62    +45.4205
iter:  20 08:48:10  -965.048388  -2.40  -1.69    +46.7490
iter:  21 08:50:29  -967.590580  -2.30  -1.80    +49.0126
iter:  22 08:52:47  -965.509939  -2.40  -1.79    +49.8375
iter:  23 08:55:06  -964.218330  -2.88  -1.80    +51.9930
iter:  24 08:57:24  -965.680402  -3.01  -1.87    +54.4954
iter:  25 08:59:42  -975.000054  -2.39  -1.86    +56.3591
iter:  26 09:02:01  -969.026473  -2.28  -1.68    +57.2589
iter:  27 09:04:19  -965.875951  -2.55  -1.88    +57.7253
iter:  28 09:06:37  -967.507872  -2.39  -2.05    +60.1223
iter:  29 09:08:55  -967.878541  -2.59  -2.01    +60.7659
iter:  30 09:11:13  -967.725936  -2.71  -1.99    +62.7338
iter:  31 09:13:32  -965.838296  -3.09  -1.99    +63.7023
iter:  32 09:15:50  -966.231496  -3.26  -2.23    +65.6336
iter:  33 09:18:08  -966.065917  -3.54  -2.20    +67.3143
iter:  34 09:20:26  -966.452269  -3.46  -2.32    +68.9531
iter:  35 09:22:44  -967.006643  -2.99  -2.31    +71.4819
iter:  36 09:25:02  -967.049347  -3.56  -2.30    +71.6798
iter:  37 09:27:20  -967.313267  -3.17  -2.33    +72.7133
iter:  38 09:29:38  -967.419546  -3.31  -2.41    +73.0456
iter:  39 09:31:57  -968.639030  -3.13  -2.43    +73.6300
iter:  40 09:34:15  -967.550003  -3.25  -2.16    +73.7602
iter:  41 09:36:34  -967.501496  -3.58  -2.43    +74.5892
iter:  42 09:38:52  -967.758554  -3.49  -2.59    +75.0599
iter:  43 09:41:10  -967.499682  -3.96  -2.43    +75.2296
iter:  44 09:43:28  -967.595259  -3.87  -2.69    +75.6055
iter:  45 09:45:47  -967.905401  -3.97  -2.67    +75.7810
iter:  46 09:48:05  -967.694816  -3.86  -2.46    +76.0117
iter:  47 09:50:23  -967.686839  -4.06  -2.70    +76.2040
iter:  48 09:52:42  -967.934329  -3.69  -2.78    +76.5081
iter:  49 09:55:00  -967.712905  -4.19  -2.52    +76.5780
iter:  50 09:57:18  -967.759782  -4.19  -2.84    +76.7532
iter:  51 09:59:37  -967.864069  -4.20  -2.78    +76.8742
iter:  52 10:01:55  -967.763171c -4.30  -2.62    +76.9866
iter:  53 10:04:13  -967.775776c -4.45  -2.84    +77.1903
iter:  54 10:06:32  -967.783350c -4.66  -2.86    +77.2761
iter:  55 10:08:50  -967.785099c -4.90  -2.89    +77.3627
iter:  56 10:11:09  -967.809761c -4.47  -2.93    +77.4769
iter:  57 10:13:26  -967.827499c -4.40  -2.94    +77.5549
iter:  58 10:15:45  -967.858114c -4.22  -2.96    +77.6735
iter:  59 10:18:07  -968.085727  -4.05  -2.89    +77.7595
iter:  60 10:20:47  -967.851452  -4.16  -2.55    +77.7685
iter:  61 10:23:27  -967.837457  -4.61  -3.00    +77.8266
iter:  62 10:26:07  -967.844546c -4.90  -3.25    +77.9118
iter:  63 10:28:46  -967.855017c -5.02  -3.28    +78.0155
iter:  64 10:31:26  -967.857876c -5.42  -3.26    +78.0417
iter:  65 10:34:05  -967.870788c -4.89  -3.28    +78.1348
iter:  66 10:36:49  -967.874316c -5.17  -3.26    +78.1362
iter:  67 10:39:42  -967.901844c -4.85  -3.26    +78.2224
iter:  68 10:42:36  -967.885525c -4.97  -3.11    +78.2509
iter:  69 10:45:09  -967.900310c -4.84  -3.39    +78.3551
iter:  70 10:47:27  -967.908526c -5.27  -3.32    +78.3844
iter:  71 10:49:45  -967.916532c -5.07  -3.28    +78.4454
iter:  72 10:52:04  -967.925442c -5.05  -3.36    +78.5124
iter:  73 10:54:22  -967.930326c -5.32  -3.42    +78.5358
iter:  74 10:56:41  -967.957652c -4.82  -3.35    +78.5717
iter:  75 10:58:59  -967.943676c -4.98  -3.02    +78.5790
iter:  76 11:01:19  -967.966568c -4.82  -3.38    +78.6372
iter:  77 11:03:39  -967.977369c -5.07  -3.18    +78.6503
iter:  78 11:06:00  -968.000727c -4.89  -3.08    +78.7189
iter:  79 11:08:20  -967.983376c -5.25  -2.99    +78.7730
iter:  80 11:10:41  -968.004824c -4.50  -3.17    +78.8419
iter:  81 11:13:03  -967.999855c -4.82  -3.04    +78.8528
iter:  82 11:15:23  -968.000681c -4.77  -3.08    +78.9035
iter:  83 11:17:45  -968.014728c -4.90  -3.34    +78.9507
iter:  84 11:20:06  -968.025111c -5.15  -3.33    +78.9473
iter:  85 11:22:26  -968.147960  -4.48  -3.18    +78.9735
iter:  86 11:24:49  -968.043183  -4.78  -2.71    +79.0571
iter:  87 11:27:09  -968.062849c -4.68  -3.14    +79.1513
iter:  88 11:29:30  -968.074248c -4.93  -3.08    +79.1631
iter:  89 11:31:52  -968.107190c -4.24  -3.05    +79.1894
iter:  90 11:34:12  -968.079440c -4.54  -2.95    +79.1890
iter:  91 11:36:34  -968.117249c -4.46  -3.16    +79.2085
iter:  92 11:38:54  -968.089613c -4.97  -2.92    +79.1911
iter:  93 11:41:15  -968.103960c -4.96  -3.25    +79.2183
iter:  94 11:43:37  -968.108831c -5.33  -3.26    +79.2422
iter:  95 11:45:57  -968.142904c -4.78  -3.27    +79.2788
iter:  96 11:48:19  -968.135659c -4.81  -3.01    +79.2698
iter:  97 11:50:39  -968.291183  -4.35  -3.05    +79.3505
iter:  98 11:53:00  -968.145995  -4.54  -2.64    +79.3542
iter:  99 11:55:22  -968.157256  -4.72  -3.10    +79.4297
iter: 100 11:57:43  -968.207039c -4.20  -3.15    +79.4762
iter: 101 12:00:05  -968.167602c -4.62  -2.96    +79.5061
iter: 102 12:02:27  -968.191732c -4.62  -3.24    +79.5740
iter: 103 12:04:48  -968.178965c -4.99  -3.11    +79.5892
iter: 104 12:07:10  -968.244073c -4.50  -3.37    +79.7107
iter: 105 12:09:31  -968.223091c -4.65  -2.87    +79.6955
iter: 106 12:11:53  -968.206958c -4.73  -3.05    +79.7770
iter: 107 12:14:13  -968.216878c -5.02  -3.38    +79.8586
iter: 108 12:16:34  -968.224270c -5.01  -3.41    +79.9174
iter: 109 12:18:56  -968.232306c -5.05  -3.39    +80.0327
iter: 110 12:21:16  -968.243547c -5.12  -3.47    +80.1250
iter: 111 12:23:38  -968.261904c -5.06  -3.35    +80.0186
iter: 112 12:26:02  -968.258431c -4.71  -3.05    +80.2585
iter: 113 12:28:36  -968.259543c -5.22  -3.22    +80.3293
iter: 114 12:31:06  -968.268283c -4.89  -3.35    +80.4727
iter: 115 12:33:27  -968.288313c -4.55  -3.44    +80.7013
iter: 116 12:36:02  -968.289492c -4.98  -3.34    +80.7407
iter: 117 12:38:43  -968.355885c -4.65  -3.43    +80.8221
iter: 118 12:41:22  -968.296895c -4.92  -2.88    +80.8649
iter: 119 12:44:01  -968.303278c -5.30  -3.43    +80.9581
iter: 120 12:46:40  -968.314554c -4.80  -3.41    +81.1512
iter: 121 12:49:18  -968.335333c -4.50  -3.35    +81.4545
iter: 122 12:51:57  -968.345847c -5.28  -3.16    +81.4126
iter: 123 12:54:36  -968.372341c -4.64  -3.02    +81.5172
iter: 124 12:57:14  -968.335217c -5.02  -2.93    +81.5389
iter: 125 12:59:52  -968.344115c -4.89  -3.20    +81.5973
iter: 126 13:02:17  -968.369103c -4.40  -3.14    +81.5950
iter: 127 13:04:43  -968.329814c -4.88  -2.96    +81.6195
iter: 128 13:07:04  -968.333015c -5.46  -3.35    +81.6721
iter: 129 13:09:25  -968.345714c -5.12  -3.30    +81.6960
iter: 130 13:11:50  -968.330978c -5.50  -3.06    +81.7154
iter: 131 13:14:14  -968.331656c -5.40  -3.41    +81.7551
iter: 132 13:16:40  -968.342445c -5.04  -3.38    +81.7846
iter: 133 13:19:04  -968.338020c -4.86  -3.18    +81.7887
iter: 134 13:21:25  -968.336733c -5.01  -3.28    +81.7685
iter: 135 13:23:47  -968.455064  -4.47  -3.29    +81.7978
iter: 136 13:26:21  -968.332056  -4.76  -2.73    +81.8137
iter: 137 13:28:59  -968.331108  -5.58  -3.46    +81.8316
iter: 138 13:31:29  -968.330441c -6.27  -3.56    +81.8269
iter: 139 13:33:50  -968.331283c -6.33  -3.66    +81.8381
iter: 140 13:36:12  -968.331728c -6.18  -3.66    +81.8425
iter: 141 13:38:34  -968.346000c -5.38  -3.66    +81.8453
iter: 142 13:40:55  -968.337404c -5.22  -3.12    +81.8420
iter: 143 13:43:17  -968.335277c -5.37  -3.44    +81.8537
iter: 144 13:45:38  -968.333940c -5.45  -3.50    +81.8858
iter: 145 13:48:02  -968.332020c -5.85  -3.60    +81.8769
iter: 146 13:50:22  -968.331973c -6.33  -3.74    +81.8667
iter: 147 13:52:44  -968.332226c -6.65  -3.83    +81.8673
iter: 148 13:55:06  -968.332278c -6.92  -3.99    +81.8698
iter: 149 13:57:27  -968.332596c -6.61  -3.98    +81.8743
iter: 150 13:59:49  -968.333227c -6.44  -4.04c   +81.8757
iter: 151 14:02:10  -968.333056c -6.35  -3.93    +81.8779
iter: 152 14:04:32  -968.332882c -6.42  -3.87    +81.8767
iter: 153 14:06:55  -968.332749c -6.88  -4.34c   +81.8815
iter: 154 14:09:15  -968.333548c -6.87  -4.34c   +81.8849
iter: 155 14:11:37  -968.333164c -7.10  -4.10c   +81.8849
iter: 156 14:13:58  -968.333284c -7.17  -4.50c   +81.8883
iter: 157 14:16:18  -968.333487c -6.94  -4.54c   +81.8915
iter: 158 14:18:40  -968.333338c -7.66c -4.46c   +81.8900

Converged after 158 iterations.

Dipole moment: (45.102599, 22.148342, -0.008264) |e|*Ang

Total magnetic moment: (0.000000, 0.000000, 81.889958)
Local magnetic moments:
   0 Co ( 0.000000,  0.000000,  1.313996)
   1 Cr ( 0.000000,  0.000000,  0.941757)
   2 Co ( 0.000000,  0.000000,  0.786539)
   3 Cr ( 0.000000,  0.000000,  1.698104)
   4 Cr ( 0.000000,  0.000000, -2.435691)
   5 Ni ( 0.000000,  0.000000,  0.345004)
   6 Co ( 0.000000,  0.000000,  1.311799)
   7 Co ( 0.000000,  0.000000,  0.657106)
   8 Ni ( 0.000000,  0.000000,  0.144148)
   9 Co ( 0.000000,  0.000000,  1.219657)
  10 Cr ( 0.000000,  0.000000,  2.095049)
  11 Co ( 0.000000,  0.000000,  1.583960)
  12 Cr ( 0.000000,  0.000000, -2.073155)
  13 Al ( 0.000000,  0.000000, -0.022713)
  14 Cr ( 0.000000,  0.000000, -2.401290)
  15 Ni ( 0.000000,  0.000000,  0.490373)
  16 Fe ( 0.000000,  0.000000,  2.255550)
  17 Cr ( 0.000000,  0.000000,  1.574440)
  18 Co ( 0.000000,  0.000000,  1.200269)
  19 Co ( 0.000000,  0.000000,  1.417436)
  20 Al ( 0.000000,  0.000000, -0.039944)
  21 Ni ( 0.000000,  0.000000,  0.117107)
  22 Cr ( 0.000000,  0.000000, -1.806443)
  23 Co ( 0.000000,  0.000000,  1.103503)
  24 Co ( 0.000000,  0.000000,  1.175643)
  25 Ni ( 0.000000,  0.000000,  0.326088)
  26 Cr ( 0.000000,  0.000000, -0.177311)
  27 Cr ( 0.000000,  0.000000,  0.026256)
  28 Al ( 0.000000,  0.000000, -0.046413)
  29 Fe ( 0.000000,  0.000000,  2.134865)
  30 Ni ( 0.000000,  0.000000,  0.435184)
  31 Fe ( 0.000000,  0.000000,  1.429126)
  32 Fe ( 0.000000,  0.000000,  1.187962)
  33 Co ( 0.000000,  0.000000,  0.608257)
  34 Ni ( 0.000000,  0.000000,  0.363834)
  35 Fe ( 0.000000,  0.000000,  2.312525)
  36 Al ( 0.000000,  0.000000, -0.049090)
  37 Cr ( 0.000000,  0.000000, -0.832561)
  38 Fe ( 0.000000,  0.000000,  2.243238)
  39 Fe ( 0.000000,  0.000000,  2.498371)
  40 Ni ( 0.000000,  0.000000,  0.490513)
  41 Fe ( 0.000000,  0.000000,  1.906858)
  42 Fe ( 0.000000,  0.000000,  1.453503)
  43 Fe ( 0.000000,  0.000000,  2.209519)
  44 Ni ( 0.000000,  0.000000,  0.496123)
  45 Fe ( 0.000000,  0.000000,  2.448626)
  46 Cr ( 0.000000,  0.000000, -1.310856)
  47 Fe ( 0.000000,  0.000000,  1.630210)
  48 Ni ( 0.000000,  0.000000,  0.461029)
  49 Fe ( 0.000000,  0.000000,  2.528575)
  50 Fe ( 0.000000,  0.000000,  1.815605)
  51 Cr ( 0.000000,  0.000000, -1.015077)
  52 Cr ( 0.000000,  0.000000, -0.848443)
  53 Fe ( 0.000000,  0.000000,  1.795158)
  54 Cr ( 0.000000,  0.000000, -1.376418)
  55 Fe ( 0.000000,  0.000000,  2.240347)
  56 Fe ( 0.000000,  0.000000,  1.907701)
  57 Cr ( 0.000000,  0.000000, -1.009135)
  58 Ni ( 0.000000,  0.000000,  0.251096)
  59 Co ( 0.000000,  0.000000,  1.340575)
  60 Ni ( 0.000000,  0.000000,  0.476690)
  61 Fe ( 0.000000,  0.000000,  1.925598)
  62 Co ( 0.000000,  0.000000,  0.984388)
  63 Ni ( 0.000000,  0.000000,  0.491535)
  64 Ni ( 0.000000,  0.000000,  0.554141)
  65 Ni ( 0.000000,  0.000000,  0.549592)
  66 Fe ( 0.000000,  0.000000,  2.266582)
  67 Co ( 0.000000,  0.000000,  1.329629)
  68 Co ( 0.000000,  0.000000,  1.450111)
  69 Ni ( 0.000000,  0.000000,  0.538650)
  70 Co ( 0.000000,  0.000000,  1.180172)
  71 Ni ( 0.000000,  0.000000,  0.272970)
  72 Co ( 0.000000,  0.000000,  1.125146)
  73 Fe ( 0.000000,  0.000000,  1.986813)
  74 Ni ( 0.000000,  0.000000,  0.266782)
  75 Cr ( 0.000000,  0.000000, -1.077164)
  76 Fe ( 0.000000,  0.000000,  2.056723)
  77 Ni ( 0.000000,  0.000000,  0.441531)
  78 Ni ( 0.000000,  0.000000,  0.281250)
  79 Fe ( 0.000000,  0.000000,  1.623263)
  80 Ni ( 0.000000,  0.000000,  0.419187)
  81 Fe ( 0.000000,  0.000000,  2.304511)
  82 Ni ( 0.000000,  0.000000,  0.235992)
  83 Cr ( 0.000000,  0.000000,  0.163636)
  84 Fe ( 0.000000,  0.000000,  2.050885)
  85 Ni ( 0.000000,  0.000000,  0.370471)
  86 Fe ( 0.000000,  0.000000,  2.433558)
  87 Fe ( 0.000000,  0.000000,  2.104546)
  88 Fe ( 0.000000,  0.000000,  1.988320)
  89 Cr ( 0.000000,  0.000000,  1.178024)
  90 Ni ( 0.000000,  0.000000,  0.255078)
  91 Ni ( 0.000000,  0.000000,  0.393122)
  92 Cr ( 0.000000,  0.000000, -1.769622)
  93 Fe ( 0.000000,  0.000000,  2.122262)
  94 Cr ( 0.000000,  0.000000, -1.522239)
  95 Cr ( 0.000000,  0.000000,  0.354329)
  96 Fe ( 0.000000,  0.000000,  1.808842)
  97 Fe ( 0.000000,  0.000000,  2.221589)
  98 Co ( 0.000000,  0.000000,  1.370683)
  99 Al ( 0.000000,  0.000000, -0.029061)
 100 Cr ( 0.000000,  0.000000,  1.465676)
 101 Cr ( 0.000000,  0.000000, -2.357714)
 102 Co ( 0.000000,  0.000000,  1.606549)
 103 Co ( 0.000000,  0.000000,  1.349781)
 104 Cr ( 0.000000,  0.000000, -1.990653)
 105 Ni ( 0.000000,  0.000000,  0.276791)
 106 Co ( 0.000000,  0.000000,  1.436817)
 107 Co ( 0.000000,  0.000000,  1.419548)
 108 Co ( 0.000000,  0.000000,  1.254607)
 109 Co ( 0.000000,  0.000000,  0.974283)
 110 Co ( 0.000000,  0.000000,  1.387688)
 111 Cr ( 0.000000,  0.000000, -2.497218)
 112 Cr ( 0.000000,  0.000000, -2.049489)
 113 Co ( 0.000000,  0.000000,  1.175424)
 114 Al ( 0.000000,  0.000000, -0.011781)
 115 Co ( 0.000000,  0.000000,  1.302227)
 116 Co ( 0.000000,  0.000000,  1.304053)
 117 Ni ( 0.000000,  0.000000,  0.320070)
 118 Cr ( 0.000000,  0.000000, -1.960525)
 119 Cr ( 0.000000,  0.000000, -1.824877)
 120 Ni ( 0.000000,  0.000000,  0.194360)
 121 Ni ( 0.000000,  0.000000,  0.256764)
 122 Co ( 0.000000,  0.000000,  1.392733)
 123 Ni ( 0.000000,  0.000000,  0.175744)
 124 Cr ( 0.000000,  0.000000,  1.768825)

Energy contributions relative to reference atoms: (reference = -4275894.041763)

Kinetic:       +296.231290
Potential:     -327.959979
External:        +0.000000
XC:            -976.626679
Entropy (-ST):   -5.606239
Local:          +42.825149
--------------------------
Free energy:   -971.136457
Extrapolated:  -968.333338

Dipole-layer corrected work functions: 4.925831, 4.936911 eV

Spin contamination: 39.170395 electrons
Showing all kpts
                      Up                     Down
 Kpt  Band  Eigenvalues  Occupancy  Eigenvalues  Occupancy
  0   587     -0.07679    0.99666      0.86917    0.02271
  0   588     -0.06323    0.99617      0.87842    0.02074
  0   589     -0.05572    0.99588      0.88673    0.01912
  0   590     -0.04500    0.99541      0.89514    0.01761

  1   587     -0.05671    0.99592      0.86893    0.02276
  1   588     -0.04240    0.99529      0.88244    0.01994
  1   589     -0.03240    0.99480      0.89045    0.01844
  1   590     -0.01824    0.99401      0.89298    0.01798


Fermi level: 0.49297

No gap

Forces in eV/Ang:
  0 Co   -0.04847    0.33753    0.70149
  1 Cr    0.40329    0.04204    0.24349
  2 Co   -0.25991    0.05118    0.39418
  3 Cr   -0.40863    0.62237   -0.58718
  4 Cr   -0.31121    0.55032   -0.22706
  5 Ni   -0.13635   -0.20978   -0.20589
  6 Co    0.38865    0.06365   -0.16906
  7 Co   -0.05765    0.27010    0.02774
  8 Ni   -0.14219    0.08532   -0.23507
  9 Co    0.46039   -0.25730    0.27946
 10 Cr    0.20123    0.06328   -0.39780
 11 Co    0.17317    0.01583    1.03935
 12 Cr   -1.29491    0.23741   -0.31864
 13 Al    0.15386   -0.36854   -1.62146
 14 Cr    0.92740   -0.04673   -0.19073
 15 Ni    0.25834   -0.26102    0.35009
 16 Fe   -0.52470   -0.58016   -0.01356
 17 Cr   -0.34373    0.39205   -0.33770
 18 Co    0.39303    0.28665    0.34377
 19 Co   -0.16121    0.59945    0.13798
 20 Al    0.59488   -0.46301   -0.75348
 21 Ni   -0.27840    0.07585   -0.16344
 22 Cr    0.23555    0.14276   -0.36817
 23 Co   -0.04084   -0.40168   -0.02185
 24 Co   -0.06206   -0.29984   -0.12806
 25 Ni   -0.29204   -0.33823    0.37032
 26 Cr   -0.17092    0.53906   -0.33866
 27 Cr   -0.78721    0.05529   -0.22581
 28 Al    0.45620   -0.15473   -0.00559
 29 Fe    0.50484   -0.05920    0.17288
 30 Ni   -0.32608   -0.32829    0.10236
 31 Fe   -0.06520   -0.63141   -0.44862
 32 Fe   -0.09186    0.15577   -0.04255
 33 Co    0.00638    0.12348    0.11264
 34 Ni    0.34688   -0.16536    0.13397
 35 Fe   -0.41167   -0.27442    0.02467
 36 Al   -0.55307    0.32111   -0.43055
 37 Cr    0.75665   -0.15462   -0.13080
 38 Fe   -0.22542   -0.77259    0.66030
 39 Fe    0.11887   -0.30011    0.02061
 40 Ni    0.32688    0.40260   -0.13907
 41 Fe   -0.10493    0.40071   -0.35576
 42 Fe   -0.27128    0.03652    0.73824
 43 Fe    0.44613    0.58590    0.68269
 44 Ni   -0.20148    0.20439    0.51223
 45 Fe    0.40120    0.24811    0.51034
 46 Cr   -0.31381   -0.11007   -0.20506
 47 Fe    0.11116    0.09732    0.41348
 48 Ni   -0.01302   -0.38433   -0.06728
 49 Fe    0.55542   -0.76911   -0.20135
 50 Fe   -0.34171   -0.18153   -0.49634
 51 Cr   -0.07409   -0.08329    0.06062
 52 Cr   -0.56674   -0.29914    0.92050
 53 Fe    0.01716    0.37578   -0.34638
 54 Cr    0.20696   -0.10004   -0.46897
 55 Fe   -0.41595    0.21381   -0.36100
 56 Fe    0.07718   -0.40778    0.16345
 57 Cr    0.11351    0.13992   -0.34580
 58 Ni    0.15623   -0.05400   -0.09039
 59 Co    0.11019   -0.04393    0.11296
 60 Ni   -0.03373    0.10682   -0.00950
 61 Fe    0.21698    0.02070   -0.01803
 62 Co    0.06330    0.08081   -0.00375
 63 Ni    0.18024    0.30367   -0.15278
 64 Ni   -0.34444    0.38502   -0.17428
 65 Ni    0.09615    0.42854   -0.36923
 66 Fe   -0.08152    0.26531    0.09448
 67 Co    0.34568    0.06023    0.23285
 68 Co   -0.09001    0.07124   -0.06917
 69 Ni   -0.45076   -0.01088    0.05479
 70 Co   -0.07675    0.25726   -0.43063
 71 Ni    0.11143   -0.03621    0.20719
 72 Co    0.27979   -0.40567    0.04815
 73 Fe   -0.69304   -0.37117    0.28165
 74 Ni    0.18194   -0.36372   -0.41339
 75 Cr    0.04510    0.49163    0.62594
 76 Fe    0.09680    0.02431    0.31388
 77 Ni    0.35432   -0.21958    0.07637
 78 Ni   -0.20732   -0.17356    0.34143
 79 Fe    0.10316    0.62136    0.20032
 80 Ni   -0.21715    0.30659   -0.18546
 81 Fe    0.12933   -0.16060    0.30564
 82 Ni    0.01286    0.04066   -0.06997
 83 Cr    0.07436   -0.04624    0.12053
 84 Fe   -0.17408   -0.34733   -0.38679
 85 Ni    0.10384   -0.10719    0.36396
 86 Fe    0.15322    0.17502    0.36244
 87 Fe   -0.06754   -0.09410    0.25955
 88 Fe   -0.26487   -0.06117   -0.06947
 89 Cr    0.37986    0.78089   -0.12580
 90 Ni   -0.09520   -0.19360   -0.07148
 91 Ni    0.08939   -0.09384   -0.33192
 92 Cr   -0.00543    0.00639    0.33167
 93 Fe    0.48353    0.59626   -0.07869
 94 Cr   -0.73166    0.23676   -0.46344
 95 Cr    1.09967   -0.52533    0.19392
 96 Fe   -0.02386   -0.48700   -0.46956
 97 Fe    0.85843   -0.22866    0.09530
 98 Co   -0.34599   -0.11047    0.23426
 99 Al   -1.15349    0.47791   -0.86580
100 Cr   -0.38317    0.32431    0.29606
101 Cr   -0.02795    0.15378    0.15715
102 Co    0.49338    0.00872   -0.56105
103 Co   -0.52163    0.12525   -0.37343
104 Cr    0.52354    0.71008    0.66440
105 Ni   -0.14452    0.26550    0.29152
106 Co    0.16679   -0.09799    0.12637
107 Co    0.04749   -0.31305   -0.21850
108 Co   -0.21778    0.00437   -0.04048
109 Co   -0.18687    0.07683   -0.18877
110 Co    0.15610    0.01372   -0.22037
111 Cr   -0.97334    0.12454    0.30558
112 Cr    0.91842    0.00973    0.17894
113 Co    0.08817   -0.05868   -0.14685
114 Al    0.22818   -1.11344    0.72842
115 Co    0.15668   -0.17185   -0.15492
116 Co    0.01259   -0.04346   -0.28626
117 Ni   -0.08125    0.17565    0.22252
118 Cr   -0.38892    0.47329   -0.04768
119 Cr    0.31292   -0.37249    0.13841
120 Ni    0.32629   -0.35892   -0.02589
121 Ni    0.03827   -0.41759    0.00544
122 Co   -0.06612   -0.19722   -0.00154
123 Ni   -0.15265    0.32530   -0.46291
124 Cr   -0.33193   -0.58962    0.80697

Timing:                              incl.     excl.
-----------------------------------------------------------
Forces:                             37.546    37.546   0.2% |
Hamiltonian:                         1.485     0.010   0.0% |
 Atomic:                             0.333     0.001   0.0% |
  XC Correction:                     0.332     0.332   0.0% |
 Calculate atomic Hamiltonians:      0.701     0.701   0.0% |
 Communicate:                        0.082     0.082   0.0% |
 Initialize Hamiltonian:             0.001     0.001   0.0% |
 Poisson:                            0.082     0.082   0.0% |
 XC 3D grid:                         0.276     0.276   0.0% |
LCAO initialization:               253.242     0.462   0.0% |
 LCAO eigensolver:                  13.531     0.013   0.0% |
  Calculate projections:             0.000     0.000   0.0% |
  DenseAtomicCorrection:             0.000     0.000   0.0% |
  Distribute overlap matrix:         8.932     8.932   0.0% |
  Orbital Layouts:                   4.556     4.556   0.0% |
  Potential matrix:                  0.003     0.003   0.0% |
  Sum over cells:                    0.026     0.026   0.0% |
 LCAO to grid:                     237.094   237.094   1.0% |
 Set positions (LCAO WFS):           2.155     1.894   0.0% |
  Basic WFS set positions:           0.003     0.003   0.0% |
  Basis functions set positions:     0.000     0.000   0.0% |
  P tci:                             0.000     0.000   0.0% |
  ST tci:                            0.103     0.103   0.0% |
  mktci:                             0.154     0.154   0.0% |
PWDescriptor:                        0.091     0.091   0.0% |
SCF-cycle:                       22605.730    23.713   0.1% |
 Davidson:                       21991.793  7080.715  30.9% |-----------|
  Apply H:                         386.125   379.464   1.7% ||
   HMM T:                            6.661     6.661   0.0% |
  Subspace diag:                  2414.327     0.053   0.0% |
   calc_h_matrix:                  976.625   634.996   2.8% ||
    Apply H:                       341.629   335.192   1.5% ||
     HMM T:                          6.437     6.437   0.0% |
   diagonalize:                    221.252   221.252   1.0% |
   rotate_psi:                    1216.397  1216.397   5.3% |-|
  calc. matrices:                 5698.263  5081.859  22.2% |--------|
   Apply H:                        616.405   603.056   2.6% ||
    HMM T:                          13.348    13.348   0.1% |
  diagonalize:                    3809.913  3809.913  16.6% |------|
  rotate_psi:                     2602.449  2602.449  11.4% |----|
 Density:                          325.587     0.004   0.0% |
  Atomic density matrices:           3.704     3.704   0.0% |
  Mix:                             147.470   147.470   0.6% |
  Multipole moments:                 0.103     0.103   0.0% |
  Pseudo density:                  174.306   174.300   0.8% |
   Symmetrize density:               0.006     0.006   0.0% |
 Hamiltonian:                      247.488     1.569   0.0% |
  Atomic:                           54.583     0.174   0.0% |
   XC Correction:                   54.409    54.409   0.2% |
  Calculate atomic Hamiltonians:   125.099   125.099   0.5% |
  Communicate:                      15.188    15.188   0.1% |
  Poisson:                           5.297     5.297   0.0% |
  XC 3D grid:                       45.753    45.753   0.2% |
 Orthonormalize:                    17.149     0.000   0.0% |
  calc_s_matrix:                     2.126     2.126   0.0% |
  inverse-cholesky:                  0.838     0.838   0.0% |
  projections:                      10.498    10.498   0.0% |
  rotate_psi_s:                      3.686     3.686   0.0% |
Set symmetry:                        0.001     0.001   0.0% |
Other:                               6.817     6.817   0.0% |
-----------------------------------------------------------
Total:                                     22904.913 100.0%

Date: Thu Apr 20 14:19:22 2023
