
  ___ ___ ___ _ _ _  
 |   |   |_  | | | | 
 | | | | | . | | | | 
 |__ |  _|___|_____|  22.8.0
 |___|_|             

User:   c.zeng@d0131
Date:   Sat Apr  8 06:33:34 2023
Arch:   x86_64
Pid:    49479
CWD:    /home/c.zeng/projects/hea-corrosion/hea-mlp/data-curation/volume/dft-jobs/20
Python: 3.8.1
gpaw:   /home/c.zeng/usr/installs/gpaw/source/gpaw-22.8.0/gpaw
_gpaw:  /home/c.zeng/usr/installs/gpaw/source/gpaw-22.8.0/
        _gpaw.cpython-38-x86_64-linux-gnu.so
ase:    /home/c.zeng/.local/lib/python3.8/site-packages/ase-3.22.1-py3.8.egg/ase (version 3.22.1)
numpy:  /shared/centos7/python/3.8.1/lib/python3.8/site-packages/numpy (version 1.17.4)
scipy:  /shared/centos7/python/3.8.1/lib/python3.8/site-packages/scipy (version 1.4.1)
libxc:  4.2.3
units:  Angstrom and eV
cores: 64
OpenMP: False
OMP_NUM_THREADS: 1

Input parameters:
  convergence: {energy: 0.0001}
  kpts: [2 2 2]
  maxiter: 666
  mode: {ecut: 350.0,
         name: pw}
  occupations: {fixmagmom: False,
                name: fermi-dirac,
                width: 0.1}
  spinpol: True
  xc: PBE

System changes: positions, numbers, cell, pbc, initial_charges, initial_magmoms 

Initialize ...

species:
  Co:
    name: Cobalt
    id: 339d20d5b0b93d2de9531a1bee871d91
    Z: 27.0
    valence: 9
    core: 18
    charge: 0.0
    file: /home/c.zeng/usr/data/gpaw-setups-0.9.20000/Co.PBE.gz
    compensation charges: {type: gauss,
                           rc: 0.32,
                           lmax: 2}
    cutoffs: {filter: 1.87,
              core: 2.55}
    valence states:
      #              energy  rcut
      - 4s(2.00)    -5.469   1.005
      - 4p(0.00)    -1.277   1.058
      - 3d(7.00)    -8.205   1.005
      -  s          21.742   1.005
      -  p          25.934   1.058
      -  d          19.007   1.005
  
    # Using partial waves for Co as LCAO basis

  Fe:
    name: Iron
    id: 37abbd8d6c3c35915a9b583b742da910
    Z: 26.0
    valence: 8
    core: 18
    charge: 0.0
    file: /home/c.zeng/usr/data/gpaw-setups-0.9.20000/Fe.PBE.gz
    compensation charges: {type: gauss,
                           rc: 0.33,
                           lmax: 2}
    cutoffs: {filter: 2.06,
              core: 2.67}
    valence states:
      #              energy  rcut
      - 4s(2.00)    -5.291   1.164
      - 4p(0.00)    -1.326   1.058
      - 3d(6.00)    -7.505   1.058
      -  s          21.920   1.164
      -  p          25.885   1.058
      -  d          19.706   1.058
  
    # Using partial waves for Fe as LCAO basis

  Cr:
    name: Chromium
    id: 33f258bda2ca9f93018e70263a35547b
    Z: 24.0
    valence: 6
    core: 18
    charge: 0.0
    file: /home/c.zeng/usr/data/gpaw-setups-0.9.20000/Cr.PBE.gz
    compensation charges: {type: gauss,
                           rc: 0.35,
                           lmax: 2}
    cutoffs: {filter: 2.14,
              core: 3.04}
    valence states:
      #              energy  rcut
      - 4s(1.00)    -4.007   1.164
      - 4p(0.00)    -0.989   1.217
      - 3d(5.00)    -2.913   1.111
      -  s          23.205   1.164
      -  p          26.223   1.217
      -  d          24.299   1.111
  
    # Using partial waves for Cr as LCAO basis

  Ni:
    name: Nickel
    id: 0d9f38a9d6e76a2886f07bb4381f212b
    Z: 28.0
    valence: 16
    core: 12
    charge: 0.0
    file: /home/c.zeng/usr/data/gpaw-setups-0.9.20000/Ni.PBE.gz
    compensation charges: {type: gauss,
                           rc: 0.36,
                           lmax: 2}
    cutoffs: {filter: 2.14,
              core: 1.98}
    valence states:
      #              energy  rcut
      - 4s(2.00)    -5.642   1.164
      - 3p(6.00)   -71.394   1.207
      - 4p(0.00)    -1.226   1.207
      - 3d(8.00)    -8.875   1.138
      -  s          21.570   1.164
      -  d          18.337   1.138
  
    # Using partial waves for Ni as LCAO basis

Reference energy: -3846758.590871  # eV

Spin-polarized calculation.
Magnetic moment: 151.200000

Convergence criteria:
 Maximum [total energy] change in last 3 cyles: 0.0001 eV / electron
 Maximum integral of absolute [dens]ity change: 0.0001 electrons / valence electron
 Maximum integral of absolute [eigenst]ate change: 4e-08 eV^2 / valence electron
 Maximum number of scf [iter]ations: 666
 (Square brackets indicate name in SCF output, whereas a 'c' in
 the SCF output indicates the quantity has converged.)

Symmetries present (total): 1

  ( 1  0  0)
  ( 0  1  0)
  ( 0  0  1)

8 k-points: 2 x 2 x 2 Monkhorst-Pack grid
4 k-points in the irreducible part of the Brillouin zone
       k-points in crystal coordinates                weights
   0:     0.25000000   -0.25000000   -0.25000000          2/8
   1:     0.25000000   -0.25000000    0.25000000          2/8
   2:     0.25000000    0.25000000   -0.25000000          2/8
   3:     0.25000000    0.25000000    0.25000000          2/8

Wave functions: Plane wave expansion
  Cutoff energy: 350.000 eV
  Number of coefficients (min, max): 17755, 17755
  Pulay-stress correction: 0.000000 eV/Ang^3 (de/decut=0.000000)
  Using FFTW library
  ScaLapack parameters: grid=1x1, blocksize=None
  Wavefunction extrapolation:
    Improved wavefunction reuse through dual PAW basis 

Occupation numbers: Fermi-Dirac:
  width: 0.1000  # eV
 

Eigensolver
   Davidson(niter=2) 

Densities:
  Coarse grid: 48*48*48 grid
  Fine grid: 96*96*96 grid
  Total Charge: 0.000000 

Density mixing:
  Method: difference
  Backend: pulay
  Linear mixing parameter: 0.05
  old densities: 5
  Damping of long wavelength oscillations: 50 

Hamiltonian:
  XC and Coulomb potentials evaluated on a 96*96*96 grid
  Using the PBE Exchange-Correlation functional
  External potential:
    NoExternalPotential
 

XC parameters: PBE with 2 nearest neighbor stencil

Memory estimate:
  Process memory now: 177.20 MiB
  Calculator: 686.26 MiB
    Density: 4.66 MiB
      Arrays: 1.85 MiB
      Localized functions: 2.07 MiB
      Mixer: 0.74 MiB
    Hamiltonian: 1.43 MiB
      Arrays: 1.37 MiB
      XC: 0.00 MiB
      Poisson: 0.00 MiB
      vbar: 0.06 MiB
    Wavefunctions: 680.17 MiB
      Arrays psit_nG: 393.92 MiB
      Eigensolver: 278.98 MiB
      Projections: 2.70 MiB
      Projectors: 0.28 MiB
      PW-descriptor: 4.30 MiB

Total number of cores used: 64
Parallelization over k-points: 4
Domain decomposition: 4 x 2 x 2

Number of atoms: 108
Number of atomic orbitals: 1053
Number of bands in calculation: 727
Number of valence electrons: 1053
Bands to converge: occupied

... initialized

Initializing position-dependent things.

Density initialized from atomic densities
Creating initial wave functions:
  727 bands from LCAO basis set

        .-------------------------.  
       /|  Cr       Co      Cr    |  
      / |   FeFe     Fe           |  
     /  |       Cr      Co       Co  
    /   |Fe      CCr       Cr     Co 
   /    | Fe       Fe       CCr   |  
  /  CFe|  CrFe     CoNi          |  
 *    NiCr    CoNi   CrNiNi       |  
 |      |NiCo   NiCoFe  CoCrCo   Fe  
 |      | FeCr     CoNiCoFeCrCr   |  
 |    Cr|  NiFeCr   NiFeNi   NiNi |  
 |      Fe    FeFeNi CoFeCo     Ni|  
 |      |CoCo  CrNiFe   NiNiNi   Co  
 |      .-CrCo-----CoNiNi--NiCr---Co 
 |   Cre     Co       Ni         /   
 |    FeCr     Fei     CCoo     /    
 |   /    Fe               Fe  /     
 |  /      Cr       Ni    CrCo/      
 | / Fe     Ni       CoNi    /       
 |/            Cr       Co  /        
 *--------Cr------Fe-------*         

Positions:
   0 Co    -0.012485   -0.003759   10.616104    ( 0.0000,  0.0000,  2.1000)
   1 Co    -0.011344    1.761273    1.763386    ( 0.0000,  0.0000,  2.1000)
   2 Fe     1.758365    0.001305    1.769011    ( 0.0000,  0.0000,  2.0000)
   3 Fe     1.752676    1.779233   10.610468    ( 0.0000,  0.0000,  2.0000)
   4 Cr     3.541185    0.004735   10.616104    ( 0.0000,  0.0000,  0.0000)
   5 Cr     3.534721    1.782459    1.778989    ( 0.0000,  0.0000,  0.0000)
   6 Co     5.305717   10.600608    1.767950    ( 0.0000,  0.0000,  2.1000)
   7 Cr     5.324791    1.765604   10.614618    ( 0.0000,  0.0000,  0.0000)
   8 Fe     7.089121    0.014583   10.619926    ( 0.0000,  0.0000,  2.0000)
   9 Ni     7.085289    1.771198    1.773543    ( 0.0000,  0.0000,  1.5000)
  10 Ni     8.850543    0.011447    1.768767    ( 0.0000,  0.0000,  1.5000)
  11 Co     8.842391    1.777290   10.615680    ( 0.0000,  0.0000,  2.1000)
  12 Cr    10.590492    3.538203   -0.001954    ( 0.0000,  0.0000,  0.0000)
  13 Fe    10.624277    5.310716    1.769786    ( 0.0000,  0.0000,  2.0000)
  14 Cr     1.761316    3.535623    1.784561    ( 0.0000,  0.0000,  0.0000)
  15 Fe     1.770168    5.301408   10.611774    ( 0.0000,  0.0000,  2.0000)
  16 Ni     3.556024    3.551407   10.618333    ( 0.0000,  0.0000,  1.5000)
  17 Co     3.539370    5.311290    1.775199    ( 0.0000,  0.0000,  2.1000)
  18 Ni     5.320195    3.545059    1.779668    ( 0.0000,  0.0000,  1.5000)
  19 Cr     5.307023    5.314665   10.602730    ( 0.0000,  0.0000,  0.0000)
  20 Co     7.081627    3.529127   10.614725    ( 0.0000,  0.0000,  2.1000)
  21 Ni     7.069251    5.303371    1.781271    ( 0.0000,  0.0000,  1.5000)
  22 Co     8.841447    3.542671    1.781610    ( 0.0000,  0.0000,  2.1000)
  23 Cr     8.850893    5.290401    0.000207    ( 0.0000,  0.0000,  0.0000)
  24 Fe     0.005852    7.083453   10.614937    ( 0.0000,  0.0000,  2.0000)
  25 Co    10.601022    8.849704    1.772981    ( 0.0000,  0.0000,  2.1000)
  26 Cr     1.773703    7.072351    1.777184    ( 0.0000,  0.0000,  0.0000)
  27 Cr     1.755552    8.842933   10.608324    ( 0.0000,  0.0000,  0.0000)
  28 Fe     3.544019    7.063105   10.610511    ( 0.0000,  0.0000,  2.0000)
  29 Cr     3.542225    8.826788    1.785601    ( 0.0000,  0.0000,  0.0000)
  30 Co     5.309846    7.081787    1.776600    ( 0.0000,  0.0000,  2.1000)
  31 Co     5.331945    8.840321   10.604673    ( 0.0000,  0.0000,  2.1000)
  32 Cr     7.068444    7.069049   10.623110    ( 0.0000,  0.0000,  0.0000)
  33 Ni     7.083761    8.846817    1.774520    ( 0.0000,  0.0000,  1.5000)
  34 Ni     8.841393    7.058202    1.777195    ( 0.0000,  0.0000,  1.5000)
  35 Cr     8.835492    8.853600   10.611731    ( 0.0000,  0.0000,  0.0000)
  36 Fe    -0.009347   10.618864    3.531091    ( 0.0000,  0.0000,  2.0000)
  37 Ni    10.602529    1.764818    5.300452    ( 0.0000,  0.0000,  1.5000)
  38 Cr     1.756762    0.001412    5.295846    ( 0.0000,  0.0000,  0.0000)
  39 Fe     1.766506    1.767164    3.539200    ( 0.0000,  0.0000,  2.0000)
  40 Fe     3.539742    0.013900    3.542862    ( 0.0000,  0.0000,  2.0000)
  41 Co     3.548955    1.788722    5.306216    ( 0.0000,  0.0000,  2.1000)
  42 Cr     5.320142   -0.004672    5.301397    ( 0.0000,  0.0000,  0.0000)
  43 Fe     5.316883    1.765561    3.538914    ( 0.0000,  0.0000,  2.0000)
  44 Fe     7.081065   -0.000294    3.531335    ( 0.0000,  0.0000,  2.0000)
  45 Fe     7.072881    1.777418    5.300559    ( 0.0000,  0.0000,  2.0000)
  46 Ni     8.840544    0.012380    5.307882    ( 0.0000,  0.0000,  1.5000)
  47 Co     8.833592    1.767897    3.534339    ( 0.0000,  0.0000,  2.1000)
  48 Cr    -0.004093    3.525264    3.545940    ( 0.0000,  0.0000,  0.0000)
  49 Ni    -0.001698    5.317934    5.307787    ( 0.0000,  0.0000,  1.5000)
  50 Fe     1.769022    3.555111    5.297247    ( 0.0000,  0.0000,  2.0000)
  51 Co     1.773671    5.305929    3.538224    ( 0.0000,  0.0000,  2.1000)
  52 Co     3.542756    3.537364    3.547533    ( 0.0000,  0.0000,  2.1000)
  53 Fe     3.548477    5.306885    5.301132    ( 0.0000,  0.0000,  2.0000)
  54 Fe     5.316268    3.553031    5.303626    ( 0.0000,  0.0000,  2.0000)
  55 Ni     5.303318    5.303520    3.542363    ( 0.0000,  0.0000,  1.5000)
  56 Ni     7.074983    3.533023    3.537215    ( 0.0000,  0.0000,  1.5000)
  57 Fe     7.066056    5.306025    5.300070    ( 0.0000,  0.0000,  2.0000)
  58 Co     8.834526    3.538150    5.294540    ( 0.0000,  0.0000,  2.1000)
  59 Ni     8.846255    5.300463    3.537683    ( 0.0000,  0.0000,  1.5000)
  60 Ni    -0.000725    7.085088    3.531080    ( 0.0000,  0.0000,  1.5000)
  61 Fe    10.598092    8.841075    5.303095    ( 0.0000,  0.0000,  2.0000)
  62 Fe     1.780007    7.059507    5.307500    ( 0.0000,  0.0000,  2.0000)
  63 Ni     1.758216    8.847168    3.551534    ( 0.0000,  0.0000,  1.5000)
  64 Fe     3.552235    7.063159    3.551566    ( 0.0000,  0.0000,  2.0000)
  65 Ni     3.550250    8.826884    5.304889    ( 0.0000,  0.0000,  1.5000)
  66 Co     5.307893    7.068126    5.307150    ( 0.0000,  0.0000,  2.1000)
  67 Ni     5.318635    8.854566    3.544136    ( 0.0000,  0.0000,  1.5000)
  68 Fe     7.066629    7.084928    3.542937    ( 0.0000,  0.0000,  2.0000)
  69 Co     7.081521    8.840300    5.311364    ( 0.0000,  0.0000,  2.1000)
  70 Cr     8.837562    7.062681    5.296907    ( 0.0000,  0.0000,  0.0000)
  71 Ni     8.843060    8.854545    3.541557    ( 0.0000,  0.0000,  1.5000)
  72 Co    10.604567   10.614066    7.084239    ( 0.0000,  0.0000,  2.1000)
  73 Co    -0.008023    1.757463    8.855341    ( 0.0000,  0.0000,  2.1000)
  74 Fe     1.751572   -0.001379    8.856859    ( 0.0000,  0.0000,  2.0000)
  75 Cr     1.760339    1.764001    7.080715    ( 0.0000,  0.0000,  0.0000)
  76 Cr     3.535740   -0.010484    7.075407    ( 0.0000,  0.0000,  0.0000)
  77 Co     3.539498    1.775486    8.840353    ( 0.0000,  0.0000,  2.1000)
  78 Fe     5.320291   10.607517    8.848739    ( 0.0000,  0.0000,  2.0000)
  79 Cr     5.315365    1.771463    7.072106    ( 0.0000,  0.0000,  0.0000)
  80 Ni     7.084398    0.000050    7.076522    ( 0.0000,  0.0000,  1.5000)
  81 Fe     7.078602    1.760138    8.844227    ( 0.0000,  0.0000,  2.0000)
  82 Co     8.843654    0.009532    8.845469    ( 0.0000,  0.0000,  2.1000)
  83 Ni     8.842126    1.772333    7.078634    ( 0.0000,  0.0000,  1.5000)
  84 Cr    10.597115    3.532322    7.067457    ( 0.0000,  0.0000,  0.0000)
  85 Co     0.007684    5.315174    8.846499    ( 0.0000,  0.0000,  2.1000)
  86 Cr     1.767822    3.539243    8.837020    ( 0.0000,  0.0000,  0.0000)
  87 Ni     1.775932    5.314400    7.075301    ( 0.0000,  0.0000,  1.5000)
  88 Cr     3.547193    3.559835    7.058042    ( 0.0000,  0.0000,  0.0000)
  89 Fe     3.538765    5.307235    8.841892    ( 0.0000,  0.0000,  2.0000)
  90 Ni     5.316862    3.538786    8.836033    ( 0.0000,  0.0000,  1.5000)
  91 Co     5.312521    5.317552    7.078220    ( 0.0000,  0.0000,  2.1000)
  92 Ni     7.082519    3.540410    7.075429    ( 0.0000,  0.0000,  1.5000)
  93 Ni     7.071141    5.304242    8.839324    ( 0.0000,  0.0000,  1.5000)
  94 Ni     8.837997    3.524638    8.843357    ( 0.0000,  0.0000,  1.5000)
  95 Cr     8.833772    5.299051    7.076862    ( 0.0000,  0.0000,  0.0000)
  96 Ni     0.012216    7.080333    7.083825    ( 0.0000,  0.0000,  1.5000)
  97 Co    -0.017006    8.848717    8.843898    ( 0.0000,  0.0000,  2.1000)
  98 Fe     1.777970    7.075503    8.840205    ( 0.0000,  0.0000,  2.0000)
  99 Cr     1.758874    8.840035    7.069782    ( 0.0000,  0.0000,  0.0000)
 100 Co     3.549910    7.066120    7.070068    ( 0.0000,  0.0000,  2.1000)
 101 Cr     3.553116    8.839122    8.836776    ( 0.0000,  0.0000,  0.0000)
 102 Fe     5.304167    7.079929    8.840215    ( 0.0000,  0.0000,  2.0000)
 103 Co     5.321883    8.832180    7.082986    ( 0.0000,  0.0000,  2.1000)
 104 Ni     7.057055    7.072149    7.064167    ( 0.0000,  0.0000,  1.5000)
 105 Co     7.082381    8.855510    8.837434    ( 0.0000,  0.0000,  2.1000)
 106 Cr     8.846775    7.077912    8.846690    ( 0.0000,  0.0000,  0.0000)
 107 Cr     8.839324    8.848261    7.075121    ( 0.0000,  0.0000,  0.0000)

Unit cell:
           periodic     x           y           z      points  spacing
  1. axis:    yes   10.614300    0.000000    0.000000    48     0.2211
  2. axis:    yes    0.000000   10.614300    0.000000    48     0.2211
  3. axis:    yes    0.000000    0.000000   10.614300    48     0.2211

  Lengths:  10.614300  10.614300  10.614300
  Angles:   90.000000  90.000000  90.000000

Effective grid spacing dv^(1/3) = 0.2211

     iter     time        total  log10-change:  magmom
                         energy  eigst   dens
iter:   1 06:35:40 -1089.721279                  +151.4728
iter:   2 06:36:34  -955.042991  -0.28  -1.20    +84.6201
iter:   3 06:37:26  -948.420805  -0.91  -1.24    +69.2236
iter:   4 06:38:19  -934.716544  -1.20  -1.29    +65.0531
iter:   5 06:39:11  -911.432477  -1.58  -1.29    +59.0343
iter:   6 06:40:04  -908.420435  -1.32  -1.38    +58.7714
iter:   7 06:40:58  -909.131811  -1.22  -1.48    +57.3882
iter:   8 06:41:51  -889.033859  -1.64  -1.55    +55.7371
iter:   9 06:42:44  -888.288497  -2.29  -1.83    +56.7213
iter:  10 06:43:36  -888.695877  -2.41  -1.86    +58.4023
iter:  11 06:44:30  -888.519957  -2.68  -1.89    +59.7157
iter:  12 06:45:22  -889.011246  -2.71  -1.92    +61.0775
iter:  13 06:46:17  -890.760053  -2.51  -1.96    +62.3494
iter:  14 06:47:10  -890.769780  -2.40  -1.98    +63.0575
iter:  15 06:48:03  -890.794381c -2.51  -2.03    +63.6432
iter:  16 06:48:55  -890.253796  -2.63  -2.07    +63.7408
iter:  17 06:49:48  -890.022464  -2.83  -2.14    +64.5577
iter:  18 06:50:40  -889.766744  -2.95  -2.19    +65.3681
iter:  19 06:51:34  -889.820762  -3.17  -2.25    +65.5657
iter:  20 06:52:27  -889.656807  -3.31  -2.27    +65.8552
iter:  21 06:53:21  -889.690306  -3.30  -2.35    +66.1944
iter:  22 06:54:13  -889.611748c -3.53  -2.35    +66.7433
iter:  23 06:55:03  -889.766052  -3.44  -2.41    +66.8158
iter:  24 06:55:56  -889.703304  -3.45  -2.40    +66.8938
iter:  25 06:56:49  -889.901786  -3.31  -2.46    +67.2050
iter:  26 06:57:41  -889.720934  -3.46  -2.41    +67.3971
iter:  27 06:58:34  -889.864350  -3.46  -2.52    +67.5245
iter:  28 06:59:27  -889.716103  -3.66  -2.46    +67.3644
iter:  29 07:00:19  -889.719945  -3.73  -2.57    +67.5342
iter:  30 07:01:13  -889.678834c -4.06  -2.58    +67.5991
iter:  31 07:02:06  -889.725236c -4.08  -2.64    +67.6111
iter:  32 07:02:59  -889.723269c -4.14  -2.64    +67.5341
iter:  33 07:03:52  -889.770209c -3.90  -2.67    +67.4922
iter:  34 07:04:44  -889.780806c -4.01  -2.64    +67.5945
iter:  35 07:05:37  -889.829355c -3.79  -2.67    +67.5313
iter:  36 07:06:29  -889.799210c -3.95  -2.64    +67.4624
iter:  37 07:07:22  -889.782984c -3.97  -2.69    +67.3816
iter:  38 07:08:16  -889.754481c -4.18  -2.72    +67.4301
iter:  39 07:09:08  -889.754946c -4.46  -2.78    +67.4548
iter:  40 07:10:02  -889.748801c -4.73  -2.80    +67.3475
iter:  41 07:10:55  -889.765246c -4.53  -2.84    +67.3141
iter:  42 07:11:48  -889.773195c -4.51  -2.82    +67.2904
iter:  43 07:12:41  -889.808981c -4.33  -2.84    +67.2795
iter:  44 07:13:31  -889.817967c -4.09  -2.83    +67.2060
iter:  45 07:14:21  -889.827804c -4.08  -2.79    +67.1232
iter:  46 07:15:15  -889.802213c -4.18  -2.80    +67.1878
iter:  47 07:16:09  -889.794795c -4.35  -2.87    +67.1640
iter:  48 07:17:03  -889.779420c -4.65  -2.91    +67.1214
iter:  49 07:17:56  -889.774605c -5.07  -2.97    +67.0441
iter:  50 07:18:49  -889.781875c -4.88  -3.02    +67.0267
iter:  51 07:19:43  -889.789082c -5.04  -3.01    +67.0013
iter:  52 07:20:36  -889.802834c -4.52  -3.02    +66.9417
iter:  53 07:21:30  -889.823351c -4.36  -2.97    +66.9253
iter:  54 07:22:22  -889.825462c -4.24  -2.95    +66.9060
iter:  55 07:23:16  -889.806658c -4.45  -2.94    +66.9172
iter:  56 07:24:08  -889.800732c -4.50  -3.09    +66.8674
iter:  57 07:25:01  -889.788030c -5.02  -3.07    +66.8338
iter:  58 07:25:53  -889.785323c -5.23  -3.23    +66.8236
iter:  59 07:26:47  -889.786342c -5.99  -3.28    +66.8060
iter:  60 07:27:41  -889.793651c -5.23  -3.32    +66.7820
iter:  61 07:28:35  -889.794303c -5.01  -3.25    +66.7597
iter:  62 07:29:28  -889.808363c -4.75  -3.25    +66.7499
iter:  63 07:30:21  -889.794919c -4.90  -3.21    +66.7573
iter:  64 07:31:14  -889.801747c -4.84  -3.36    +66.7205
iter:  65 07:32:08  -889.791289c -5.21  -3.24    +66.7175
iter:  66 07:33:00  -889.790311c -5.65  -3.52    +66.6971
iter:  67 07:33:54  -889.790267c -6.16  -3.60    +66.6953
iter:  68 07:34:48  -889.790686c -6.66  -3.70    +66.6735
iter:  69 07:35:42  -889.793087c -5.81  -3.72    +66.6202
iter:  70 07:36:36  -889.791625c -6.05  -3.66    +66.6366
iter:  71 07:37:28  -889.794337c -5.81  -3.89    +66.6205
iter:  72 07:38:21  -889.792289c -6.07  -3.74    +66.6139
iter:  73 07:39:15  -889.792512c -6.52  -4.31c   +66.5982
iter:  74 07:40:09  -889.792743c -6.96  -4.25c   +66.5957
iter:  75 07:41:01  -889.792959c -6.99  -4.52c   +66.5819
iter:  76 07:41:55  -889.793317c -6.92  -4.54c   +66.5631
iter:  77 07:42:50  -889.793887c -6.58  -4.55c   +66.5311
iter:  78 07:43:44  -889.796090c -5.40  -4.43c   +66.3952
iter:  79 07:44:38  -889.796349c -6.30  -4.09c   +66.3878
iter:  80 07:45:30  -889.796464c -6.77  -4.06c   +66.3839
iter:  81 07:46:23  -889.796541c -7.02  -4.07c   +66.3770
iter:  82 07:47:16  -889.796481c -7.02  -4.06c   +66.3716
iter:  83 07:48:09  -889.796358c -6.76  -4.02c   +66.3728
iter:  84 07:49:03  -889.796537c -6.37  -3.92    +66.3707
iter:  85 07:49:57  -889.796451c -6.30  -3.79    +66.3711
iter:  86 07:50:49  -889.797059c -5.92  -3.86    +66.3761
iter:  87 07:51:43  -889.797589c -5.86  -3.78    +66.3707
iter:  88 07:52:38  -889.796425c -6.18  -3.80    +66.3528
iter:  89 07:53:32  -889.795921c -6.59  -4.05c   +66.3549
iter:  90 07:54:26  -889.796304c -6.67  -4.08c   +66.3574
iter:  91 07:55:20  -889.796086c -6.94  -4.12c   +66.3533
iter:  92 07:56:12  -889.796024c -7.19  -4.22c   +66.3503
iter:  93 07:57:05  -889.796041c -7.13  -4.26c   +66.3518
iter:  94 07:57:58  -889.796432c -6.60  -4.33c   +66.3518
iter:  95 07:58:53  -889.796173c -6.70  -4.12c   +66.3487
iter:  96 07:59:46  -889.795918c -7.04  -4.30c   +66.3453
iter:  97 08:00:40  -889.796151c -6.95  -4.38c   +66.3485
iter:  98 08:01:33  -889.796182c -7.02  -4.33c   +66.3488
iter:  99 08:02:25  -889.796037c -7.46c -4.37c   +66.3451

Converged after 99 iterations.

Dipole moment: (7.024017, -1.366189, 1.052863) |e|*Ang

Total magnetic moment: (0.000000, 0.000000, 66.345122)
Local magnetic moments:
   0 Co ( 0.000000,  0.000000,  1.278868)
   1 Co ( 0.000000,  0.000000,  0.948258)
   2 Fe ( 0.000000,  0.000000,  1.947479)
   3 Fe ( 0.000000,  0.000000,  1.670160)
   4 Cr ( 0.000000,  0.000000,  0.613351)
   5 Cr ( 0.000000,  0.000000, -1.174703)
   6 Co ( 0.000000,  0.000000,  0.747974)
   7 Cr ( 0.000000,  0.000000, -1.360891)
   8 Fe ( 0.000000,  0.000000,  2.298423)
   9 Ni ( 0.000000,  0.000000,  0.443676)
  10 Ni ( 0.000000,  0.000000,  0.534440)
  11 Co ( 0.000000,  0.000000,  1.554129)
  12 Cr ( 0.000000,  0.000000, -0.468748)
  13 Fe ( 0.000000,  0.000000,  1.722825)
  14 Cr ( 0.000000,  0.000000, -0.763443)
  15 Fe ( 0.000000,  0.000000,  1.589410)
  16 Ni ( 0.000000,  0.000000,  0.109798)
  17 Co ( 0.000000,  0.000000,  1.088272)
  18 Ni ( 0.000000,  0.000000,  0.308470)
  19 Cr ( 0.000000,  0.000000, -1.736876)
  20 Co ( 0.000000,  0.000000,  1.238072)
  21 Ni ( 0.000000,  0.000000,  0.268475)
  22 Co ( 0.000000,  0.000000,  1.234317)
  23 Cr ( 0.000000,  0.000000, -1.136747)
  24 Fe ( 0.000000,  0.000000,  1.709405)
  25 Co ( 0.000000,  0.000000,  1.167427)
  26 Cr ( 0.000000,  0.000000, -1.102234)
  27 Cr ( 0.000000,  0.000000, -0.939969)
  28 Fe ( 0.000000,  0.000000,  1.739575)
  29 Cr ( 0.000000,  0.000000, -1.270319)
  30 Co ( 0.000000,  0.000000,  1.205158)
  31 Co ( 0.000000,  0.000000,  0.690384)
  32 Cr ( 0.000000,  0.000000,  0.950271)
  33 Ni ( 0.000000,  0.000000,  0.399595)
  34 Ni ( 0.000000,  0.000000,  0.274934)
  35 Cr ( 0.000000,  0.000000, -1.622930)
  36 Fe ( 0.000000,  0.000000,  2.336815)
  37 Ni ( 0.000000,  0.000000,  0.260740)
  38 Cr ( 0.000000,  0.000000, -0.987985)
  39 Fe ( 0.000000,  0.000000,  1.658119)
  40 Fe ( 0.000000,  0.000000,  2.083491)
  41 Co ( 0.000000,  0.000000,  0.490140)
  42 Cr ( 0.000000,  0.000000, -1.416740)
  43 Fe ( 0.000000,  0.000000,  2.113180)
  44 Fe ( 0.000000,  0.000000,  2.485643)
  45 Fe ( 0.000000,  0.000000,  2.238865)
  46 Ni ( 0.000000,  0.000000,  0.478984)
  47 Co ( 0.000000,  0.000000,  1.498589)
  48 Cr ( 0.000000,  0.000000, -1.395139)
  49 Ni ( 0.000000,  0.000000,  0.182390)
  50 Fe ( 0.000000,  0.000000,  1.941903)
  51 Co ( 0.000000,  0.000000,  1.098095)
  52 Co ( 0.000000,  0.000000,  1.040955)
  53 Fe ( 0.000000,  0.000000,  2.218975)
  54 Fe ( 0.000000,  0.000000,  2.103534)
  55 Ni ( 0.000000,  0.000000,  0.518515)
  56 Ni ( 0.000000,  0.000000,  0.483682)
  57 Fe ( 0.000000,  0.000000,  2.240229)
  58 Co ( 0.000000,  0.000000,  1.169504)
  59 Ni ( 0.000000,  0.000000,  0.360661)
  60 Ni ( 0.000000,  0.000000,  0.337691)
  61 Fe ( 0.000000,  0.000000,  1.981678)
  62 Fe ( 0.000000,  0.000000,  2.428697)
  63 Ni ( 0.000000,  0.000000,  0.296461)
  64 Fe ( 0.000000,  0.000000,  2.211863)
  65 Ni ( 0.000000,  0.000000,  0.300262)
  66 Co ( 0.000000,  0.000000,  1.553126)
  67 Ni ( 0.000000,  0.000000,  0.383821)
  68 Fe ( 0.000000,  0.000000,  2.461622)
  69 Co ( 0.000000,  0.000000,  1.152402)
  70 Cr ( 0.000000,  0.000000, -0.884321)
  71 Ni ( 0.000000,  0.000000,  0.438212)
  72 Co ( 0.000000,  0.000000,  1.018007)
  73 Co ( 0.000000,  0.000000,  0.986700)
  74 Fe ( 0.000000,  0.000000,  1.527668)
  75 Cr ( 0.000000,  0.000000,  0.141489)
  76 Cr ( 0.000000,  0.000000,  0.536560)
  77 Co ( 0.000000,  0.000000,  0.124823)
  78 Fe ( 0.000000,  0.000000,  1.852412)
  79 Cr ( 0.000000,  0.000000, -1.416486)
  80 Ni ( 0.000000,  0.000000,  0.303972)
  81 Fe ( 0.000000,  0.000000,  2.214308)
  82 Co ( 0.000000,  0.000000,  1.214537)
  83 Ni ( 0.000000,  0.000000,  0.457856)
  84 Cr ( 0.000000,  0.000000, -0.921750)
  85 Co ( 0.000000,  0.000000,  0.329549)
  86 Cr ( 0.000000,  0.000000,  0.222757)
  87 Ni ( 0.000000,  0.000000,  0.274398)
  88 Cr ( 0.000000,  0.000000, -1.344209)
  89 Fe ( 0.000000,  0.000000,  1.905827)
  90 Ni ( 0.000000,  0.000000,  0.154493)
  91 Co ( 0.000000,  0.000000,  1.349781)
  92 Ni ( 0.000000,  0.000000,  0.341356)
  93 Ni ( 0.000000,  0.000000,  0.198516)
  94 Ni ( 0.000000,  0.000000,  0.139483)
  95 Cr ( 0.000000,  0.000000, -1.230212)
  96 Ni ( 0.000000,  0.000000,  0.182391)
  97 Co ( 0.000000,  0.000000,  0.661844)
  98 Fe ( 0.000000,  0.000000,  1.763524)
  99 Cr ( 0.000000,  0.000000, -1.274251)
 100 Co ( 0.000000,  0.000000,  1.183391)
 101 Cr ( 0.000000,  0.000000, -1.028053)
 102 Fe ( 0.000000,  0.000000,  2.098942)
 103 Co ( 0.000000,  0.000000,  1.174624)
 104 Ni ( 0.000000,  0.000000,  0.230408)
 105 Co ( 0.000000,  0.000000,  0.941050)
 106 Cr ( 0.000000,  0.000000,  1.115768)
 107 Cr ( 0.000000,  0.000000, -1.396607)

Energy contributions relative to reference atoms: (reference = -3846758.590871)

Kinetic:       +122.224985
Potential:     -189.056912
External:        +0.000000
XC:            -860.626742
Entropy (-ST):   -4.705230
Local:          +40.015248
--------------------------
Free energy:   -892.148653
Extrapolated:  -889.796037

Spin contamination: 29.599054 electrons
Showing only first 2 kpts
                      Up                     Down
 Kpt  Band  Eigenvalues  Occupancy  Eigenvalues  Occupancy
  0   524      9.82056    0.99464     10.70711    0.02552
  0   525      9.83902    0.99356     10.71778    0.02300
  0   526      9.84416    0.99322     10.73153    0.02010
  0   527      9.85549    0.99241     10.74105    0.01831

  1   524      9.81637    0.99486     10.70687    0.02558
  1   525      9.82409    0.99445     10.71562    0.02349
  1   526      9.83797    0.99363     10.72628    0.02117
  1   527      9.84617    0.99308     10.74701    0.01727


Fermi level: 10.34288

No gap

Forces in eV/Ang:
  0 Co    0.10250   -0.14540   -0.09349
  1 Co   -0.10806    0.31836    0.01316
  2 Fe   -0.13722   -0.07318   -0.10194
  3 Fe    0.00402    0.12359    0.07591
  4 Cr    0.06229   -0.08201   -0.12956
  5 Cr    0.09385   -0.29187    0.30154
  6 Co   -0.03662    0.00464   -0.06906
  7 Cr   -0.08262   -0.01279   -0.19139
  8 Fe   -0.31141   -0.36453    0.18971
  9 Ni    0.01572    0.10482   -0.09020
 10 Ni   -0.06426    0.03755   -0.07310
 11 Co    0.26485   -0.02035    0.18705
 12 Cr    0.00975   -0.07668   -0.23422
 13 Fe    0.06593   -0.11570    0.06241
 14 Cr    0.19943    0.44849   -0.25517
 15 Fe    0.03462   -0.09937    0.22917
 16 Ni   -0.18511   -0.19635   -0.00020
 17 Co   -0.06074   -0.08604    0.08636
 18 Ni   -0.04707   -0.13449   -0.13004
 19 Cr    0.00610    0.06581    0.33077
 20 Co   -0.01648    0.08860    0.04397
 21 Ni    0.24514   -0.00550   -0.12237
 22 Co    0.14018   -0.24916   -0.29165
 23 Cr   -0.02694    0.17288   -0.01709
 24 Fe    0.12787    0.13310    0.11349
 25 Co    0.12848   -0.09163   -0.10637
 26 Cr   -0.12074   -0.47220   -0.13852
 27 Cr   -0.68923    0.30654   -0.05756
 28 Fe    0.06369    0.38571    0.39510
 29 Cr    0.58912    0.30233   -0.15817
 30 Co   -0.17040    0.02513   -0.16982
 31 Co   -0.34202   -0.13445    0.33393
 32 Cr    0.01949    0.17061    0.33434
 33 Ni   -0.14673    0.02875   -0.06800
 34 Ni   -0.01362    0.15432   -0.18764
 35 Cr    0.26014   -0.27558   -0.00029
 36 Fe   -0.14605    0.03763   -0.03499
 37 Ni    0.01298    0.06238    0.03777
 38 Cr    0.21491    0.41565    0.02544
 39 Fe    0.02826    0.36471    0.10432
 40 Fe    0.02273   -0.40801    0.01826
 41 Co   -0.03493    0.04110   -0.01600
 42 Cr   -0.31792   -0.11470   -0.05439
 43 Fe   -0.17261    0.26659   -0.19592
 44 Fe    0.07119   -0.24619   -0.04534
 45 Fe    0.18164    0.24068    0.37325
 46 Ni    0.03463   -0.17611   -0.00891
 47 Co    0.15737    0.15419   -0.10879
 48 Cr   -0.13518   -0.05786   -0.07543
 49 Ni   -0.05087   -0.06375   -0.06537
 50 Fe   -0.11323   -0.28493    0.01479
 51 Co   -0.02751   -0.13367   -0.12080
 52 Co   -0.14925   -0.02060   -0.31525
 53 Fe    0.13270   -0.06336    0.16965
 54 Fe   -0.28862   -0.15950    0.24123
 55 Ni   -0.08146    0.07867   -0.10873
 56 Ni    0.04401   -0.03458    0.10578
 57 Fe    0.12408   -0.10104    0.15405
 58 Co    0.01991    0.02729    0.09800
 59 Ni    0.08197    0.05392    0.11047
 60 Ni    0.07146   -0.00433    0.16660
 61 Fe   -0.05203   -0.07129    0.28723
 62 Fe   -0.15379   -0.01323   -0.03881
 63 Ni    0.07577   -0.08179   -0.13031
 64 Fe    0.22792    0.17308   -0.58013
 65 Ni   -0.05536    0.09408    0.00521
 66 Co    0.04114    0.07554    0.14341
 67 Ni   -0.05298   -0.12798    0.00845
 68 Fe   -0.12645    0.15401   -0.05399
 69 Co    0.05719   -0.13424    0.07590
 70 Cr    0.01402   -0.00757   -0.00509
 71 Ni    0.04211    0.02069    0.05481
 72 Co    0.21553   -0.13409    0.12883
 73 Co   -0.19154    0.01737   -0.04462
 74 Fe   -0.35248    0.07677   -0.11557
 75 Cr   -0.18775   -0.04790    0.03101
 76 Cr   -0.00270    0.30406    0.19709
 77 Co    0.08446   -0.09563   -0.02362
 78 Fe    0.06304   -0.17966   -0.25358
 79 Cr   -0.22800   -0.13871    0.26526
 80 Ni   -0.17165   -0.18205    0.09760
 81 Fe    0.22584    0.33230   -0.11478
 82 Co    0.17642   -0.22895    0.04541
 83 Ni    0.10800    0.03212   -0.14953
 84 Cr    0.36449   -0.17363    0.03437
 85 Co    0.02414   -0.11412    0.04887
 86 Cr    0.11998   -0.19850    0.21494
 87 Ni   -0.23753   -0.25287   -0.02767
 88 Cr   -0.13652   -0.00149    0.06769
 89 Fe    0.02035    0.07156   -0.19165
 90 Ni   -0.10949   -0.07995   -0.02735
 91 Co   -0.10711   -0.16699   -0.15634
 92 Ni   -0.03800    0.02271   -0.13928
 93 Ni    0.05499   -0.22558   -0.03276
 94 Ni    0.14053    0.16537    0.10885
 95 Cr    0.07841    0.15345    0.04385
 96 Ni   -0.34375    0.01889    0.02702
 97 Co    0.25365    0.11398   -0.10240
 98 Fe   -0.29042    0.24094   -0.04925
 99 Cr   -0.15760    0.17861    0.18633
100 Co    0.15372    0.35043    0.19961
101 Cr    0.69941   -0.21119    0.21181
102 Fe    0.14215    0.18218   -0.21586
103 Co   -0.12083    0.10678   -0.20584
104 Ni    0.30626    0.18206    0.13301
105 Co   -0.11405    0.04391   -0.25763
106 Cr   -0.03696   -0.10713   -0.45918
107 Cr    0.02328    0.04954    0.27696

Timing:                              incl.     excl.
-----------------------------------------------------------
Forces:                             11.036    11.036   0.2% |
Hamiltonian:                         0.484     0.004   0.0% |
 Atomic:                             0.142     0.073   0.0% |
  XC Correction:                     0.070     0.070   0.0% |
 Calculate atomic Hamiltonians:      0.262     0.262   0.0% |
 Communicate:                        0.003     0.003   0.0% |
 Initialize Hamiltonian:             0.000     0.000   0.0% |
 Poisson:                            0.000     0.000   0.0% |
 XC 3D grid:                         0.073     0.073   0.0% |
LCAO initialization:                63.137     0.655   0.0% |
 LCAO eigensolver:                   6.378     0.006   0.0% |
  Calculate projections:             0.183     0.183   0.0% |
  DenseAtomicCorrection:             0.202     0.202   0.0% |
  Distribute overlap matrix:         0.723     0.723   0.0% |
  Orbital Layouts:                   2.988     2.988   0.1% |
  Potential matrix:                  1.646     1.646   0.0% |
  Sum over cells:                    0.630     0.630   0.0% |
 LCAO to grid:                      54.727    54.727   1.0% |
 Set positions (LCAO WFS):           1.378     0.681   0.0% |
  Basic WFS set positions:           0.003     0.003   0.0% |
  Basis functions set positions:     0.001     0.001   0.0% |
  P tci:                             0.261     0.261   0.0% |
  ST tci:                            0.156     0.156   0.0% |
  mktci:                             0.277     0.277   0.0% |
PWDescriptor:                        0.043     0.043   0.0% |
SCF-cycle:                        5266.389     6.524   0.1% |
 Davidson:                        5133.628  1338.527  25.0% |---------|
  Apply H:                          49.377    47.674   0.9% |
   HMM T:                            1.703     1.703   0.0% |
  Subspace diag:                   477.111     0.037   0.0% |
   calc_h_matrix:                  165.638   109.732   2.1% ||
    Apply H:                        55.907    54.500   1.0% |
     HMM T:                          1.406     1.406   0.0% |
   diagonalize:                     87.175    87.175   1.6% ||
   rotate_psi:                     224.260   224.260   4.2% |-|
  calc. matrices:                  895.461   817.010  15.3% |-----|
   Apply H:                         78.451    75.571   1.4% ||
    HMM T:                           2.879     2.879   0.1% |
  diagonalize:                    1934.923  1934.923  36.2% |-------------|
  rotate_psi:                      438.229   438.229   8.2% |--|
 Density:                           61.712     0.002   0.0% |
  Atomic density matrices:           1.404     1.404   0.0% |
  Mix:                              29.991    29.991   0.6% |
  Multipole moments:                 0.027     0.027   0.0% |
  Pseudo density:                   30.287    30.281   0.6% |
   Symmetrize density:               0.006     0.006   0.0% |
 Hamiltonian:                       58.480     1.567   0.0% |
  Atomic:                           17.626    10.671   0.2% |
   XC Correction:                    6.955     6.955   0.1% |
  Calculate atomic Hamiltonians:    19.923    19.923   0.4% |
  Communicate:                       4.104     4.104   0.1% |
  Poisson:                           0.041     0.041   0.0% |
  XC 3D grid:                       15.219    15.219   0.3% |
 Orthonormalize:                     6.047     0.001   0.0% |
  calc_s_matrix:                     1.348     1.348   0.0% |
  inverse-cholesky:                  0.475     0.475   0.0% |
  projections:                       3.140     3.140   0.1% |
  rotate_psi_s:                      1.083     1.083   0.0% |
Set symmetry:                        0.001     0.001   0.0% |
Other:                               2.583     2.583   0.0% |
-----------------------------------------------------------
Total:                                      5343.675 100.0%

Date: Sat Apr  8 08:02:37 2023
