
  ___ ___ ___ _ _ _  
 |   |   |_  | | | | 
 | | | | | . | | | | 
 |__ |  _|___|_____|  22.8.0
 |___|_|             

User:   c.zeng@d0066
Date:   Fri Apr 14 04:23:08 2023
Arch:   x86_64
Pid:    65632
CWD:    /home/c.zeng/projects/hea-corrosion/hea-mlp/data-curation/bulk-md/dft-jobs/99
Python: 3.8.1
gpaw:   /home/c.zeng/usr/installs/gpaw/source/gpaw-22.8.0/gpaw
_gpaw:  /home/c.zeng/usr/installs/gpaw/source/gpaw-22.8.0/
        _gpaw.cpython-38-x86_64-linux-gnu.so
ase:    /home/c.zeng/.local/lib/python3.8/site-packages/ase-3.22.1-py3.8.egg/ase (version 3.22.1)
numpy:  /shared/centos7/python/3.8.1/lib/python3.8/site-packages/numpy (version 1.17.4)
scipy:  /shared/centos7/python/3.8.1/lib/python3.8/site-packages/scipy (version 1.4.1)
libxc:  4.2.3
units:  Angstrom and eV
cores: 30
OpenMP: False
OMP_NUM_THREADS: 1

Input parameters:
  convergence: {energy: 0.0001}
  kpts: [2 2 2]
  maxiter: 666
  mode: {ecut: 350.0,
         name: pw}
  occupations: {fixmagmom: False,
                name: fermi-dirac,
                width: 0.1}
  spinpol: True
  xc: PBE

System changes: positions, numbers, cell, pbc, initial_charges, initial_magmoms 

Initialize ...

species:
  Al:
    name: Aluminium
    id: 0292cae29f5d6237e50f6abdd43a7bdd
    Z: 13.0
    valence: 3
    core: 10
    charge: 0.0
    file: /home/c.zeng/usr/data/gpaw-setups-0.9.20000/Al.PBE.gz
    compensation charges: {type: gauss,
                           rc: 0.34,
                           lmax: 2}
    cutoffs: {filter: 1.91,
              core: 2.36}
    valence states:
      #              energy  rcut
      - 3s(2.00)    -7.753   1.085
      - 3p(1.00)    -2.712   1.085
      -  s          19.459   1.085
      -  p          24.499   1.085
      -  d           0.000   1.085
  
    # Using partial waves for Al as LCAO basis

  Fe:
    name: Iron
    id: 37abbd8d6c3c35915a9b583b742da910
    Z: 26.0
    valence: 8
    core: 18
    charge: 0.0
    file: /home/c.zeng/usr/data/gpaw-setups-0.9.20000/Fe.PBE.gz
    compensation charges: {type: gauss,
                           rc: 0.33,
                           lmax: 2}
    cutoffs: {filter: 2.06,
              core: 2.67}
    valence states:
      #              energy  rcut
      - 4s(2.00)    -5.291   1.164
      - 4p(0.00)    -1.326   1.058
      - 3d(6.00)    -7.505   1.058
      -  s          21.920   1.164
      -  p          25.885   1.058
      -  d          19.706   1.058
  
    # Using partial waves for Fe as LCAO basis

  Cr:
    name: Chromium
    id: 33f258bda2ca9f93018e70263a35547b
    Z: 24.0
    valence: 6
    core: 18
    charge: 0.0
    file: /home/c.zeng/usr/data/gpaw-setups-0.9.20000/Cr.PBE.gz
    compensation charges: {type: gauss,
                           rc: 0.35,
                           lmax: 2}
    cutoffs: {filter: 2.14,
              core: 3.04}
    valence states:
      #              energy  rcut
      - 4s(1.00)    -4.007   1.164
      - 4p(0.00)    -0.989   1.217
      - 3d(5.00)    -2.913   1.111
      -  s          23.205   1.164
      -  p          26.223   1.217
      -  d          24.299   1.111
  
    # Using partial waves for Cr as LCAO basis

  Ni:
    name: Nickel
    id: 0d9f38a9d6e76a2886f07bb4381f212b
    Z: 28.0
    valence: 16
    core: 12
    charge: 0.0
    file: /home/c.zeng/usr/data/gpaw-setups-0.9.20000/Ni.PBE.gz
    compensation charges: {type: gauss,
                           rc: 0.36,
                           lmax: 2}
    cutoffs: {filter: 2.14,
              core: 1.98}
    valence states:
      #              energy  rcut
      - 4s(2.00)    -5.642   1.164
      - 3p(6.00)   -71.394   1.207
      - 4p(0.00)    -1.226   1.207
      - 3d(8.00)    -8.875   1.138
      -  s          21.570   1.164
      -  d          18.337   1.138
  
    # Using partial waves for Ni as LCAO basis

  Co:
    name: Cobalt
    id: 339d20d5b0b93d2de9531a1bee871d91
    Z: 27.0
    valence: 9
    core: 18
    charge: 0.0
    file: /home/c.zeng/usr/data/gpaw-setups-0.9.20000/Co.PBE.gz
    compensation charges: {type: gauss,
                           rc: 0.32,
                           lmax: 2}
    cutoffs: {filter: 1.87,
              core: 2.55}
    valence states:
      #              energy  rcut
      - 4s(2.00)    -5.469   1.005
      - 4p(0.00)    -1.277   1.058
      - 3d(7.00)    -8.205   1.005
      -  s          21.742   1.005
      -  p          25.934   1.058
      -  d          19.007   1.005
  
    # Using partial waves for Co as LCAO basis

Reference energy: -3235165.067515  # eV

Spin-polarized calculation.
Magnetic moment: 121.100000

Convergence criteria:
 Maximum [total energy] change in last 3 cyles: 0.0001 eV / electron
 Maximum integral of absolute [dens]ity change: 0.0001 electrons / valence electron
 Maximum integral of absolute [eigenst]ate change: 4e-08 eV^2 / valence electron
 Maximum number of scf [iter]ations: 666
 (Square brackets indicate name in SCF output, whereas a 'c' in
 the SCF output indicates the quantity has converged.)

Symmetries present (total): 1

  ( 1  0  0)
  ( 0  1  0)
  ( 0  0  1)

8 k-points: 2 x 2 x 2 Monkhorst-Pack grid
4 k-points in the irreducible part of the Brillouin zone
       k-points in crystal coordinates                weights
   0:     0.25000000   -0.25000000   -0.25000000          2/8
   1:     0.25000000   -0.25000000    0.25000000          2/8
   2:     0.25000000    0.25000000   -0.25000000          2/8
   3:     0.25000000    0.25000000    0.25000000          2/8

Wave functions: Plane wave expansion
  Cutoff energy: 350.000 eV
  Number of coefficients (min, max): 19084, 19084
  Pulay-stress correction: 0.000000 eV/Ang^3 (de/decut=0.000000)
  Using FFTW library
  ScaLapack parameters: grid=1x1, blocksize=None
  Wavefunction extrapolation:
    Improved wavefunction reuse through dual PAW basis 

Occupation numbers: Fermi-Dirac:
  width: 0.1000  # eV
 

Eigensolver
   Davidson(niter=2) 

Densities:
  Coarse grid: 48*48*48 grid
  Fine grid: 96*96*96 grid
  Total Charge: 0.000000 

Density mixing:
  Method: difference
  Backend: pulay
  Linear mixing parameter: 0.05
  old densities: 5
  Damping of long wavelength oscillations: 50 

Hamiltonian:
  XC and Coulomb potentials evaluated on a 96*96*96 grid
  Using the PBE Exchange-Correlation functional
  External potential:
    NoExternalPotential
 

XC parameters: PBE with 2 nearest neighbor stencil

Memory estimate:
  Process memory now: 248.34 MiB
  Calculator: 986.43 MiB
    Density: 5.59 MiB
      Arrays: 2.05 MiB
      Localized functions: 2.72 MiB
      Mixer: 0.82 MiB
    Hamiltonian: 1.61 MiB
      Arrays: 1.52 MiB
      XC: 0.00 MiB
      Poisson: 0.00 MiB
      vbar: 0.08 MiB
    Wavefunctions: 979.23 MiB
      Arrays psit_nG: 726.83 MiB
      Eigensolver: 242.60 MiB
      Projections: 4.67 MiB
      Projectors: 0.74 MiB
      PW-descriptor: 4.39 MiB

Total number of cores used: 30
Parallelization over k-points: 2
Domain decomposition: 5 x 3 x 1

Number of atoms: 108
Number of atomic orbitals: 933
Number of bands in calculation: 624
Number of valence electrons: 912
Bands to converge: occupied

... initialized

Initializing position-dependent things.

Density initialized from atomic densities
Creating initial wave functions:
  624 bands from LCAO basis set

        .-----------------Fe-------.  
       /|  Cr                      |  
      / |   Cr Fe     CoCo   Ni    |  
     /  |       Co       Ni       Al  
    /   Co                Fe       |  
   /    | FeoFe  CoAl       AlFe   |  
  /    Cr     Ale    FCo Fe  Cr Cr |  
 Al   ACr               CoNi  Cr   |  
 |     CrAl Al  NCoiFe   NiFeAl    |  
 |  Cr  |  FeCr    CoCrNi   Fe     |  
 |  Fe Co  FeNi Cr  Cr CFe    Cr   |  
 |     Al    CrAlNi  Al NNiCo  NCo |  
 |     AlCo Al Ni CoCo   CrCr      |  
 |Co  Cr.-NiCo-----NiAl-----FeFe---.  
 |   CNi        Cr  Ni CNi        /   
 |   Ni Cr   Al  Fe       Al     /    
 |   /    Al      FeAl      Fe  /     
 | Fe      Al       Co         /      
 | /                  Cr      /       
 |/             Ni           /        
 *--------Ni----------------*         

Positions:
   0 Al    10.897788    0.147098   -0.050537    ( 0.0000,  0.0000,  0.0000)
   1 Fe    11.131606    1.890294    1.856335    ( 0.0000,  0.0000,  2.0000)
   2 Cr     2.098179   10.811768    1.639287    ( 0.0000,  0.0000,  0.0000)
   3 Cr     1.905224    1.705641   -0.128432    ( 0.0000,  0.0000,  0.0000)
   4 Ni     3.804735   10.925432   10.911070    ( 0.0000,  0.0000,  1.5000)
   5 Al     3.492111    1.988344    1.574014    ( 0.0000,  0.0000,  0.0000)
   6 Al     5.345657   10.811515    1.765364    ( 0.0000,  0.0000,  0.0000)
   7 Ni     5.466424    2.064937   10.896475    ( 0.0000,  0.0000,  1.5000)
   8 Fe     7.130320   -0.105578   10.854100    ( 0.0000,  0.0000,  2.0000)
   9 Co     7.212008    2.064792    1.595294    ( 0.0000,  0.0000,  2.1000)
  10 Ni     9.311963   -0.091838    1.582555    ( 0.0000,  0.0000,  1.5000)
  11 Fe     8.972575    1.961571   10.860792    ( 0.0000,  0.0000,  2.0000)
  12 Fe    10.743545    3.634813   -0.129064    ( 0.0000,  0.0000,  2.0000)
  13 Co    10.946968    5.254821    2.075260    ( 0.0000,  0.0000,  2.1000)
  14 Cr     1.903879    3.823190    2.076153    ( 0.0000,  0.0000,  0.0000)
  15 Co     1.617429    5.263659   10.676330    ( 0.0000,  0.0000,  2.1000)
  16 Fe     3.777999    3.672993   -0.034707    ( 0.0000,  0.0000,  2.0000)
  17 Al     3.298073    5.559586    1.426251    ( 0.0000,  0.0000,  0.0000)
  18 Fe     5.239854    3.890390    1.849781    ( 0.0000,  0.0000,  2.0000)
  19 Fe     5.423036    5.684569    0.158974    ( 0.0000,  0.0000,  2.0000)
  20 Cr     7.324158    3.712812   10.878093    ( 0.0000,  0.0000,  0.0000)
  21 Co     7.585632    5.526107    1.845131    ( 0.0000,  0.0000,  2.1000)
  22 Al     9.280763    3.747308    1.906478    ( 0.0000,  0.0000,  0.0000)
  23 Fe     8.846793    5.340708   -0.194383    ( 0.0000,  0.0000,  2.0000)
  24 Ni    10.916584    6.818876    0.279803    ( 0.0000,  0.0000,  1.5000)
  25 Al     0.025099    8.766516    1.844042    ( 0.0000,  0.0000,  0.0000)
  26 Ni     1.867431    7.260355    1.808730    ( 0.0000,  0.0000,  1.5000)
  27 Cr     1.567110    8.848036   10.827543    ( 0.0000,  0.0000,  0.0000)
  28 Fe     3.628579    7.461881   -0.084141    ( 0.0000,  0.0000,  2.0000)
  29 Ni     3.530720    8.887375    1.698521    ( 0.0000,  0.0000,  1.5000)
  30 Ni     5.363735    7.178202    1.972923    ( 0.0000,  0.0000,  1.5000)
  31 Ni     5.510291    9.006570   11.044855    ( 0.0000,  0.0000,  1.5000)
  32 Co     7.283331    7.260401   -0.026854    ( 0.0000,  0.0000,  2.1000)
  33 Cr     7.468405    9.078483    1.736768    ( 0.0000,  0.0000,  0.0000)
  34 Fe     9.112512    7.336465    1.684265    ( 0.0000,  0.0000,  2.0000)
  35 Ni     8.967773    8.928962   -0.285965    ( 0.0000,  0.0000,  1.5000)
  36 Fe    -0.117464    0.212936    3.578563    ( 0.0000,  0.0000,  2.0000)
  37 Co    11.074273    1.488477    5.405607    ( 0.0000,  0.0000,  2.1000)
  38 Cr     1.908474   10.878131    5.503780    ( 0.0000,  0.0000,  0.0000)
  39 Ni     1.677692    1.869834    3.702634    ( 0.0000,  0.0000,  1.5000)
  40 Al     3.648749   10.896643    3.707031    ( 0.0000,  0.0000,  0.0000)
  41 Al     3.835713    1.776615    5.787142    ( 0.0000,  0.0000,  0.0000)
  42 Cr     5.823925   10.986106    5.130183    ( 0.0000,  0.0000,  0.0000)
  43 Al     5.461175    1.877402    3.663483    ( 0.0000,  0.0000,  0.0000)
  44 Al     7.474822   11.126456    3.371809    ( 0.0000,  0.0000,  0.0000)
  45 Co     7.322217    1.919963    5.340330    ( 0.0000,  0.0000,  2.1000)
  46 Cr     8.913258   -0.034982    5.394206    ( 0.0000,  0.0000,  0.0000)
  47 Ni     8.949315    1.866028    3.705074    ( 0.0000,  0.0000,  1.5000)
  48 Fe    -0.243332    3.574391    3.854626    ( 0.0000,  0.0000,  2.0000)
  49 Fe    10.893440    5.324847    5.466207    ( 0.0000,  0.0000,  2.0000)
  50 Al     1.674132    3.594018    5.440666    ( 0.0000,  0.0000,  0.0000)
  51 Co     1.642388    5.707812    3.771760    ( 0.0000,  0.0000,  2.1000)
  52 Co     3.607457    3.502852    3.607724    ( 0.0000,  0.0000,  2.1000)
  53 Ni     3.516967    5.407817    5.435634    ( 0.0000,  0.0000,  1.5000)
  54 Ni     5.434784    3.498379    5.492769    ( 0.0000,  0.0000,  1.5000)
  55 Co     5.455821    5.376138    4.043559    ( 0.0000,  0.0000,  2.1000)
  56 Al     7.265014    3.813195    3.678254    ( 0.0000,  0.0000,  0.0000)
  57 Cr     7.284952    5.400310    5.561924    ( 0.0000,  0.0000,  0.0000)
  58 Ni     8.788932    3.652890    5.516243    ( 0.0000,  0.0000,  1.5000)
  59 Cr     9.052631    5.476784    3.782336    ( 0.0000,  0.0000,  0.0000)
  60 Co    -0.301916    7.065540    3.832736    ( 0.0000,  0.0000,  2.1000)
  61 Cr     0.109126    9.139712    5.085283    ( 0.0000,  0.0000,  0.0000)
  62 Fe     1.904619    7.499245    5.500463    ( 0.0000,  0.0000,  2.0000)
  63 Fe     1.768223    9.097476    3.576353    ( 0.0000,  0.0000,  2.0000)
  64 Al     3.761340    7.016428    3.817907    ( 0.0000,  0.0000,  0.0000)
  65 Ni     3.662704    8.774330    5.513482    ( 0.0000,  0.0000,  1.5000)
  66 Co     5.529251    7.301879    5.421002    ( 0.0000,  0.0000,  2.1000)
  67 Cr     5.512212    8.869967    3.778175    ( 0.0000,  0.0000,  0.0000)
  68 Ni     7.383927    7.165281    3.703936    ( 0.0000,  0.0000,  1.5000)
  69 Ni     7.251224    9.074490    5.139728    ( 0.0000,  0.0000,  1.5000)
  70 Fe     9.059734    6.980543    5.526134    ( 0.0000,  0.0000,  2.0000)
  71 Cr     9.175114    8.934322    3.646766    ( 0.0000,  0.0000,  0.0000)
  72 Co    10.633462    0.032825    7.189210    ( 0.0000,  0.0000,  2.1000)
  73 Al    10.857862    1.578896    8.910826    ( 0.0000,  0.0000,  0.0000)
  74 Cr     1.836322   10.777909    9.297150    ( 0.0000,  0.0000,  0.0000)
  75 Co     1.750111    2.052437    7.459103    ( 0.0000,  0.0000,  2.1000)
  76 Co     3.832227   10.660525    7.127100    ( 0.0000,  0.0000,  2.1000)
  77 Al     3.837171    1.818251    8.877757    ( 0.0000,  0.0000,  0.0000)
  78 Co     5.454685   10.826182    9.160573    ( 0.0000,  0.0000,  2.1000)
  79 Cr     5.788626    1.542297    7.300162    ( 0.0000,  0.0000,  0.0000)
  80 Ni     7.304019   -0.099745    7.367222    ( 0.0000,  0.0000,  1.5000)
  81 Fe     7.275194    1.875176    9.222434    ( 0.0000,  0.0000,  2.0000)
  82 Ni     8.957315    0.163083    8.998384    ( 0.0000,  0.0000,  1.5000)
  83 Fe     8.932868    1.661352    7.175156    ( 0.0000,  0.0000,  2.0000)
  84 Cr    11.001734    3.674548    7.332164    ( 0.0000,  0.0000,  0.0000)
  85 Cr    10.871197    5.487523    8.988372    ( 0.0000,  0.0000,  0.0000)
  86 Cr     1.615086    3.695449    9.143923    ( 0.0000,  0.0000,  0.0000)
  87 Al     1.822972    5.400742    7.317141    ( 0.0000,  0.0000,  0.0000)
  88 Cr     3.713072    3.664558    6.937985    ( 0.0000,  0.0000,  0.0000)
  89 Al     3.747696    5.320506    9.148368    ( 0.0000,  0.0000,  0.0000)
  90 Co     5.465456    3.334291    8.592979    ( 0.0000,  0.0000,  2.1000)
  91 Ni     5.516024    5.601839    7.040157    ( 0.0000,  0.0000,  1.5000)
  92 Cr     7.297715    3.605798    7.201398    ( 0.0000,  0.0000,  0.0000)
  93 Co     6.964879    5.343886    8.842895    ( 0.0000,  0.0000,  2.1000)
  94 Ni     9.091468    3.428199    8.835513    ( 0.0000,  0.0000,  1.5000)
  95 Fe     9.002280    5.440661    7.269738    ( 0.0000,  0.0000,  2.0000)
  96 Al     0.073882    7.308233    7.204584    ( 0.0000,  0.0000,  0.0000)
  97 Al    -0.161991    9.225333    8.878489    ( 0.0000,  0.0000,  0.0000)
  98 Fe     1.840896    7.296852    9.017990    ( 0.0000,  0.0000,  2.0000)
  99 Co     1.759415    9.190025    7.395146    ( 0.0000,  0.0000,  2.1000)
 100 Fe     3.547847    7.395739    7.362608    ( 0.0000,  0.0000,  2.0000)
 101 Co     3.676006    9.180092    9.037350    ( 0.0000,  0.0000,  2.1000)
 102 Al     5.431178    7.410796    8.947883    ( 0.0000,  0.0000,  0.0000)
 103 Fe     5.608981    9.047379    7.239053    ( 0.0000,  0.0000,  2.0000)
 104 Co     7.158465    7.350620    7.261276    ( 0.0000,  0.0000,  2.1000)
 105 Ni     7.365832    9.033933    8.985098    ( 0.0000,  0.0000,  1.5000)
 106 Al     8.873896    7.093047    9.081257    ( 0.0000,  0.0000,  0.0000)
 107 Cr     8.843593    9.088129    7.032461    ( 0.0000,  0.0000,  0.0000)

Unit cell:
           periodic     x           y           z      points  spacing
  1. axis:    yes   10.872400    0.000000    0.000000    48     0.2265
  2. axis:    yes    0.000000   10.872400    0.000000    48     0.2265
  3. axis:    yes    0.000000    0.000000   10.872400    48     0.2265

  Lengths:  10.872400  10.872400  10.872400
  Angles:   90.000000  90.000000  90.000000

Effective grid spacing dv^(1/3) = 0.2265

     iter     time        total  log10-change:  magmom
                         energy  eigst   dens
iter:   1 04:26:19  -950.127362                  +121.3863
iter:   2 04:27:35  -839.082411  -0.19  -1.17    +65.1265
iter:   3 04:28:49  -824.774213  -0.87  -1.20    +56.1585
iter:   4 04:30:02  -811.780713  -1.27  -1.26    +52.1935
iter:   5 04:31:15  -802.103853  -1.55  -1.29    +50.2342
iter:   6 04:32:28  -795.463196  -1.36  -1.35    +50.7880
iter:   7 04:33:41  -801.016464  -1.29  -1.47    +50.5695
iter:   8 04:34:55  -790.721820  -1.65  -1.50    +50.6336
iter:   9 04:36:08  -789.187717  -2.12  -1.67    +51.8931
iter:  10 04:37:21  -789.399403  -2.41  -1.76    +52.8089
iter:  11 04:38:34  -789.368476  -2.45  -1.78    +53.7832
iter:  12 04:39:47  -789.627344  -2.38  -1.84    +54.9682
iter:  13 04:41:01  -789.835948  -2.47  -1.90    +55.3959
iter:  14 04:42:13  -789.520183  -2.67  -1.95    +55.9946
iter:  15 04:43:26  -789.318765  -3.00  -1.99    +56.4910
iter:  16 04:44:39  -789.717492  -2.91  -2.07    +56.9331
iter:  17 04:45:53  -789.604723  -2.83  -2.08    +57.1270
iter:  18 04:47:06  -789.388770  -2.99  -2.14    +57.2065
iter:  19 04:48:19  -789.338173  -3.17  -2.25    +57.4510
iter:  20 04:49:32  -789.344302c -3.34  -2.31    +57.5635
iter:  21 04:50:45  -789.391020c -3.41  -2.36    +57.7278
iter:  22 04:51:58  -789.352303c -3.34  -2.39    +57.7221
iter:  23 04:53:10  -789.333648c -3.60  -2.45    +57.8484
iter:  24 04:54:23  -789.382570c -3.72  -2.52    +57.8859
iter:  25 04:55:36  -789.379081c -3.87  -2.53    +57.9228
iter:  26 04:56:49  -789.424901c -3.78  -2.57    +58.0367
iter:  27 04:58:02  -789.430769c -3.87  -2.59    +58.0591
iter:  28 04:59:15  -789.437760c -4.04  -2.63    +58.0509
iter:  29 05:00:28  -789.466234c -4.10  -2.69    +58.1659
iter:  30 05:01:41  -789.510202c -4.13  -2.73    +58.1097
iter:  31 05:02:54  -789.523242c -4.21  -2.75    +58.1347
iter:  32 05:04:07  -789.547183c -4.33  -2.77    +58.1271
iter:  33 05:05:20  -789.574885c -4.26  -2.82    +58.0950
iter:  34 05:06:33  -789.586121c -4.33  -2.83    +58.0584
iter:  35 05:07:46  -789.608026c -4.35  -2.89    +58.0667
iter:  36 05:08:59  -789.625082c -4.39  -2.91    +57.9516
iter:  37 05:10:12  -789.636934c -4.65  -2.97    +57.9412
iter:  38 05:11:25  -789.665750c -4.38  -2.98    +57.8359
iter:  39 05:12:38  -789.683216c -4.49  -3.01    +57.8025
iter:  40 05:13:52  -789.704346c -4.38  -3.03    +57.6805
iter:  41 05:15:05  -789.723818c -4.40  -3.07    +57.6421
iter:  42 05:16:18  -789.736933c -4.49  -3.07    +57.5512
iter:  43 05:17:31  -789.745024c -4.69  -3.12    +57.5413
iter:  44 05:18:44  -789.753118c -4.72  -3.14    +57.4828
iter:  45 05:19:58  -789.755721c -4.86  -3.20    +57.4867
iter:  46 05:21:11  -789.761070c -4.85  -3.23    +57.4739
iter:  47 05:22:24  -789.761321c -5.14  -3.26    +57.4813
iter:  48 05:23:37  -789.765951c -5.24  -3.32    +57.4755
iter:  49 05:24:50  -789.768129c -5.37  -3.35    +57.4812
iter:  50 05:26:04  -789.772673c -5.28  -3.38    +57.4817
iter:  51 05:27:17  -789.774883c -5.40  -3.43    +57.4821
iter:  52 05:28:30  -789.779688c -5.35  -3.48    +57.4916
iter:  53 05:29:43  -789.777170c -5.64  -3.49    +57.4809
iter:  54 05:30:56  -789.783422c -5.31  -3.50    +57.4841
iter:  55 05:32:10  -789.782706c -5.58  -3.53    +57.4863
iter:  56 05:33:23  -789.787971c -5.40  -3.57    +57.4979
iter:  57 05:34:36  -789.788624c -5.91  -3.66    +57.4849
iter:  58 05:35:49  -789.794042c -5.41  -3.68    +57.4995
iter:  59 05:37:02  -789.789166c -5.71  -3.70    +57.4903
iter:  60 05:38:15  -789.778930c -4.92  -3.75    +57.4574
iter:  61 05:39:28  -789.780337c -6.04  -3.74    +57.4723
iter:  62 05:40:41  -789.785129c -5.61  -3.77    +57.4976
iter:  63 05:41:54  -789.781783c -5.95  -3.82    +57.4857
iter:  64 05:43:07  -789.788454c -5.44  -3.82    +57.5004
iter:  65 05:44:20  -789.783319c -5.90  -3.95    +57.4852
iter:  66 05:45:33  -789.782865c -5.98  -3.95    +57.4719
iter:  67 05:46:46  -789.788292c -5.56  -3.99    +57.4917
iter:  68 05:47:59  -789.778047c -5.06  -4.15c   +57.4496
iter:  69 05:49:12  -789.756992c -4.17  -3.95    +57.3653
iter:  70 05:50:25  -789.742327c -3.94  -3.63    +57.2453
iter:  71 05:51:38  -789.739498c -4.15  -3.38    +57.1625
iter:  72 05:52:51  -789.740686c -4.35  -3.29    +57.1073
iter:  73 05:54:04  -789.742983c -4.48  -3.23    +57.0720
iter:  74 05:55:17  -789.745465c -4.96  -3.19    +57.0756
iter:  75 05:56:30  -789.744199c -5.19  -3.19    +57.0951
iter:  76 05:57:42  -789.744950c -4.94  -3.20    +57.0972
iter:  77 05:58:55  -789.749505c -4.58  -3.08    +57.1050
iter:  78 06:00:08  -789.746609c -4.46  -3.08    +57.1561
iter:  79 06:01:21  -789.742845c -4.50  -3.13    +57.2126
iter:  80 06:02:34  -789.738316c -4.99  -3.14    +57.1616
iter:  81 06:03:47  -789.740733c -5.08  -3.40    +57.2169
iter:  82 06:05:00  -789.741886c -5.08  -3.41    +57.2284
iter:  83 06:06:13  -789.742061c -5.31  -3.45    +57.2213
iter:  84 06:07:27  -789.744574c -5.18  -3.47    +57.2180
iter:  85 06:08:40  -789.744510c -5.17  -3.42    +57.2355
iter:  86 06:09:53  -789.743165c -5.39  -3.51    +57.2799
iter:  87 06:11:06  -789.744137c -5.54  -3.61    +57.2827
iter:  88 06:12:20  -789.744844c -5.59  -3.66    +57.3140
iter:  89 06:13:33  -789.745415c -5.86  -3.74    +57.3533
iter:  90 06:14:46  -789.745576c -5.83  -3.81    +57.3824
iter:  91 06:15:59  -789.746530c -6.01  -3.80    +57.3972
iter:  92 06:17:12  -789.747647c -5.84  -3.89    +57.4368
iter:  93 06:18:25  -789.747479c -6.66  -3.87    +57.4296
iter:  94 06:19:38  -789.748599c -6.02  -3.87    +57.4669
iter:  95 06:20:51  -789.749209c -6.27  -3.86    +57.4874
iter:  96 06:22:04  -789.749855c -6.33  -3.86    +57.5070
iter:  97 06:23:17  -789.750976c -6.15  -3.87    +57.5231
iter:  98 06:24:30  -789.751031c -6.21  -3.80    +57.5481
iter:  99 06:25:43  -789.752412c -5.92  -3.84    +57.5727
iter: 100 06:26:56  -789.752075c -6.25  -3.71    +57.5732
iter: 101 06:28:09  -789.752823c -6.06  -3.78    +57.6082
iter: 102 06:29:24  -789.752697c -6.29  -3.79    +57.6150
iter: 103 06:30:40  -789.754170c -6.00  -3.75    +57.6382
iter: 104 06:31:56  -789.754390c -5.98  -3.76    +57.6586
iter: 105 06:33:11  -789.755536c -5.95  -3.74    +57.6762
iter: 106 06:34:27  -789.755566c -6.08  -3.75    +57.6975
iter: 107 06:35:42  -789.756466c -6.05  -3.83    +57.7384
iter: 108 06:36:58  -789.755310c -6.47  -3.83    +57.7090
iter: 109 06:38:14  -789.756159c -6.51  -3.83    +57.7094
iter: 110 06:39:29  -789.756938c -5.99  -3.80    +57.7390
iter: 111 06:40:45  -789.757722c -6.02  -3.73    +57.7480
iter: 112 06:42:00  -789.758373c -5.91  -3.76    +57.7847
iter: 113 06:43:16  -789.758691c -5.82  -3.80    +57.8305
iter: 114 06:44:31  -789.759325c -5.98  -3.83    +57.8393
iter: 115 06:45:47  -789.759730c -5.77  -3.91    +57.8524
iter: 116 06:47:03  -789.760508c -6.19  -3.85    +57.8594
iter: 117 06:48:18  -789.761491c -5.91  -4.05c   +57.8981
iter: 118 06:49:34  -789.761144c -6.86  -4.10c   +57.8924
iter: 119 06:50:50  -789.762042c -6.38  -4.21c   +57.9233
iter: 120 06:52:05  -789.759811c -5.59  -4.23c   +57.8334
iter: 121 06:53:21  -789.755325c -4.78  -4.11c   +57.6337
iter: 122 06:54:37  -789.753813c -5.12  -3.82    +57.5341
iter: 123 06:55:53  -789.748654c -4.27  -3.71    +57.1270
iter: 124 06:57:08  -789.748236c -5.29  -3.45    +57.1101
iter: 125 06:58:24  -789.749522c -5.93  -3.47    +57.1291
iter: 126 06:59:40  -789.750206c -5.59  -3.45    +57.1684
iter: 127 07:00:55  -789.751285c -5.53  -3.50    +57.2168
iter: 128 07:02:11  -789.752124c -4.58  -3.48    +57.2176
iter: 129 07:03:27  -789.751883c -4.88  -3.33    +57.2467
iter: 130 07:04:42  -789.750683c -5.16  -3.43    +57.3060
iter: 131 07:05:58  -789.748239c -5.58  -3.58    +57.3511
iter: 132 07:07:13  -789.749931c -5.74  -3.82    +57.4095
iter: 133 07:08:29  -789.750751c -5.74  -3.91    +57.4490
iter: 134 07:09:44  -789.751658c -5.73  -3.97    +57.5055
iter: 135 07:11:00  -789.752538c -6.04  -4.05c   +57.5334
iter: 136 07:12:16  -789.752750c -6.01  -4.05c   +57.5777
iter: 137 07:13:31  -789.752807c -6.76  -4.04c   +57.5686
iter: 138 07:14:47  -789.753690c -6.38  -4.14c   +57.6103
iter: 139 07:16:03  -789.753381c -6.75  -4.13c   +57.6061
iter: 140 07:17:19  -789.754295c -6.13  -4.18c   +57.6441
iter: 141 07:18:35  -789.754369c -6.26  -4.16c   +57.6615
iter: 142 07:19:50  -789.755350c -6.49  -4.22c   +57.6691
iter: 143 07:21:06  -789.755554c -6.29  -4.16c   +57.7088
iter: 144 07:22:22  -789.755397c -7.01  -4.38c   +57.7082
iter: 145 07:23:39  -789.756173c -6.33  -4.32c   +57.7444
iter: 146 07:24:54  -789.751242c -4.74  -4.28c   +57.5060
iter: 147 07:26:10  -789.751424c -6.00  -4.12c   +57.5171
iter: 148 07:27:26  -789.752146c -6.38  -4.22c   +57.5584
iter: 149 07:28:42  -789.753415c -5.89  -4.32c   +57.6125
iter: 150 07:29:58  -789.752822c -7.22  -4.44c   +57.5991
iter: 151 07:31:14  -789.753802c -6.12  -4.47c   +57.6478
iter: 152 07:32:30  -789.753201c -6.71  -4.60c   +57.6111
iter: 153 07:33:46  -789.752530c -6.27  -4.62c   +57.5603
iter: 154 07:35:02  -789.753186c -6.60  -4.51c   +57.5993
iter: 155 07:36:18  -789.750288c -5.15  -4.59c   +57.4205
iter: 156 07:37:34  -789.746414c -4.58  -4.10c   +57.1261
iter: 157 07:38:50  -789.749843c -5.07  -3.73    +57.3765
iter: 158 07:40:05  -789.755174c -4.48  -4.02c   +57.7240
iter: 159 07:41:21  -789.748179c -4.50  -4.38c   +57.2736
iter: 160 07:42:37  -789.744455c -4.47  -3.89    +56.9813
iter: 161 07:43:53  -789.762603c -3.62  -3.63    +58.0422
iter: 162 07:45:09  -789.731482c -3.24  -3.81    +56.2917
iter: 163 07:46:25  -789.845733  -2.49  -3.31    +60.1478
iter: 164 07:47:41  -789.738092  -2.73  -3.04    +56.7272
iter: 165 07:48:57  -789.744844  -4.40  -3.48    +57.0529
iter: 166 07:50:13  -789.746157c -5.38  -3.68    +57.1458
iter: 167 07:51:29  -789.749247c -4.94  -3.74    +57.3719
iter: 168 07:52:45  -789.750534c -5.34  -3.98    +57.4581
iter: 169 07:54:01  -789.747240c -4.95  -4.12c   +57.2262
iter: 170 07:55:17  -789.749401c -5.40  -3.80    +57.3803
iter: 171 07:56:33  -789.748100c -5.90  -4.01c   +57.2879
iter: 172 07:57:49  -789.748569c -6.23  -3.87    +57.3331
iter: 173 07:59:05  -789.748419c -6.41  -3.86    +57.2992
iter: 174 08:00:20  -789.748445c -7.01  -3.89    +57.3210
iter: 175 08:01:36  -789.748583c -6.55  -3.93    +57.3307
iter: 176 08:02:52  -789.749241c -6.12  -3.83    +57.3511
iter: 177 08:04:08  -789.748715c -6.16  -3.93    +57.3506
iter: 178 08:05:24  -789.749325c -6.23  -4.01c   +57.3835
iter: 179 08:06:40  -789.749382c -6.15  -4.08c   +57.4077
iter: 180 08:07:55  -789.749981c -6.30  -4.10c   +57.4421
iter: 181 08:09:11  -789.750290c -6.14  -4.31c   +57.4762
iter: 182 08:10:27  -789.750796c -6.32  -4.33c   +57.5103
iter: 183 08:11:43  -789.751085c -6.97  -4.50c   +57.5136
iter: 184 08:12:59  -789.751345c -6.47  -4.44c   +57.5399
iter: 185 08:14:15  -789.751669c -6.67  -4.50c   +57.5601
iter: 186 08:15:31  -789.750972c -6.44  -4.54c   +57.5167
iter: 187 08:16:47  -789.748513c -5.16  -4.54c   +57.3575
iter: 188 08:18:03  -789.750303c -5.78  -4.07c   +57.4728
iter: 189 08:19:18  -789.750198c -7.28  -4.39c   +57.4551
iter: 190 08:20:34  -789.750637c -6.37  -4.28c   +57.4976
iter: 191 08:21:50  -789.750761c -6.95  -4.38c   +57.5081
iter: 192 08:23:06  -789.751114c -6.69  -4.34c   +57.5301
iter: 193 08:24:22  -789.750912c -6.81  -4.43c   +57.5107
iter: 194 08:25:38  -789.752017c -5.91  -4.42c   +57.5837
iter: 195 08:26:54  -789.749856c -5.40  -4.35c   +57.4464
iter: 196 08:28:10  -789.749070c -5.60  -4.25c   +57.3925
iter: 197 08:29:26  -789.749411c -6.86  -4.02c   +57.4176
iter: 198 08:30:42  -789.749798c -6.44  -4.09c   +57.4597
iter: 199 08:31:58  -789.750337c -6.30  -4.22c   +57.4918
iter: 200 08:33:14  -789.751864c -5.73  -4.31c   +57.5542
iter: 201 08:34:29  -789.750506c -6.33  -4.20c   +57.5105
iter: 202 08:35:45  -789.751529c -6.18  -4.28c   +57.5563
iter: 203 08:37:02  -789.751069c -6.99  -4.32c   +57.5362
iter: 204 08:38:17  -789.751182c -7.23  -4.41c   +57.5329
iter: 205 08:39:34  -789.751610c -6.71  -4.53c   +57.5600
iter: 206 08:40:50  -789.751880c -6.86  -4.60c   +57.5676
iter: 207 08:42:05  -789.752531c -6.24  -4.57c   +57.6015
iter: 208 08:43:21  -789.748012c -4.68  -4.47c   +57.3611
iter: 209 08:44:37  -789.738021c -3.79  -3.98    +56.7640
iter: 210 08:45:53  -789.761878c -3.34  -3.37    +57.9641
iter: 211 08:47:09  -789.778467c -3.74  -3.66    +58.3689
iter: 212 08:48:25  -789.749910c -3.63  -3.37    +57.4792
iter: 213 08:49:41  -789.742598c -3.81  -4.34c   +57.0321
iter: 214 08:50:57  -789.758114c -3.73  -3.57    +57.8266
iter: 215 08:52:13  -789.760334c -4.67  -3.81    +57.9029
iter: 216 08:53:29  -789.758366c -5.82  -3.74    +57.8335
iter: 217 08:54:45  -789.751709c -4.51  -3.82    +57.5668
iter: 218 08:56:01  -789.745766c -4.16  -4.47c   +57.2282
iter: 219 08:57:17  -789.767514c -3.56  -3.77    +58.0921
iter: 220 08:58:33  -789.715890c -2.98  -3.57    +56.3651
iter: 221 08:59:48  -789.833018  -2.52  -3.20    +59.1800
iter: 222 09:01:04  -789.830137  -3.90  -3.10    +59.0418
iter: 223 09:02:20  -789.836885c -4.47  -3.14    +59.1007
iter: 224 09:03:35  -789.841927c -4.83  -3.12    +59.1482
iter: 225 09:04:51  -789.846667c -5.09  -3.11    +59.1900
iter: 226 09:06:07  -789.851532c -4.90  -3.10    +59.2440
iter: 227 09:07:23  -789.842865c -4.45  -3.06    +59.2423
iter: 228 09:08:39  -789.855968c -4.39  -3.09    +59.3192
iter: 229 09:09:55  -789.879939c -3.91  -2.95    +59.4220
iter: 230 09:11:11  -789.843224c -4.31  -2.87    +59.3597
iter: 231 09:12:26  -789.838172c -4.79  -3.11    +59.4557
iter: 232 09:13:42  -789.843686c -4.94  -3.32    +59.4317
iter: 233 09:14:57  -789.843893c -5.00  -3.28    +59.4442
iter: 234 09:16:13  -789.846164c -5.11  -3.37    +59.4372
iter: 235 09:17:29  -789.848410c -4.92  -3.37    +59.4624
iter: 236 09:18:45  -789.849392c -4.87  -3.32    +59.4788
iter: 237 09:20:00  -789.846956c -5.04  -3.27    +59.4533
iter: 238 09:21:16  -789.844377c -5.35  -3.45    +59.4789
iter: 239 09:22:32  -789.845875c -5.77  -3.67    +59.4867
iter: 240 09:23:48  -789.846070c -5.78  -3.72    +59.4814
iter: 241 09:25:04  -789.847244c -5.68  -3.72    +59.4813
iter: 242 09:26:20  -789.846898c -5.90  -3.78    +59.4769
iter: 243 09:27:35  -789.847682c -6.10  -3.81    +59.4850
iter: 244 09:28:51  -789.847168c -6.20  -3.91    +59.4788
iter: 245 09:30:07  -789.847598c -6.59  -3.93    +59.4763
iter: 246 09:31:23  -789.847496c -6.57  -4.03c   +59.4752
iter: 247 09:32:39  -789.847973c -6.68  -4.00c   +59.4737
iter: 248 09:33:55  -789.847930c -6.51  -4.06c   +59.4762
iter: 249 09:35:11  -789.848384c -6.63  -4.14c   +59.4735
iter: 250 09:36:26  -789.848166c -6.95  -4.17c   +59.4694
iter: 251 09:37:42  -789.848274c -7.12  -4.24c   +59.4666
iter: 252 09:38:57  -789.848512c -6.96  -4.28c   +59.4617
iter: 253 09:40:13  -789.848468c -7.15  -4.28c   +59.4594
iter: 254 09:41:29  -789.848479c -7.23  -4.35c   +59.4584
iter: 255 09:42:45  -789.848671c -7.44c -4.40c   +59.4551

Converged after 255 iterations.

Dipole moment: (7.734268, -2.581636, 29.120893) |e|*Ang

Total magnetic moment: (0.000000, 0.000000, 59.455112)
Local magnetic moments:
   0 Al ( 0.000000,  0.000000, -0.011689)
   1 Fe ( 0.000000,  0.000000,  2.270102)
   2 Cr ( 0.000000,  0.000000, -2.109405)
   3 Cr ( 0.000000,  0.000000,  1.299426)
   4 Ni ( 0.000000,  0.000000, -0.012185)
   5 Al ( 0.000000,  0.000000, -0.009818)
   6 Al ( 0.000000,  0.000000, -0.004930)
   7 Ni ( 0.000000,  0.000000,  0.360446)
   8 Fe ( 0.000000,  0.000000,  2.456891)
   9 Co ( 0.000000,  0.000000,  0.964377)
  10 Ni ( 0.000000,  0.000000,  0.215513)
  11 Fe ( 0.000000,  0.000000,  2.069479)
  12 Fe ( 0.000000,  0.000000,  2.075884)
  13 Co ( 0.000000,  0.000000,  1.082951)
  14 Cr ( 0.000000,  0.000000, -1.882633)
  15 Co ( 0.000000,  0.000000,  0.589510)
  16 Fe ( 0.000000,  0.000000,  1.889110)
  17 Al ( 0.000000,  0.000000, -0.031772)
  18 Fe ( 0.000000,  0.000000,  2.412545)
  19 Fe ( 0.000000,  0.000000,  2.361499)
  20 Cr ( 0.000000,  0.000000, -1.891471)
  21 Co ( 0.000000,  0.000000,  0.955192)
  22 Al ( 0.000000,  0.000000, -0.038987)
  23 Fe ( 0.000000,  0.000000,  2.012130)
  24 Ni ( 0.000000,  0.000000,  0.363736)
  25 Al ( 0.000000,  0.000000, -0.012225)
  26 Ni ( 0.000000,  0.000000,  0.244521)
  27 Cr ( 0.000000,  0.000000,  1.499887)
  28 Fe ( 0.000000,  0.000000,  2.197181)
  29 Ni ( 0.000000,  0.000000,  0.211302)
  30 Ni ( 0.000000,  0.000000,  0.361658)
  31 Ni ( 0.000000,  0.000000,  0.304432)
  32 Co ( 0.000000,  0.000000,  1.142774)
  33 Cr ( 0.000000,  0.000000, -2.310141)
  34 Fe ( 0.000000,  0.000000,  2.034168)
  35 Ni ( 0.000000,  0.000000,  0.219401)
  36 Fe ( 0.000000,  0.000000,  2.189651)
  37 Co ( 0.000000,  0.000000,  0.626363)
  38 Cr ( 0.000000,  0.000000,  1.020515)
  39 Ni ( 0.000000,  0.000000,  0.177512)
  40 Al ( 0.000000,  0.000000,  0.003975)
  41 Al ( 0.000000,  0.000000, -0.004161)
  42 Cr ( 0.000000,  0.000000, -1.729909)
  43 Al ( 0.000000,  0.000000, -0.009956)
  44 Al ( 0.000000,  0.000000, -0.004319)
  45 Co ( 0.000000,  0.000000, -0.187620)
  46 Cr ( 0.000000,  0.000000, -1.634671)
  47 Ni ( 0.000000,  0.000000,  0.214615)
  48 Fe ( 0.000000,  0.000000,  2.188360)
  49 Fe ( 0.000000,  0.000000,  1.789005)
  50 Al ( 0.000000,  0.000000, -0.026105)
  51 Co ( 0.000000,  0.000000,  1.231544)
  52 Co ( 0.000000,  0.000000,  0.942135)
  53 Ni ( 0.000000,  0.000000,  0.296084)
  54 Ni ( 0.000000,  0.000000,  0.095782)
  55 Co ( 0.000000,  0.000000,  1.049520)
  56 Al ( 0.000000,  0.000000, -0.013726)
  57 Cr ( 0.000000,  0.000000, -0.657042)
  58 Ni ( 0.000000,  0.000000,  0.025288)
  59 Cr ( 0.000000,  0.000000, -0.733589)
  60 Co ( 0.000000,  0.000000,  0.614259)
  61 Cr ( 0.000000,  0.000000, -1.442697)
  62 Fe ( 0.000000,  0.000000,  2.229192)
  63 Fe ( 0.000000,  0.000000,  2.209455)
  64 Al ( 0.000000,  0.000000, -0.031899)
  65 Ni ( 0.000000,  0.000000,  0.478969)
  66 Co ( 0.000000,  0.000000,  0.962797)
  67 Cr ( 0.000000,  0.000000,  1.860799)
  68 Ni ( 0.000000,  0.000000,  0.159928)
  69 Ni ( 0.000000,  0.000000,  0.042406)
  70 Fe ( 0.000000,  0.000000,  1.214429)
  71 Cr ( 0.000000,  0.000000,  1.009409)
  72 Co ( 0.000000,  0.000000,  0.729821)
  73 Al ( 0.000000,  0.000000, -0.017715)
  74 Cr ( 0.000000,  0.000000, -1.576712)
  75 Co ( 0.000000,  0.000000,  0.074983)
  76 Co ( 0.000000,  0.000000,  0.887881)
  77 Al ( 0.000000,  0.000000, -0.021283)
  78 Co ( 0.000000,  0.000000,  1.310166)
  79 Cr ( 0.000000,  0.000000,  0.623232)
  80 Ni ( 0.000000,  0.000000,  0.261072)
  81 Fe ( 0.000000,  0.000000,  2.111318)
  82 Ni ( 0.000000,  0.000000,  0.262410)
  83 Fe ( 0.000000,  0.000000,  2.291123)
  84 Cr ( 0.000000,  0.000000,  0.573344)
  85 Cr ( 0.000000,  0.000000, -0.951893)
  86 Cr ( 0.000000,  0.000000, -0.946525)
  87 Al ( 0.000000,  0.000000, -0.019228)
  88 Cr ( 0.000000,  0.000000,  1.775273)
  89 Al ( 0.000000,  0.000000, -0.045363)
  90 Co ( 0.000000,  0.000000,  0.653782)
  91 Ni ( 0.000000,  0.000000,  0.150216)
  92 Cr ( 0.000000,  0.000000, -1.050885)
  93 Co ( 0.000000,  0.000000,  1.267730)
  94 Ni ( 0.000000,  0.000000,  0.283281)
  95 Fe ( 0.000000,  0.000000,  1.940665)
  96 Al ( 0.000000,  0.000000, -0.029921)
  97 Al ( 0.000000,  0.000000, -0.023419)
  98 Fe ( 0.000000,  0.000000,  1.814682)
  99 Co ( 0.000000,  0.000000,  1.131077)
 100 Fe ( 0.000000,  0.000000,  2.212808)
 101 Co ( 0.000000,  0.000000,  1.370452)
 102 Al ( 0.000000,  0.000000, -0.050502)
 103 Fe ( 0.000000,  0.000000,  2.402373)
 104 Co ( 0.000000,  0.000000,  1.026770)
 105 Ni ( 0.000000,  0.000000,  0.246338)
 106 Al ( 0.000000,  0.000000, -0.029757)
 107 Cr ( 0.000000,  0.000000,  1.651134)

Energy contributions relative to reference atoms: (reference = -3235165.067515)

Kinetic:       +482.220290
Potential:     -427.813859
External:        +0.000000
XC:            -873.310691
Entropy (-ST):   -4.099986
Local:          +31.105583
--------------------------
Free energy:   -791.898664
Extrapolated:  -789.848671

Spin contamination: 23.792983 electrons
Showing only first 2 kpts
                      Up                     Down
 Kpt  Band  Eigenvalues  Occupancy  Eigenvalues  Occupancy
  0   454      9.02332    0.99552      9.96048    0.01856
  0   455      9.03818    0.99481      9.97400    0.01625
  0   456      9.04629    0.99437      9.98584    0.01446
  0   457      9.06590    0.99316      9.99575    0.01312

  1   454      9.02589    0.99540      9.94866    0.02084
  1   455      9.03394    0.99502      9.96942    0.01700
  1   456      9.05198    0.99404      9.99154    0.01367
  1   457      9.05965    0.99357      9.99476    0.01325


Fermi level: 9.56369

No gap

Forces in eV/Ang:
  0 Al   -1.54335   -1.31066    1.87870
  1 Fe   -0.87252    0.31130   -0.65832
  2 Cr   -2.25804   -0.33457    0.26502
  3 Cr   -0.92802    1.49594   -1.13672
  4 Ni   -0.13291   -0.46675   -1.02674
  5 Al    1.40297   -0.28360    1.93233
  6 Al    0.61145   -0.17291   -0.04317
  7 Ni   -0.23778   -1.02749   -0.54085
  8 Fe    1.38282    0.96153    0.04547
  9 Co    0.19765   -0.73511    1.34466
 10 Ni   -1.09157    0.40494    0.77459
 11 Fe    0.63583   -0.74856    0.57783
 12 Fe    0.40455   -0.19176    0.36020
 13 Co    0.52626    1.26496   -0.64830
 14 Cr   -2.10247   -1.49791   -0.34135
 15 Co    1.36244    0.51809    0.79149
 16 Fe   -0.74795    0.25547   -0.65601
 17 Al    2.08499    0.65209    1.06950
 18 Fe    1.11371   -0.06872    0.43640
 19 Fe    1.14046   -0.68035   -1.23850
 20 Cr   -0.88649    0.54150   -0.86825
 21 Co   -1.33143   -0.06536    0.07743
 22 Al   -1.44448   -1.42453   -1.12412
 23 Fe    0.48024   -0.16563    0.54119
 24 Ni   -0.75962    1.47293   -1.46910
 25 Al   -0.13920    1.67763    0.19037
 26 Ni   -0.78486   -0.36887    0.72058
 27 Cr    1.41253    0.78104   -0.83549
 28 Fe   -0.35022   -0.76699   -0.90838
 29 Ni    0.98003    1.03347    1.16805
 30 Ni    0.75769   -0.32734   -0.07443
 31 Ni   -0.28355   -0.44645   -0.68912
 32 Co   -0.69434   -0.44698    0.77268
 33 Cr   -0.58966   -0.97442    0.10503
 34 Fe   -1.47938   -1.69489    0.46431
 35 Ni    1.92368    1.05053    1.42911
 36 Fe    0.41854   -1.25646   -0.67349
 37 Co   -1.55870    1.14394    1.26042
 38 Cr   -0.90880   -0.53018    0.82909
 39 Ni    1.69538   -0.43024   -0.52734
 40 Al   -0.63178   -0.83936    0.39127
 41 Al   -1.33243   -2.19624   -1.93604
 42 Cr   -1.25759   -1.90922    2.68479
 43 Al   -0.06731    2.07657   -1.49605
 44 Al    0.18718   -1.47293   -1.28100
 45 Co   -1.06688   -1.10124    0.52844
 46 Cr    0.89311    0.37688    0.56989
 47 Ni    1.74127    1.02634   -1.02138
 48 Fe    1.38360   -0.15667    0.01681
 49 Fe   -0.62138    0.62107    0.90138
 50 Al    1.11692   -0.69026   -1.55099
 51 Co    0.77197   -0.89532    0.20598
 52 Co    0.12161    1.06142    0.81392
 53 Ni    0.05047   -0.09684    0.58657
 54 Ni    0.91981    0.55612   -0.27004
 55 Co    0.37894   -0.12980   -1.56361
 56 Al   -0.63029   -1.24316   -1.22086
 57 Cr   -0.71131    1.84412    0.05083
 58 Ni    3.06814   -0.06707   -0.30332
 59 Cr    0.68659    0.08589   -0.43082
 60 Co    2.07146    0.57708   -1.49242
 61 Cr   -0.55293    0.32525    1.57896
 62 Fe   -1.76153   -1.59193   -0.18392
 63 Fe    0.96992   -0.09124   -0.04420
 64 Al   -1.30099    1.05011   -1.67218
 65 Ni    0.70756    2.80042   -0.47178
 66 Co    0.56734   -0.09099    0.85126
 67 Cr   -0.59578    1.49601   -1.77468
 68 Ni   -0.73938   -0.01881   -0.61455
 69 Ni    1.07742   -0.41503    1.24570
 70 Fe   -0.85068    1.29939    0.58791
 71 Cr   -1.13032    0.83982    0.78913
 72 Co    1.59089   -1.03644   -1.03267
 73 Al   -0.87449    1.94882   -0.09075
 74 Cr    1.72339   -0.20543   -1.14523
 75 Co    0.92348   -1.48638   -1.22701
 76 Co   -0.51093    0.42935    0.40685
 77 Al   -1.71576   -0.95988    0.70850
 78 Co    0.76027   -0.47579   -0.54127
 79 Cr   -0.47243    0.32881   -0.68746
 80 Ni   -0.72281    0.26700   -0.76027
 81 Fe   -0.30159   -0.46606   -0.51324
 82 Ni    0.09128   -1.05226    1.47160
 83 Fe    0.17272    1.03858   -0.75573
 84 Cr   -2.21538   -0.49613   -0.13566
 85 Cr   -1.24275   -0.32376    0.64637
 86 Cr    1.35904   -1.40745    0.10121
 87 Al    1.24484    1.31127   -0.98195
 88 Cr   -0.36706    1.76545    3.68748
 89 Al    0.16833    0.49140   -0.68481
 90 Co    0.23269    2.29831    1.48326
 91 Ni   -1.71773   -1.44499    0.68325
 92 Cr   -0.51895   -0.22987    0.72354
 93 Co    0.88701    0.07896    1.06274
 94 Ni    0.06624    1.15379    0.62162
 95 Fe    0.22832   -0.51830    0.43985
 96 Al   -0.64119    0.13399   -1.01553
 97 Al   -0.24235   -0.33849    0.73357
 98 Fe   -0.65333   -0.36156    0.70691
 99 Co    0.49579    0.07408   -0.77357
100 Fe    0.42658   -0.87222   -0.08567
101 Co   -0.09862    0.02816    0.30425
102 Al    0.73223   -0.54087    1.45521
103 Fe   -0.73452    1.28780   -1.24887
104 Co    0.97150   -1.07040   -1.27863
105 Ni   -1.21411    0.40980    0.38385
106 Al    0.01402    0.66121   -0.61954
107 Cr    1.28631   -0.59160   -0.10776

Timing:                              incl.     excl.
-----------------------------------------------------------
Forces:                             15.888    15.888   0.1% |
Hamiltonian:                         0.568     0.004   0.0% |
 Atomic:                             0.351     0.110   0.0% |
  XC Correction:                     0.241     0.241   0.0% |
 Calculate atomic Hamiltonians:      0.121     0.121   0.0% |
 Communicate:                        0.000     0.000   0.0% |
 Initialize Hamiltonian:             0.000     0.000   0.0% |
 Poisson:                            0.000     0.000   0.0% |
 XC 3D grid:                         0.093     0.093   0.0% |
LCAO initialization:               106.022     1.011   0.0% |
 LCAO eigensolver:                  10.976     0.009   0.0% |
  Calculate projections:             0.301     0.301   0.0% |
  DenseAtomicCorrection:             0.440     0.440   0.0% |
  Distribute overlap matrix:         1.324     1.324   0.0% |
  Orbital Layouts:                   5.573     5.573   0.0% |
  Potential matrix:                  2.799     2.799   0.0% |
  Sum over cells:                    0.531     0.531   0.0% |
 LCAO to grid:                      92.525    92.525   0.5% |
 Set positions (LCAO WFS):           1.509     0.701   0.0% |
  Basic WFS set positions:           0.003     0.003   0.0% |
  Basis functions set positions:     0.001     0.001   0.0% |
  P tci:                             0.416     0.416   0.0% |
  ST tci:                            0.152     0.152   0.0% |
  mktci:                             0.236     0.236   0.0% |
PWDescriptor:                        0.038     0.038   0.0% |
SCF-cycle:                       19068.655     0.843   0.0% |
 Davidson:                       18741.088  5142.478  26.8% |----------|
  Apply H:                         180.141   175.854   0.9% |
   HMM T:                            4.287     4.287   0.0% |
  Subspace diag:                  1790.870     0.162   0.0% |
   calc_h_matrix:                  676.367   445.444   2.3% ||
    Apply H:                       230.922   226.296   1.2% |
     HMM T:                          4.627     4.627   0.0% |
   diagonalize:                    305.790   305.790   1.6% ||
   rotate_psi:                     808.551   808.551   4.2% |-|
  calc. matrices:                 3616.800  3300.420  17.2% |------|
   Apply H:                        316.380   308.141   1.6% ||
    HMM T:                           8.239     8.239   0.0% |
  diagonalize:                    6254.172  6254.172  32.6% |------------|
  rotate_psi:                     1756.628  1756.628   9.2% |---|
 Density:                          173.281     0.006   0.0% |
  Atomic density matrices:           4.522     4.522   0.0% |
  Mix:                              41.884    41.884   0.2% |
  Multipole moments:                 0.083     0.083   0.0% |
  Pseudo density:                  126.786   126.778   0.7% |
   Symmetrize density:               0.008     0.008   0.0% |
 Hamiltonian:                      145.199     0.845   0.0% |
  Atomic:                           89.799    26.882   0.1% |
   XC Correction:                   62.917    62.917   0.3% |
  Calculate atomic Hamiltonians:    32.432    32.432   0.2% |
  Communicate:                       0.436     0.436   0.0% |
  Poisson:                           0.145     0.145   0.0% |
  XC 3D grid:                       21.543    21.543   0.1% |
 Orthonormalize:                     8.243     0.001   0.0% |
  calc_s_matrix:                     1.044     1.044   0.0% |
  inverse-cholesky:                  0.488     0.488   0.0% |
  projections:                       5.035     5.035   0.0% |
  rotate_psi_s:                      1.675     1.675   0.0% |
Set symmetry:                        0.001     0.001   0.0% |
Other:                               2.589     2.589   0.0% |
-----------------------------------------------------------
Total:                                     19193.761 100.0%

Date: Fri Apr 14 09:43:02 2023
