
  ___ ___ ___ _ _ _  
 |   |   |_  | | | | 
 | | | | | . | | | | 
 |__ |  _|___|_____|  22.8.0
 |___|_|             

User:   c.zeng@d0106
Date:   Mon Apr 17 14:24:45 2023
Arch:   x86_64
Pid:    91781
CWD:    /home/c.zeng/projects/hea-corrosion/hea-mlp/data-curation/surface-md/dft-jobs/55
Python: 3.8.1
gpaw:   /home/c.zeng/usr/installs/gpaw/source/gpaw-22.8.0/gpaw
_gpaw:  /home/c.zeng/usr/installs/gpaw/source/gpaw-22.8.0/
        _gpaw.cpython-38-x86_64-linux-gnu.so
ase:    /home/c.zeng/.local/lib/python3.8/site-packages/ase-3.22.1-py3.8.egg/ase (version 3.22.1)
numpy:  /home/c.zeng/.local/lib/python3.8/site-packages/numpy (version 1.24.2)
scipy:  /home/c.zeng/.local/lib/python3.8/site-packages/scipy (version 1.10.1)
libxc:  4.2.3
units:  Angstrom and eV
cores: 30
OpenMP: False
OMP_NUM_THREADS: 1

Input parameters:
  convergence: {energy: 0.0001}
  kpts: [2 2 1]
  maxiter: 666
  mode: {ecut: 350.0,
         name: pw}
  occupations: {fixmagmom: False,
                name: fermi-dirac,
                width: 0.1}
  poissonsolver: {dipolelayer: xy}
  spinpol: True
  symmetry: {point_group: False}
  xc: PBE

System changes: positions, numbers, cell, pbc, initial_charges, initial_magmoms 

Initialize ...

species:
  Al:
    name: Aluminium
    id: 0292cae29f5d6237e50f6abdd43a7bdd
    Z: 13.0
    valence: 3
    core: 10
    charge: 0.0
    file: /home/c.zeng/usr/data/gpaw-setups-0.9.20000/Al.PBE.gz
    compensation charges: {type: gauss,
                           rc: 0.34,
                           lmax: 2}
    cutoffs: {filter: 1.91,
              core: 2.36}
    valence states:
      #              energy  rcut
      - 3s(2.00)    -7.753   1.085
      - 3p(1.00)    -2.712   1.085
      -  s          19.459   1.085
      -  p          24.499   1.085
      -  d           0.000   1.085
  
    # Using partial waves for Al as LCAO basis

  Ni:
    name: Nickel
    id: 0d9f38a9d6e76a2886f07bb4381f212b
    Z: 28.0
    valence: 16
    core: 12
    charge: 0.0
    file: /home/c.zeng/usr/data/gpaw-setups-0.9.20000/Ni.PBE.gz
    compensation charges: {type: gauss,
                           rc: 0.36,
                           lmax: 2}
    cutoffs: {filter: 2.14,
              core: 1.98}
    valence states:
      #              energy  rcut
      - 4s(2.00)    -5.642   1.164
      - 3p(6.00)   -71.394   1.207
      - 4p(0.00)    -1.226   1.207
      - 3d(8.00)    -8.875   1.138
      -  s          21.570   1.164
      -  d          18.337   1.138
  
    # Using partial waves for Ni as LCAO basis

  Fe:
    name: Iron
    id: 37abbd8d6c3c35915a9b583b742da910
    Z: 26.0
    valence: 8
    core: 18
    charge: 0.0
    file: /home/c.zeng/usr/data/gpaw-setups-0.9.20000/Fe.PBE.gz
    compensation charges: {type: gauss,
                           rc: 0.33,
                           lmax: 2}
    cutoffs: {filter: 2.06,
              core: 2.67}
    valence states:
      #              energy  rcut
      - 4s(2.00)    -5.291   1.164
      - 4p(0.00)    -1.326   1.058
      - 3d(6.00)    -7.505   1.058
      -  s          21.920   1.164
      -  p          25.885   1.058
      -  d          19.706   1.058
  
    # Using partial waves for Fe as LCAO basis

  Cr:
    name: Chromium
    id: 33f258bda2ca9f93018e70263a35547b
    Z: 24.0
    valence: 6
    core: 18
    charge: 0.0
    file: /home/c.zeng/usr/data/gpaw-setups-0.9.20000/Cr.PBE.gz
    compensation charges: {type: gauss,
                           rc: 0.35,
                           lmax: 2}
    cutoffs: {filter: 2.14,
              core: 3.04}
    valence states:
      #              energy  rcut
      - 4s(1.00)    -4.007   1.164
      - 4p(0.00)    -0.989   1.217
      - 3d(5.00)    -2.913   1.111
      -  s          23.205   1.164
      -  p          26.223   1.217
      -  d          24.299   1.111
  
    # Using partial waves for Cr as LCAO basis

  Co:
    name: Cobalt
    id: 339d20d5b0b93d2de9531a1bee871d91
    Z: 27.0
    valence: 9
    core: 18
    charge: 0.0
    file: /home/c.zeng/usr/data/gpaw-setups-0.9.20000/Co.PBE.gz
    compensation charges: {type: gauss,
                           rc: 0.32,
                           lmax: 2}
    cutoffs: {filter: 1.87,
              core: 2.55}
    valence states:
      #              energy  rcut
      - 4s(2.00)    -5.469   1.005
      - 4p(0.00)    -1.277   1.058
      - 3d(7.00)    -8.205   1.005
      -  s          21.742   1.005
      -  p          25.934   1.058
      -  d          19.007   1.005
  
    # Using partial waves for Co as LCAO basis

Reference energy: -4103091.665053  # eV

Spin-polarized calculation.
Magnetic moment: 158.800000

Convergence criteria:
 Maximum [total energy] change in last 3 cyles: 0.0001 eV / electron
 Maximum integral of absolute [dens]ity change: 0.0001 electrons / valence electron
 Maximum integral of absolute [eigenst]ate change: 4e-08 eV^2 / valence electron
 Maximum number of scf [iter]ations: 666
 (Square brackets indicate name in SCF output, whereas a 'c' in
 the SCF output indicates the quantity has converged.)

Symmetries present (total): 1

  ( 1  0  0)
  ( 0  1  0)
  ( 0  0  1)

4 k-points: 2 x 2 x 1 Monkhorst-Pack grid
2 k-points in the irreducible part of the Brillouin zone
       k-points in crystal coordinates                weights
   0:     0.25000000   -0.25000000    0.00000000          2/4
   1:     0.25000000    0.25000000    0.00000000          2/4

Wave functions: Plane wave expansion
  Cutoff energy: 350.000 eV
  Number of coefficients (min, max): 59263, 59339
  Pulay-stress correction: 0.000000 eV/Ang^3 (de/decut=0.000000)
  Using FFTW library
  ScaLapack parameters: grid=1x1, blocksize=None
  Wavefunction extrapolation:
    Improved wavefunction reuse through dual PAW basis 

Occupation numbers: Fermi-Dirac:
  width: 0.1000  # eV
 

Eigensolver
   Davidson(niter=2) 

Densities:
  Coarse grid: 56*56*128 grid
  Fine grid: 112*112*256 grid
  Total Charge: 0.000000 

Density mixing:
  Method: difference
  Backend: pulay
  Linear mixing parameter: 0.05
  old densities: 5
  Damping of long wavelength oscillations: 50 

Hamiltonian:
  XC and Coulomb potentials evaluated on a 112*112*256 grid
  Using the PBE Exchange-Correlation functional
  External potential:
    NoExternalPotential
 

XC parameters: PBE with 2 nearest neighbor stencil

Memory estimate:
  Process memory now: 379.70 MiB
  Calculator: 2263.81 MiB
    Density: 18.78 MiB
      Arrays: 7.39 MiB
      Localized functions: 8.44 MiB
      Mixer: 2.95 MiB
    Hamiltonian: 5.74 MiB
      Arrays: 5.49 MiB
      XC: 0.00 MiB
      Poisson: 0.00 MiB
      vbar: 0.26 MiB
    Wavefunctions: 2239.28 MiB
      Arrays psit_nG: 1414.30 MiB
      Eigensolver: 804.77 MiB
      Projections: 3.48 MiB
      Projectors: 1.15 MiB
      PW-descriptor: 15.58 MiB

Total number of cores used: 30
Parallelization over k-points: 2
Domain decomposition: 1 x 3 x 5

Number of atoms: 125
Number of atomic orbitals: 1149
Number of bands in calculation: 781
Number of valence electrons: 1136
Bands to converge: occupied

... initialized

Initializing position-dependent things.

Density initialized from atomic densities
Creating initial wave functions:
  781 bands from LCAO basis set

                                                                   
                                                                   
                                                                   
                                                                   
                                                                   
                                                                   
                         Fe          Ni        Co     Ni           
                               CNi     Ni  Cr    Co                
                      Cr  NiCr  Ni          Cr    Feo     Ni       
               Fe       Co  Co    Co  Co     Fe      Fe            
                  Fe             Fe     Co    Ni                   
       Co  Fe Co    Cr Al Ni CAl    Fe    Co    Ni    Al           
                  Cr  CrNi    Fe   Cr     ACo   Cr                 
                          Cr  Fe    CoNi  Ni     Co                
               Fe   Cr   AlCo   NiCr   Fe             Fe           
                      Ni        Co    Cr Fe CCr  Cr                
               Ni Ni        Cr   FNi  Fe           AlNi            
            Co         Al     Co  FeNi Ni    Co Fe       Cr        
                  Cr   Cr   CCr    Ni    FeFeAl     Ni             
                        Cr     Al    Fe Co    FeNi   Ni            
       Fe     Fe    Fe  Cr     Co Al Cr   Cr Cr                    
               Ni    Fe        Fe     Ni                           
                          Co      Ni    Al                         
                     Fe    Cr                                      
                                                                   
                                                                   
                                                                   
                                                                   
                                                                   

Positions:
   0 Al    13.044014    1.023149   10.693181    ( 0.0000,  0.0000,  0.0000)
   1 Ni     2.783604    1.398091   10.789530    ( 0.0000,  0.0000,  1.5000)
   2 Fe     5.293073    1.109426    9.412855    ( 0.0000,  0.0000,  2.0000)
   3 Cr     7.598703    1.181255    9.414598    ( 0.0000,  0.0000,  0.0000)
   4 Ni    10.469311    0.878145   10.295615    ( 0.0000,  0.0000,  1.5000)
   5 Cr    14.090561    3.630392   10.596494    ( 0.0000,  0.0000,  0.0000)
   6 Fe     4.124186    3.168847   10.841696    ( 0.0000,  0.0000,  2.0000)
   7 Co     6.474179    3.578060    9.343995    ( 0.0000,  0.0000,  2.1000)
   8 Fe     8.758651    3.490655    9.914623    ( 0.0000,  0.0000,  2.0000)
   9 Ni    11.542759    3.160942   10.447243    ( 0.0000,  0.0000,  1.5000)
  10 Ni    15.170565    5.618669   10.619769    ( 0.0000,  0.0000,  1.5000)
  11 Cr     5.454068    5.421392   10.639109    ( 0.0000,  0.0000,  0.0000)
  12 Co     7.921995    5.702351    9.853416    ( 0.0000,  0.0000,  2.1000)
  13 Cr    10.434071    5.439695    9.800021    ( 0.0000,  0.0000,  0.0000)
  14 Cr    12.707834    5.336186   10.200975    ( 0.0000,  0.0000,  0.0000)
  15 Ni    16.514998    7.516436    9.391318    ( 0.0000,  0.0000,  1.5000)
  16 Co     6.408418    7.646778   10.536287    ( 0.0000,  0.0000,  2.1000)
  17 Al     8.935510    7.811691    9.146107    ( 0.0000,  0.0000,  0.0000)
  18 Co    11.466508    7.621383    9.868512    ( 0.0000,  0.0000,  2.1000)
  19 Fe    13.879768    7.582427    9.850639    ( 0.0000,  0.0000,  2.0000)
  20 Cr    17.621255    9.555070   10.665159    ( 0.0000,  0.0000,  0.0000)
  21 Fe     7.829136    9.553986   10.908239    ( 0.0000,  0.0000,  2.0000)
  22 Co    10.118862   10.100234    9.791655    ( 0.0000,  0.0000,  2.1000)
  23 Al    12.800925    9.774518    9.619117    ( 0.0000,  0.0000,  0.0000)
  24 Ni    15.378360    9.938953    9.576668    ( 0.0000,  0.0000,  1.5000)
  25 Fe    -0.029609   -0.224495   12.619710    ( 0.0000,  0.0000,  2.0000)
  26 Fe     2.826606   -0.247413   12.874212    ( 0.0000,  0.0000,  2.0000)
  27 Fe     5.210791    0.076604   11.702012    ( 0.0000,  0.0000,  2.0000)
  28 Cr    14.210561   10.750873   11.658427    ( 0.0000,  0.0000,  0.0000)
  29 Fe    16.378192   10.609026   12.579821    ( 0.0000,  0.0000,  2.0000)
  30 Fe    13.858571    2.083722   12.838418    ( 0.0000,  0.0000,  2.0000)
  31 Cr     3.844828    1.769642   13.035500    ( 0.0000,  0.0000,  0.0000)
  32 Cr     6.243689    2.220908   11.326352    ( 0.0000,  0.0000,  0.0000)
  33 Al     9.010200    2.110971   12.004342    ( 0.0000,  0.0000,  0.0000)
  34 Fe    11.325649    1.870269   12.491473    ( 0.0000,  0.0000,  2.0000)
  35 Fe    15.228359    4.214654   12.564787    ( 0.0000,  0.0000,  2.0000)
  36 Al     5.270085    3.897516   12.891758    ( 0.0000,  0.0000,  0.0000)
  37 Cr     7.699011    4.568394   11.894290    ( 0.0000,  0.0000,  0.0000)
  38 Ni    10.085072    4.457894   12.229609    ( 0.0000,  0.0000,  1.5000)
  39 Fe    12.544586    4.068431   12.488245    ( 0.0000,  0.0000,  2.0000)
  40 Ni    16.675204    6.178307   12.847762    ( 0.0000,  0.0000,  1.5000)
  41 Co     6.578684    6.349561   13.037580    ( 0.0000,  0.0000,  2.1000)
  42 Fe     9.011536    6.769928   11.970634    ( 0.0000,  0.0000,  2.0000)
  43 Ni    11.190894    6.369239   12.147446    ( 0.0000,  0.0000,  1.5000)
  44 Co    13.583550    6.599151   11.967009    ( 0.0000,  0.0000,  2.1000)
  45 Al     5.174366    8.512495   13.022516    ( 0.0000,  0.0000,  0.0000)
  46 Ni     7.657749    8.643596   13.050448    ( 0.0000,  0.0000,  1.5000)
  47 Fe    10.087273    8.733032   11.926162    ( 0.0000,  0.0000,  2.0000)
  48 Co    12.671428    8.870152   11.992830    ( 0.0000,  0.0000,  2.1000)
  49 Al    15.409853    8.275500   11.818171    ( 0.0000,  0.0000,  0.0000)
  50 Co     1.635874    0.702172   14.581305    ( 0.0000,  0.0000,  2.1000)
  51 Ni     4.092333    0.818173   15.228849    ( 0.0000,  0.0000,  1.5000)
  52 Cr     6.165182    1.005999   13.732767    ( 0.0000,  0.0000,  0.0000)
  53 Co     8.742065    1.006105   14.122923    ( 0.0000,  0.0000,  2.1000)
  54 Ni    11.405680    0.833224   14.494008    ( 0.0000,  0.0000,  1.5000)
  55 Ni     2.331367    2.915243   14.687189    ( 0.0000,  0.0000,  1.5000)
  56 Ni     5.102703    2.827426   15.253358    ( 0.0000,  0.0000,  1.5000)
  57 Cr     7.407914    3.232379   14.144484    ( 0.0000,  0.0000,  0.0000)
  58 Ni    10.016199    2.963493   14.399980    ( 0.0000,  0.0000,  1.5000)
  59 Fe    12.576285    3.022811   14.715776    ( 0.0000,  0.0000,  2.0000)
  60 Cr     3.749313    5.036051   14.818292    ( 0.0000,  0.0000,  0.0000)
  61 Cr     6.183465    5.129211   15.357475    ( 0.0000,  0.0000,  0.0000)
  62 Co     8.608974    5.411665   14.009215    ( 0.0000,  0.0000,  2.1000)
  63 Cr    11.144091    4.918101   14.595018    ( 0.0000,  0.0000,  0.0000)
  64 Cr    13.821851    5.288556   14.426713    ( 0.0000,  0.0000,  0.0000)
  65 Ni     5.048734    7.119752   15.282740    ( 0.0000,  0.0000,  1.5000)
  66 Fe     7.402435    7.430938   15.155998    ( 0.0000,  0.0000,  2.0000)
  67 Co     9.763340    7.557698   14.337489    ( 0.0000,  0.0000,  2.1000)
  68 Ni    12.306396    7.482565   14.210691    ( 0.0000,  0.0000,  1.5000)
  69 Co    14.885853    7.156608   14.851573    ( 0.0000,  0.0000,  2.1000)
  70 Co     6.425364    9.701988   15.101903    ( 0.0000,  0.0000,  2.1000)
  71 Cr     9.051413    9.787372   15.507221    ( 0.0000,  0.0000,  0.0000)
  72 Al    11.417031    9.616294   14.147463    ( 0.0000,  0.0000,  0.0000)
  73 Cr    13.989836    9.368450   14.565619    ( 0.0000,  0.0000,  0.0000)
  74 Al    16.480579    9.613804   15.286719    ( 0.0000,  0.0000,  0.0000)
  75 Fe    12.483765    1.459305   16.518802    ( 0.0000,  0.0000,  2.0000)
  76 Fe     2.396872    1.690428   16.826551    ( 0.0000,  0.0000,  2.0000)
  77 Cr     5.424986    1.635426   17.980896    ( 0.0000,  0.0000,  0.0000)
  78 Co     7.585321    1.685857   16.216770    ( 0.0000,  0.0000,  2.1000)
  79 Cr    10.191775    1.525018   16.381111    ( 0.0000,  0.0000,  0.0000)
  80 Co    13.530512    3.896000   16.828792    ( 0.0000,  0.0000,  2.1000)
  81 Cr     3.423842    3.687367   17.377607    ( 0.0000,  0.0000,  0.0000)
  82 Ni     6.453263    3.732513   17.813611    ( 0.0000,  0.0000,  1.5000)
  83 Fe     8.290630    3.887814   16.322078    ( 0.0000,  0.0000,  2.0000)
  84 Ni    11.166347    3.946768   16.544886    ( 0.0000,  0.0000,  1.5000)
  85 Ni    15.050769    5.978858   16.905555    ( 0.0000,  0.0000,  1.5000)
  86 Al     4.813725    5.507758   17.374201    ( 0.0000,  0.0000,  0.0000)
  87 Cr     7.630475    5.936842   17.342529    ( 0.0000,  0.0000,  0.0000)
  88 Cr     9.603687    5.929562   16.170775    ( 0.0000,  0.0000,  0.0000)
  89 Co    12.259791    6.165239   16.545481    ( 0.0000,  0.0000,  2.1000)
  90 Fe    16.333786    7.933984   17.377573    ( 0.0000,  0.0000,  2.0000)
  91 Co     6.092374    8.151256   17.109803    ( 0.0000,  0.0000,  2.1000)
  92 Co     8.914293    7.930541   17.358658    ( 0.0000,  0.0000,  2.1000)
  93 Al    11.038862    8.333711   16.465886    ( 0.0000,  0.0000,  0.0000)
  94 Ni    13.621989    7.952259   16.790065    ( 0.0000,  0.0000,  1.5000)
  95 Ni    17.707092   10.378235   17.255122    ( 0.0000,  0.0000,  1.5000)
  96 Ni     7.594344   10.214992   17.300152    ( 0.0000,  0.0000,  1.5000)
  97 Ni    10.191207   10.483389   17.630010    ( 0.0000,  0.0000,  1.5000)
  98 Fe    12.489017   10.418131   16.702397    ( 0.0000,  0.0000,  2.0000)
  99 Co    15.001033   10.411880   16.953413    ( 0.0000,  0.0000,  2.1000)
 100 Co    -0.142017    0.167919   19.545209    ( 0.0000,  0.0000,  2.1000)
 101 Co     2.378430    0.024104   19.550591    ( 0.0000,  0.0000,  2.1000)
 102 Cr     5.094859   -0.095487   19.946030    ( 0.0000,  0.0000,  0.0000)
 103 Co    13.406040   10.934585   18.660527    ( 0.0000,  0.0000,  2.1000)
 104 Ni    16.088033   10.901953   18.933642    ( 0.0000,  0.0000,  1.5000)
 105 Fe     0.960831    2.095893   18.912330    ( 0.0000,  0.0000,  2.0000)
 106 Fe     3.644786    2.174057   19.723934    ( 0.0000,  0.0000,  2.0000)
 107 Co     6.095228    2.438182   20.475681    ( 0.0000,  0.0000,  2.1000)
 108 Al     8.384666    2.414719   18.614210    ( 0.0000,  0.0000,  0.0000)
 109 Fe    10.951700    2.186077   18.411839    ( 0.0000,  0.0000,  2.0000)
 110 Fe     2.131963    4.227613   19.260253    ( 0.0000,  0.0000,  2.0000)
 111 Cr     4.855736    4.449543   20.175922    ( 0.0000,  0.0000,  0.0000)
 112 Cr     7.237617    4.331128   19.849755    ( 0.0000,  0.0000,  0.0000)
 113 Fe     9.323856    4.476973   18.397082    ( 0.0000,  0.0000,  2.0000)
 114 Co    11.832420    4.578019   18.732799    ( 0.0000,  0.0000,  2.1000)
 115 Fe    15.634014    6.314517   19.190547    ( 0.0000,  0.0000,  2.0000)
 116 Ni     5.876329    6.637206   19.395165    ( 0.0000,  0.0000,  1.5000)
 117 Ni     8.451596    6.631301   19.800051    ( 0.0000,  0.0000,  1.5000)
 118 Co    10.571508    6.515009   18.521769    ( 0.0000,  0.0000,  2.1000)
 119 Cr    13.318637    6.483952   18.718512    ( 0.0000,  0.0000,  0.0000)
 120 Fe     4.899735    8.660399   19.525567    ( 0.0000,  0.0000,  2.0000)
 121 Co     7.281481    8.737046   19.103472    ( 0.0000,  0.0000,  2.1000)
 122 Ni     9.774786    8.753854   19.540020    ( 0.0000,  0.0000,  1.5000)
 123 Cr    12.251613    8.890764   18.564084    ( 0.0000,  0.0000,  0.0000)
 124 Co    14.789001    8.818233   18.995775    ( 0.0000,  0.0000,  2.1000)

Unit cell:
           periodic     x           y           z      points  spacing
  1. axis:    yes   12.530300    0.000000    0.000000    56     0.1938
  2. axis:    yes    6.259130   10.841100    0.000000    56     0.1936
  3. axis:    no     0.000000    0.000000   29.353100   128     0.2293

  Lengths:  12.530300  12.518233  29.353100
  Angles:   90.000000  90.000000  59.999929

Effective grid spacing dv^(1/3) = 0.2150

     iter     time        total  log10-change:  magmom
                         energy  eigst   dens
iter:   1 14:32:19 -1193.533268                  +159.1295
iter:   2 14:34:52 -1647.147735  +0.29  -1.09    +86.9974
iter:   3 14:37:24 -3788.760949  +1.55  -0.83    +57.9199
iter:   4 14:39:57 -1016.091869  +0.42  -0.50    +26.8113
iter:   5 14:42:29  -977.117296  +0.08  -1.17    +24.8608
iter:   6 14:45:02  -975.303781  -0.34  -1.22    +24.0383
iter:   7 14:47:35  -958.171099  -0.88  -1.23    +24.5238
iter:   8 14:50:07  -962.847313  -0.84  -1.26    +25.6943
iter:   9 14:52:40 -1424.832823  -0.64  -1.23    +28.1845
iter:  10 14:55:12  -946.452675  -1.01  -0.89    +25.7275
iter:  11 14:57:45  -941.481705  -1.60  -1.32    +26.1713
iter:  12 15:00:17  -944.191722  -1.42  -1.34    +28.7454
iter:  13 15:02:50  -964.503871  -1.26  -1.37    +29.5330
iter:  14 15:05:22  -965.243919  -1.47  -1.30    +31.7405
iter:  15 15:07:54  -937.348044  -1.64  -1.32    +31.9461
iter:  16 15:10:26  -986.226319  -1.47  -1.43    +33.1233
iter:  17 15:12:59  -920.974140  -1.78  -1.23    +33.7303
iter:  18 15:15:31  -916.734443  -2.25  -1.55    +36.5260
iter:  19 15:18:03  -940.927992  -1.78  -1.62    +38.3139
iter:  20 15:20:36  -933.320903  -1.76  -1.45    +40.8355
iter:  21 15:23:08  -921.478621  -2.20  -1.48    +42.3638
iter:  22 15:25:40  -919.663149  -2.41  -1.60    +46.6409
iter:  23 15:28:13  -944.590703  -1.93  -1.67    +50.6126
iter:  24 15:30:45  -919.539801  -2.09  -1.43    +52.2326
iter:  25 15:33:17  -922.940499  -2.10  -1.71    +55.6571
iter:  26 15:35:50  -924.579742  -2.01  -1.74    +56.1869
iter:  27 15:38:22  -943.134141  -1.99  -1.71    +57.9575
iter:  28 15:40:54  -924.247311  -2.62  -1.47    +60.5805
iter:  29 15:43:26  -921.210346  -2.58  -1.74    +65.1534
iter:  30 15:45:58  -929.730564  -2.45  -1.86    +67.2588
iter:  31 15:48:30  -923.259845  -2.19  -1.66    +68.0960
iter:  32 15:51:03  -925.849533  -2.45  -1.84    +68.2561
iter:  33 15:53:36  -921.358202  -2.92  -1.76    +68.6099
iter:  34 15:56:08  -922.673240  -2.92  -2.00    +69.2914
iter:  35 15:58:40  -922.811032  -3.09  -1.94    +69.2539
iter:  36 16:01:13  -922.527983  -2.86  -1.96    +69.4308
iter:  37 16:03:45  -921.856428  -2.88  -1.99    +69.1223
iter:  38 16:06:17  -922.765861  -2.80  -2.15    +67.5955
iter:  39 16:08:50  -925.021657  -2.81  -2.12    +67.3098
iter:  40 16:11:22  -922.979997  -2.92  -1.93    +67.6218
iter:  41 16:13:54  -923.782000  -2.90  -2.22    +67.5077
iter:  42 16:16:26  -924.118033  -2.94  -2.11    +66.9514
iter:  43 16:18:59  -923.628349  -3.26  -2.10    +67.2012
iter:  44 16:21:31  -923.464957  -3.24  -2.21    +66.9487
iter:  45 16:24:04  -926.178006  -3.01  -2.29    +66.8874
iter:  46 16:26:36  -923.549196  -3.33  -1.99    +66.9478
iter:  47 16:29:08  -923.818800  -3.45  -2.37    +66.5976
iter:  48 16:31:41  -924.827125  -3.16  -2.35    +66.6502
iter:  49 16:34:13  -923.906460  -3.41  -2.15    +66.7475
iter:  50 16:36:45  -924.117356  -3.42  -2.42    +66.8037
iter:  51 16:39:18  -925.629325  -3.17  -2.40    +66.5739
iter:  52 16:41:50  -924.209542  -3.32  -2.07    +66.5986
iter:  53 16:44:23  -924.186134  -3.91  -2.39    +66.7778
iter:  54 16:46:55  -924.219075c -3.83  -2.43    +66.6377
iter:  55 16:49:27  -924.332970  -3.85  -2.46    +67.0633
iter:  56 16:51:59  -924.472914  -3.86  -2.45    +67.6241
iter:  57 16:54:32  -924.585634  -3.72  -2.42    +67.8294
iter:  58 16:57:04  -925.300344  -3.68  -2.39    +68.0154
iter:  59 16:59:37  -924.936247  -3.64  -2.25    +68.4074
iter:  60 17:02:09  -925.406885  -3.59  -2.41    +68.6475
iter:  61 17:04:42  -924.945465  -3.08  -2.36    +68.9138
iter:  62 17:07:14  -924.447859  -3.46  -2.25    +68.7481
iter:  63 17:09:46  -925.791677  -3.07  -2.37    +68.6795
iter:  64 17:12:19  -925.977576  -2.99  -2.10    +68.7596
iter:  65 17:14:53  -924.937023  -3.16  -2.11    +68.4613
iter:  66 17:17:29  -924.403413  -3.45  -2.27    +68.2595
iter:  67 17:20:05  -924.879284  -3.39  -2.49    +68.6656
iter:  68 17:22:41  -924.533266  -3.50  -2.33    +68.6331
iter:  69 17:25:18  -924.503079  -3.60  -2.50    +68.5939
iter:  70 17:27:54  -927.304358  -2.99  -2.57    +68.6800
iter:  71 17:30:30  -924.597491  -3.16  -1.99    +68.7520
iter:  72 17:33:07  -924.552543  -3.90  -2.52    +68.7271
iter:  73 17:35:43  -924.385582  -4.16  -2.56    +68.6904
iter:  74 17:38:19  -924.417714  -4.36  -2.88    +68.6974
iter:  75 17:40:55  -924.421246c -4.46  -2.81    +68.7110
iter:  76 17:43:32  -924.402871c -4.62  -2.86    +68.7228
iter:  77 17:46:08  -924.468550c -4.73  -3.03    +68.7230
iter:  78 17:48:44  -924.415934c -4.57  -2.78    +68.6729
iter:  79 17:51:20  -924.436349c -4.86  -3.15    +68.6579
iter:  80 17:53:57  -924.449234c -4.44  -2.98    +68.6235
iter:  81 17:56:34  -924.416314c -4.93  -2.92    +68.6175
iter:  82 17:59:10  -924.424572c -4.78  -3.25    +68.5418
iter:  83 18:01:46  -924.431280c -4.97  -3.30    +68.5711
iter:  84 18:04:23  -924.440195c -4.99  -3.36    +68.5011
iter:  85 18:06:59  -924.443136c -5.61  -3.25    +68.4961
iter:  86 18:09:35  -924.451553c -5.10  -3.19    +68.4546
iter:  87 18:12:12  -924.450585c -4.99  -3.13    +68.4478
iter:  88 18:14:48  -924.451229c -4.91  -3.16    +68.3714
iter:  89 18:17:25  -924.449317c -4.86  -3.23    +68.3198
iter:  90 18:20:01  -924.450032c -5.27  -3.16    +68.2640
iter:  91 18:22:37  -924.449964c -4.66  -3.29    +68.2341
iter:  92 18:25:13  -924.504815c -4.54  -3.22    +68.2492
iter:  93 18:27:50  -924.442160c -4.87  -2.83    +68.2474
iter:  94 18:30:26  -924.443573c -5.27  -3.44    +68.2180
iter:  95 18:33:02  -924.446240c -5.36  -3.50    +68.1985
iter:  96 18:35:39  -924.448367c -5.66  -3.54    +68.1675
iter:  97 18:38:16  -924.448121c -5.78  -3.44    +68.1748
iter:  98 18:40:51  -924.460341c -5.24  -3.60    +68.1709
iter:  99 18:43:27  -924.450756c -5.31  -3.19    +68.1580
iter: 100 18:46:04  -924.451979c -5.79  -3.43    +68.1599
iter: 101 18:48:41  -924.450209c -5.79  -3.43    +68.1639
iter: 102 18:51:17  -924.453773c -5.58  -3.61    +68.1758
iter: 103 18:53:53  -924.451424c -5.82  -3.48    +68.1822
iter: 104 18:56:30  -924.451946c -6.15  -3.59    +68.1808
iter: 105 18:59:06  -924.453215c -5.87  -3.65    +68.1797
iter: 106 19:01:43  -924.452558c -5.97  -3.79    +68.1796
iter: 107 19:04:19  -924.453389c -5.97  -3.74    +68.1809
iter: 108 19:06:55  -924.454042c -6.10  -3.83    +68.1889
iter: 109 19:09:32  -924.453903c -6.45  -3.69    +68.1988
iter: 110 19:12:08  -924.454913c -6.24  -3.95    +68.2023
iter: 111 19:14:44  -924.454331c -6.65  -3.85    +68.2004
iter: 112 19:17:21  -924.455263c -6.30  -3.91    +68.2164
iter: 113 19:19:57  -924.455896c -6.24  -3.95    +68.2195
iter: 114 19:22:34  -924.457481c -6.19  -3.77    +68.2236
iter: 115 19:25:10  -924.455723c -6.14  -3.63    +68.2222
iter: 116 19:27:47  -924.455907c -6.36  -3.97    +68.2424
iter: 117 19:30:23  -924.456119c -6.57  -3.86    +68.2509
iter: 118 19:33:00  -924.456422c -6.43  -3.73    +68.2538
iter: 119 19:35:36  -924.457024c -6.24  -3.95    +68.2575
iter: 120 19:38:12  -924.457317c -6.63  -3.84    +68.2577
iter: 121 19:40:49  -924.457401c -6.28  -3.86    +68.2576
iter: 122 19:43:25  -924.456953c -6.51  -3.88    +68.2706
iter: 123 19:46:02  -924.459508c -5.80  -4.06c   +68.2739
iter: 124 19:48:38  -924.457480c -6.01  -3.43    +68.2726
iter: 125 19:51:15  -924.457297c -6.77  -3.92    +68.2726
iter: 126 19:53:51  -924.457653c -6.81  -4.12c   +68.2766
iter: 127 19:56:26  -924.457542c -7.05  -3.96    +68.2797
iter: 128 19:58:59  -924.457617c -6.97  -4.05c   +68.2841
iter: 129 20:01:32  -924.457171c -6.50  -4.04c   +68.2833
iter: 130 20:04:04  -924.457774c -6.60  -4.02c   +68.2814
iter: 131 20:06:37  -924.457914c -6.89  -4.07c   +68.2910
iter: 132 20:09:09  -924.457545c -6.82  -4.01c   +68.2919
iter: 133 20:11:42  -924.457684c -7.09  -4.21c   +68.2932
iter: 134 20:14:15  -924.457745c -7.15  -4.21c   +68.2944
iter: 135 20:16:47  -924.457786c -7.13  -4.25c   +68.3008
iter: 136 20:19:20  -924.457805c -7.21  -4.41c   +68.3027
iter: 137 20:21:52  -924.457774c -7.27  -4.18c   +68.3023
iter: 138 20:24:25  -924.458182c -7.25  -4.44c   +68.3026
iter: 139 20:26:57  -924.457825c -7.03  -4.16c   +68.3043
iter: 140 20:29:29  -924.457865c -6.99  -4.33c   +68.3067
iter: 141 20:32:02  -924.457995c -6.97  -4.21c   +68.3108
iter: 142 20:34:34  -924.458034c -7.25  -4.36c   +68.3079
iter: 143 20:37:06  -924.458052c -7.58c -4.42c   +68.3096

Converged after 143 iterations.

Dipole moment: (91.403070, 57.779873, -0.004869) |e|*Ang

Total magnetic moment: (0.000000, 0.000000, 68.309606)
Local magnetic moments:
   0 Al ( 0.000000,  0.000000, -0.026768)
   1 Ni ( 0.000000,  0.000000,  0.348864)
   2 Fe ( 0.000000,  0.000000,  2.377244)
   3 Cr ( 0.000000,  0.000000, -2.684951)
   4 Ni ( 0.000000,  0.000000,  0.157279)
   5 Cr ( 0.000000,  0.000000, -2.128881)
   6 Fe ( 0.000000,  0.000000,  2.249903)
   7 Co ( 0.000000,  0.000000,  1.492420)
   8 Fe ( 0.000000,  0.000000,  2.491567)
   9 Ni ( 0.000000,  0.000000,  0.251684)
  10 Ni ( 0.000000,  0.000000,  0.331743)
  11 Cr ( 0.000000,  0.000000, -2.870561)
  12 Co ( 0.000000,  0.000000,  1.194785)
  13 Cr ( 0.000000,  0.000000, -2.692786)
  14 Cr ( 0.000000,  0.000000,  1.895112)
  15 Ni ( 0.000000,  0.000000,  0.274220)
  16 Co ( 0.000000,  0.000000,  1.468529)
  17 Al ( 0.000000,  0.000000, -0.037498)
  18 Co ( 0.000000,  0.000000,  1.469231)
  19 Fe ( 0.000000,  0.000000,  2.666551)
  20 Cr ( 0.000000,  0.000000, -2.377291)
  21 Fe ( 0.000000,  0.000000,  2.529853)
  22 Co ( 0.000000,  0.000000,  1.674450)
  23 Al ( 0.000000,  0.000000, -0.033265)
  24 Ni ( 0.000000,  0.000000,  0.010977)
  25 Fe ( 0.000000,  0.000000,  2.008093)
  26 Fe ( 0.000000,  0.000000,  2.226903)
  27 Fe ( 0.000000,  0.000000,  2.122493)
  28 Cr ( 0.000000,  0.000000, -2.012698)
  29 Fe ( 0.000000,  0.000000,  1.820812)
  30 Fe ( 0.000000,  0.000000,  2.101285)
  31 Cr ( 0.000000,  0.000000, -1.840932)
  32 Cr ( 0.000000,  0.000000,  0.528755)
  33 Al ( 0.000000,  0.000000, -0.023985)
  34 Fe ( 0.000000,  0.000000,  2.233866)
  35 Fe ( 0.000000,  0.000000,  2.126148)
  36 Al ( 0.000000,  0.000000, -0.012579)
  37 Cr ( 0.000000,  0.000000, -1.562276)
  38 Ni ( 0.000000,  0.000000,  0.219525)
  39 Fe ( 0.000000,  0.000000,  2.214917)
  40 Ni ( 0.000000,  0.000000,  0.155037)
  41 Co ( 0.000000,  0.000000,  1.160290)
  42 Fe ( 0.000000,  0.000000,  2.507130)
  43 Ni ( 0.000000,  0.000000,  0.528744)
  44 Co ( 0.000000,  0.000000,  1.341791)
  45 Al ( 0.000000,  0.000000, -0.025230)
  46 Ni ( 0.000000,  0.000000,  0.584421)
  47 Fe ( 0.000000,  0.000000,  2.484169)
  48 Co ( 0.000000,  0.000000,  1.171406)
  49 Al ( 0.000000,  0.000000, -0.015884)
  50 Co ( 0.000000,  0.000000,  1.260390)
  51 Ni ( 0.000000,  0.000000,  0.007259)
  52 Cr ( 0.000000,  0.000000,  1.954482)
  53 Co ( 0.000000,  0.000000,  1.142373)
  54 Ni ( 0.000000,  0.000000,  0.330732)
  55 Ni ( 0.000000,  0.000000,  0.399870)
  56 Ni ( 0.000000,  0.000000,  0.041984)
  57 Cr ( 0.000000,  0.000000,  1.644394)
  58 Ni ( 0.000000,  0.000000,  0.192679)
  59 Fe ( 0.000000,  0.000000,  2.044543)
  60 Cr ( 0.000000,  0.000000,  1.855531)
  61 Cr ( 0.000000,  0.000000, -2.062897)
  62 Co ( 0.000000,  0.000000,  1.057926)
  63 Cr ( 0.000000,  0.000000, -1.755213)
  64 Cr ( 0.000000,  0.000000, -2.087787)
  65 Ni ( 0.000000,  0.000000,  0.148477)
  66 Fe ( 0.000000,  0.000000,  2.477306)
  67 Co ( 0.000000,  0.000000,  1.095879)
  68 Ni ( 0.000000,  0.000000,  0.064948)
  69 Co ( 0.000000,  0.000000,  0.994892)
  70 Co ( 0.000000,  0.000000,  1.250184)
  71 Cr ( 0.000000,  0.000000, -2.049447)
  72 Al ( 0.000000,  0.000000, -0.016116)
  73 Cr ( 0.000000,  0.000000, -2.925719)
  74 Al ( 0.000000,  0.000000, -0.024688)
  75 Fe ( 0.000000,  0.000000,  2.352891)
  76 Fe ( 0.000000,  0.000000,  2.544149)
  77 Cr ( 0.000000,  0.000000, -2.487398)
  78 Co ( 0.000000,  0.000000,  1.330876)
  79 Cr ( 0.000000,  0.000000, -2.020739)
  80 Co ( 0.000000,  0.000000,  1.564206)
  81 Cr ( 0.000000,  0.000000, -2.405790)
  82 Ni ( 0.000000,  0.000000, -0.146910)
  83 Fe ( 0.000000,  0.000000,  1.889502)
  84 Ni ( 0.000000,  0.000000,  0.245043)
  85 Ni ( 0.000000,  0.000000,  0.289803)
  86 Al ( 0.000000,  0.000000, -0.006331)
  87 Cr ( 0.000000,  0.000000, -1.395553)
  88 Cr ( 0.000000,  0.000000,  0.513385)
  89 Co ( 0.000000,  0.000000,  1.126560)
  90 Fe ( 0.000000,  0.000000,  2.554203)
  91 Co ( 0.000000,  0.000000,  1.608256)
  92 Co ( 0.000000,  0.000000,  1.108047)
  93 Al ( 0.000000,  0.000000, -0.022574)
  94 Ni ( 0.000000,  0.000000,  0.403935)
  95 Ni ( 0.000000,  0.000000,  0.448231)
  96 Ni ( 0.000000,  0.000000,  0.471162)
  97 Ni ( 0.000000,  0.000000,  0.243075)
  98 Fe ( 0.000000,  0.000000,  2.300077)
  99 Co ( 0.000000,  0.000000,  1.304600)
 100 Co ( 0.000000,  0.000000,  1.912540)
 101 Co ( 0.000000,  0.000000,  1.777174)
 102 Cr ( 0.000000,  0.000000, -3.085132)
 103 Co ( 0.000000,  0.000000,  1.160166)
 104 Ni ( 0.000000,  0.000000,  0.597370)
 105 Fe ( 0.000000,  0.000000,  2.765298)
 106 Fe ( 0.000000,  0.000000,  2.690435)
 107 Co ( 0.000000,  0.000000, -1.219330)
 108 Al ( 0.000000,  0.000000, -0.024160)
 109 Fe ( 0.000000,  0.000000,  2.408640)
 110 Fe ( 0.000000,  0.000000,  2.516696)
 111 Cr ( 0.000000,  0.000000, -3.027868)
 112 Cr ( 0.000000,  0.000000, -2.383364)
 113 Fe ( 0.000000,  0.000000,  2.140969)
 114 Co ( 0.000000,  0.000000,  1.648865)
 115 Fe ( 0.000000,  0.000000,  2.530884)
 116 Ni ( 0.000000,  0.000000,  0.352491)
 117 Ni ( 0.000000,  0.000000,  0.540425)
 118 Co ( 0.000000,  0.000000,  1.549629)
 119 Cr ( 0.000000,  0.000000, -2.759313)
 120 Fe ( 0.000000,  0.000000,  2.975285)
 121 Co ( 0.000000,  0.000000,  1.760265)
 122 Ni ( 0.000000,  0.000000,  0.527020)
 123 Cr ( 0.000000,  0.000000,  2.207622)
 124 Co ( 0.000000,  0.000000,  1.655090)

Energy contributions relative to reference atoms: (reference = -4103091.665053)

Kinetic:       +295.249765
Potential:     -311.610919
External:        +0.000000
XC:            -944.565977
Entropy (-ST):   -5.420785
Local:          +39.179471
--------------------------
Free energy:   -927.168445
Extrapolated:  -924.458052

Dipole-layer corrected work functions: 4.625507, 4.631994 eV

Spin contamination: 59.451071 electrons
Showing all kpts
                      Up                     Down
 Kpt  Band  Eigenvalues  Occupancy  Eigenvalues  Occupancy
  0   566      0.16924    0.99687      1.03382    0.05300
  0   567      0.17528    0.99667      1.04796    0.04633
  0   568      0.19294    0.99603      1.06022    0.04121
  0   569      0.20059    0.99572      1.07006    0.03749

  1   566      0.15559    0.99727      1.04191    0.04908
  1   567      0.18075    0.99649      1.05392    0.04377
  1   568      0.18963    0.99616      1.05910    0.04165
  1   569      0.19466    0.99596      1.06537    0.03922


Fermi level: 0.74552

No gap

Forces in eV/Ang:
  0 Al   -1.00879    0.55045   -1.39193
  1 Ni    0.54394   -1.73912   -0.08712
  2 Fe   -0.59040    0.90405    0.33798
  3 Cr    1.19269    0.99130    0.17319
  4 Ni   -0.27818    1.05439    0.50821
  5 Cr   -0.22523   -1.25193    0.04465
  6 Fe    0.53099    0.85145   -1.08649
  7 Co    0.10402   -0.13125    0.82791
  8 Fe    0.18869   -0.09060    0.21539
  9 Ni   -0.54468   -0.12378   -0.09411
 10 Ni    1.94676    0.85948   -0.76731
 11 Cr   -0.67358    0.15759   -0.08443
 12 Co   -0.70206   -0.11014   -0.12417
 13 Cr   -0.74714    0.11944    0.56567
 14 Cr   -0.44485    0.09280    0.00618
 15 Ni   -0.11714    0.28922    1.63006
 16 Co    0.64145   -0.33458    0.59241
 17 Al    0.19754    0.46300    1.24209
 18 Co   -0.03944    0.69214    0.80472
 19 Fe    0.49876    0.24133   -0.07501
 20 Cr   -0.09254   -0.01664   -0.96353
 21 Fe    0.59804    0.22863   -0.77990
 22 Co   -0.00675   -0.87895    0.68532
 23 Al   -0.91939   -0.54343   -0.31544
 24 Ni   -0.97762   -1.05280    0.66852
 25 Fe    1.49088    0.09360    0.93472
 26 Fe    0.04270    0.17306   -0.38824
 27 Fe   -0.71119   -0.31230   -0.53691
 28 Cr   -0.62942   -0.79024    0.36456
 29 Fe   -0.56583   -0.55734    0.02612
 30 Fe   -0.13504   -0.08822   -2.04646
 31 Cr    0.52329    0.58905   -0.05972
 32 Cr    1.33907    0.09393    0.29817
 33 Al   -0.86751    1.18906   -0.08477
 34 Fe    0.58173    1.13009   -0.49326
 35 Fe   -0.40428   -0.30882    0.43105
 36 Al    0.20288    1.10335    1.07432
 37 Cr   -0.50080   -0.96483    0.04244
 38 Ni   -0.61602   -1.91961   -0.12433
 39 Fe    0.10628    0.93825    0.23157
 40 Ni   -0.46998    1.06116   -0.40927
 41 Co   -0.10102   -0.21596   -0.08948
 42 Fe   -2.50210   -0.79199   -0.51811
 43 Ni    2.19312    1.31756    0.31000
 44 Co   -0.02759    0.09222    1.84255
 45 Al    0.51775   -1.55013    1.06466
 46 Ni    0.24562   -0.66435    0.59015
 47 Fe    1.24421    0.38837   -0.53140
 48 Co    0.25813   -0.60340    0.37777
 49 Al   -0.37018   -0.15885   -0.33848
 50 Co   -1.57259   -0.53137    1.30187
 51 Ni    0.20181   -0.96758    0.39071
 52 Cr    1.02420    0.84651    0.50658
 53 Co   -0.50012   -1.06776    0.83277
 54 Ni   -0.05058   -0.38298    0.20444
 55 Ni    1.90383    1.48164    1.76581
 56 Ni    0.64078    0.97896    0.12280
 57 Cr    0.31705   -0.43103   -0.58462
 58 Ni   -0.44415    0.29359   -0.05521
 59 Fe   -0.89753    0.05858   -0.15393
 60 Cr   -0.06644   -0.62473    1.35730
 61 Cr    1.57071   -1.32945   -1.25981
 62 Co    0.19728   -0.42890    0.62571
 63 Cr    0.35356    2.59699   -2.28127
 64 Cr   -0.13430   -0.61401    0.14386
 65 Ni   -1.56328    1.10758   -1.03595
 66 Fe    1.08374   -0.41435    0.13958
 67 Co    0.19009    0.41819   -0.35716
 68 Ni    0.51281   -1.31848    0.22600
 69 Co    0.88134    0.92188   -0.54623
 70 Co    0.22241   -0.52952    0.09067
 71 Cr   -0.57834   -1.54040   -0.62150
 72 Al   -1.07011    0.39061   -0.73171
 73 Cr   -0.31002    0.95919   -0.53857
 74 Al    0.27966   -0.26389   -0.56166
 75 Fe    1.51154    0.55686    0.76709
 76 Fe    0.27708   -0.61428    0.72763
 77 Cr   -0.48681   -0.03983   -0.37819
 78 Co   -0.86755   -0.52615   -0.19003
 79 Cr   -1.89137    0.00727    0.46233
 80 Co    0.30146    0.01452    0.23742
 81 Cr   -0.72419   -1.91908    0.12386
 82 Ni   -1.15158    0.20241   -0.80040
 83 Fe    1.15282   -0.13873   -1.02120
 84 Ni   -1.10401   -1.19548    1.20137
 85 Ni   -1.00964   -0.93452   -0.56186
 86 Al    1.62811    2.30906    0.64046
 87 Cr   -0.15164    0.60341    0.75242
 88 Cr    0.30303    0.39739    0.47587
 89 Co   -0.54202   -1.33117   -0.24295
 90 Fe   -0.78965    0.88795   -0.04924
 91 Co    1.02417   -0.09034    0.77069
 92 Co   -1.02369    0.78014    0.35510
 93 Al    0.38288   -0.88408   -0.62555
 94 Ni    0.81610    1.68362   -0.63151
 95 Ni   -0.70872   -0.65924    0.55421
 96 Ni   -0.02346    0.59455    0.24793
 97 Ni   -0.49580   -0.45654    0.12535
 98 Fe    0.09338    0.43427   -1.91763
 99 Co   -0.49349   -0.35967   -0.43398
100 Co   -0.03609   -0.55687   -0.83760
101 Co   -0.24366    0.53071   -0.73390
102 Cr   -0.69718   -0.06770    0.13876
103 Co    1.20193    0.88526    0.97253
104 Ni   -0.02646    0.23527    0.48687
105 Fe    0.33285    0.18444   -0.48494
106 Fe   -0.19126   -0.21386   -0.85678
107 Co    0.12526   -0.59956   -1.38740
108 Al   -0.45065   -2.59167    0.10993
109 Fe    0.55607    0.34205    0.54754
110 Fe   -0.47874   -0.41539   -0.36176
111 Cr   -1.91369    0.11528   -0.92821
112 Cr    1.50854    1.46137    0.39768
113 Fe    0.80148    1.43353    0.46000
114 Co    0.76336   -0.76742   -0.52914
115 Fe    1.27307    1.09980    0.56665
116 Ni    0.59312   -0.90620   -0.54562
117 Ni   -0.24607   -0.09189   -1.34351
118 Co    0.11666    0.76532   -0.32515
119 Cr   -0.05665    0.04874    0.35071
120 Fe   -0.84577    1.10243   -0.72808
121 Co    0.14514   -0.21068    0.48993
122 Ni    0.19393   -0.22645   -0.48362
123 Cr   -0.64434   -0.68969    1.36820
124 Co    0.08146   -0.26527   -0.47773

Timing:                              incl.     excl.
-----------------------------------------------------------
Forces:                             41.809    41.809   0.2% |
Hamiltonian:                         2.158     0.010   0.0% |
 Atomic:                             0.379     0.001   0.0% |
  XC Correction:                     0.377     0.377   0.0% |
 Calculate atomic Hamiltonians:      1.087     1.087   0.0% |
 Communicate:                        0.229     0.229   0.0% |
 Initialize Hamiltonian:             0.000     0.000   0.0% |
 Poisson:                            0.092     0.092   0.0% |
 XC 3D grid:                         0.359     0.359   0.0% |
LCAO initialization:               277.082     0.573   0.0% |
 LCAO eigensolver:                  13.766     0.013   0.0% |
  Calculate projections:             0.000     0.000   0.0% |
  DenseAtomicCorrection:             0.000     0.000   0.0% |
  Distribute overlap matrix:         8.748     8.748   0.0% |
  Orbital Layouts:                   4.943     4.943   0.0% |
  Potential matrix:                  0.007     0.007   0.0% |
  Sum over cells:                    0.054     0.054   0.0% |
 LCAO to grid:                     260.549   260.549   1.2% |
 Set positions (LCAO WFS):           2.194     1.903   0.0% |
  Basic WFS set positions:           0.004     0.004   0.0% |
  Basis functions set positions:     0.001     0.001   0.0% |
  P tci:                             0.000     0.000   0.0% |
  ST tci:                            0.116     0.116   0.0% |
  mktci:                             0.170     0.170   0.0% |
PWDescriptor:                        0.100     0.100   0.0% |
SCF-cycle:                       22057.822     5.803   0.0% |
 Davidson:                       21358.889  7155.124  32.0% |------------|
  Apply H:                         395.397   388.871   1.7% ||
   HMM T:                            6.526     6.526   0.0% |
  Subspace diag:                  2331.417     0.052   0.0% |
   calc_h_matrix:                  969.497   600.136   2.7% ||
    Apply H:                       369.361   362.865   1.6% ||
     HMM T:                          6.496     6.496   0.0% |
   diagonalize:                    198.005   198.005   0.9% |
   rotate_psi:                    1163.863  1163.863   5.2% |-|
  calc. matrices:                 5413.417  4760.721  21.3% |--------|
   Apply H:                        652.697   639.445   2.9% ||
    HMM T:                          13.252    13.252   0.1% |
  diagonalize:                    3614.372  3614.372  16.1% |-----|
  rotate_psi:                     2449.162  2449.162  10.9% |---|
 Density:                          377.385     0.004   0.0% |
  Atomic density matrices:           3.699     3.699   0.0% |
  Mix:                             181.300   181.300   0.8% |
  Multipole moments:                 0.106     0.106   0.0% |
  Pseudo density:                  192.276   192.270   0.9% |
   Symmetrize density:               0.006     0.006   0.0% |
 Hamiltonian:                      296.606     1.633   0.0% |
  Atomic:                           55.638     0.209   0.0% |
   XC Correction:                   55.429    55.429   0.2% |
  Calculate atomic Hamiltonians:   157.561   157.561   0.7% |
  Communicate:                      24.085    24.085   0.1% |
  Poisson:                           5.858     5.858   0.0% |
  XC 3D grid:                       51.831    51.831   0.2% |
 Orthonormalize:                    19.140     0.001   0.0% |
  calc_s_matrix:                     2.316     2.316   0.0% |
  inverse-cholesky:                  0.832     0.832   0.0% |
  projections:                      11.936    11.936   0.1% |
  rotate_psi_s:                      4.054     4.054   0.0% |
Set symmetry:                        0.001     0.001   0.0% |
Other:                               8.285     8.285   0.0% |
-----------------------------------------------------------
Total:                                     22387.257 100.0%

Date: Mon Apr 17 20:37:52 2023
