
  ___ ___ ___ _ _ _  
 |   |   |_  | | | | 
 | | | | | . | | | | 
 |__ |  _|___|_____|  22.8.0
 |___|_|             

User:   c.zeng@d0080
Date:   Tue Apr 18 00:53:36 2023
Arch:   x86_64
Pid:    14332
CWD:    /home/c.zeng/projects/hea-corrosion/hea-mlp/data-curation/surface-md/dft-jobs/95
Python: 3.8.1
gpaw:   /home/c.zeng/usr/installs/gpaw/source/gpaw-22.8.0/gpaw
_gpaw:  /home/c.zeng/usr/installs/gpaw/source/gpaw-22.8.0/
        _gpaw.cpython-38-x86_64-linux-gnu.so
ase:    /home/c.zeng/.local/lib/python3.8/site-packages/ase-3.22.1-py3.8.egg/ase (version 3.22.1)
numpy:  /home/c.zeng/.local/lib/python3.8/site-packages/numpy (version 1.24.2)
scipy:  /home/c.zeng/.local/lib/python3.8/site-packages/scipy (version 1.10.1)
libxc:  4.2.3
units:  Angstrom and eV
cores: 30
OpenMP: False
OMP_NUM_THREADS: 1

Input parameters:
  convergence: {energy: 0.0001}
  kpts: [2 2 1]
  maxiter: 666
  mode: {ecut: 350.0,
         name: pw}
  occupations: {fixmagmom: False,
                name: fermi-dirac,
                width: 0.1}
  poissonsolver: {dipolelayer: xy}
  spinpol: True
  symmetry: {point_group: False}
  xc: PBE

System changes: positions, numbers, cell, pbc, initial_charges, initial_magmoms 

Initialize ...

species:
  Co:
    name: Cobalt
    id: 339d20d5b0b93d2de9531a1bee871d91
    Z: 27.0
    valence: 9
    core: 18
    charge: 0.0
    file: /home/c.zeng/usr/data/gpaw-setups-0.9.20000/Co.PBE.gz
    compensation charges: {type: gauss,
                           rc: 0.32,
                           lmax: 2}
    cutoffs: {filter: 1.87,
              core: 2.55}
    valence states:
      #              energy  rcut
      - 4s(2.00)    -5.469   1.005
      - 4p(0.00)    -1.277   1.058
      - 3d(7.00)    -8.205   1.005
      -  s          21.742   1.005
      -  p          25.934   1.058
      -  d          19.007   1.005
  
    # Using partial waves for Co as LCAO basis

  Fe:
    name: Iron
    id: 37abbd8d6c3c35915a9b583b742da910
    Z: 26.0
    valence: 8
    core: 18
    charge: 0.0
    file: /home/c.zeng/usr/data/gpaw-setups-0.9.20000/Fe.PBE.gz
    compensation charges: {type: gauss,
                           rc: 0.33,
                           lmax: 2}
    cutoffs: {filter: 2.06,
              core: 2.67}
    valence states:
      #              energy  rcut
      - 4s(2.00)    -5.291   1.164
      - 4p(0.00)    -1.326   1.058
      - 3d(6.00)    -7.505   1.058
      -  s          21.920   1.164
      -  p          25.885   1.058
      -  d          19.706   1.058
  
    # Using partial waves for Fe as LCAO basis

  Al:
    name: Aluminium
    id: 0292cae29f5d6237e50f6abdd43a7bdd
    Z: 13.0
    valence: 3
    core: 10
    charge: 0.0
    file: /home/c.zeng/usr/data/gpaw-setups-0.9.20000/Al.PBE.gz
    compensation charges: {type: gauss,
                           rc: 0.34,
                           lmax: 2}
    cutoffs: {filter: 1.91,
              core: 2.36}
    valence states:
      #              energy  rcut
      - 3s(2.00)    -7.753   1.085
      - 3p(1.00)    -2.712   1.085
      -  s          19.459   1.085
      -  p          24.499   1.085
      -  d           0.000   1.085
  
    # Using partial waves for Al as LCAO basis

  Cr:
    name: Chromium
    id: 33f258bda2ca9f93018e70263a35547b
    Z: 24.0
    valence: 6
    core: 18
    charge: 0.0
    file: /home/c.zeng/usr/data/gpaw-setups-0.9.20000/Cr.PBE.gz
    compensation charges: {type: gauss,
                           rc: 0.35,
                           lmax: 2}
    cutoffs: {filter: 2.14,
              core: 3.04}
    valence states:
      #              energy  rcut
      - 4s(1.00)    -4.007   1.164
      - 4p(0.00)    -0.989   1.217
      - 3d(5.00)    -2.913   1.111
      -  s          23.205   1.164
      -  p          26.223   1.217
      -  d          24.299   1.111
  
    # Using partial waves for Cr as LCAO basis

  Ni:
    name: Nickel
    id: 0d9f38a9d6e76a2886f07bb4381f212b
    Z: 28.0
    valence: 16
    core: 12
    charge: 0.0
    file: /home/c.zeng/usr/data/gpaw-setups-0.9.20000/Ni.PBE.gz
    compensation charges: {type: gauss,
                           rc: 0.36,
                           lmax: 2}
    cutoffs: {filter: 2.14,
              core: 1.98}
    valence states:
      #              energy  rcut
      - 4s(2.00)    -5.642   1.164
      - 3p(6.00)   -71.394   1.207
      - 4p(0.00)    -1.226   1.207
      - 3d(8.00)    -8.875   1.138
      -  s          21.570   1.164
      -  d          18.337   1.138
  
    # Using partial waves for Ni as LCAO basis

Reference energy: -3726899.091688  # eV

Spin-polarized calculation.
Magnetic moment: 140.000000

Convergence criteria:
 Maximum [total energy] change in last 3 cyles: 0.0001 eV / electron
 Maximum integral of absolute [dens]ity change: 0.0001 electrons / valence electron
 Maximum integral of absolute [eigenst]ate change: 4e-08 eV^2 / valence electron
 Maximum number of scf [iter]ations: 666
 (Square brackets indicate name in SCF output, whereas a 'c' in
 the SCF output indicates the quantity has converged.)

Symmetries present (total): 1

  ( 1  0  0)
  ( 0  1  0)
  ( 0  0  1)

4 k-points: 2 x 2 x 1 Monkhorst-Pack grid
2 k-points in the irreducible part of the Brillouin zone
       k-points in crystal coordinates                weights
   0:     0.25000000   -0.25000000    0.00000000          2/4
   1:     0.25000000    0.25000000    0.00000000          2/4

Wave functions: Plane wave expansion
  Cutoff energy: 350.000 eV
  Number of coefficients (min, max): 60935, 60955
  Pulay-stress correction: 0.000000 eV/Ang^3 (de/decut=0.000000)
  Using FFTW library
  ScaLapack parameters: grid=1x1, blocksize=None
  Wavefunction extrapolation:
    Improved wavefunction reuse through dual PAW basis 

Occupation numbers: Fermi-Dirac:
  width: 0.1000  # eV
 

Eigensolver
   Davidson(niter=2) 

Densities:
  Coarse grid: 56*56*128 grid
  Fine grid: 112*112*256 grid
  Total Charge: 0.000000 

Density mixing:
  Method: difference
  Backend: pulay
  Linear mixing parameter: 0.05
  old densities: 5
  Damping of long wavelength oscillations: 50 

Hamiltonian:
  XC and Coulomb potentials evaluated on a 112*112*256 grid
  Using the PBE Exchange-Correlation functional
  External potential:
    NoExternalPotential
 

XC parameters: PBE with 2 nearest neighbor stencil

Memory estimate:
  Process memory now: 379.99 MiB
  Calculator: 2131.41 MiB
    Density: 19.02 MiB
      Arrays: 7.39 MiB
      Localized functions: 8.68 MiB
      Mixer: 2.95 MiB
    Hamiltonian: 5.75 MiB
      Arrays: 5.49 MiB
      XC: 0.00 MiB
      Poisson: 0.00 MiB
      vbar: 0.26 MiB
    Wavefunctions: 2106.64 MiB
      Arrays psit_nG: 1335.62 MiB
      Eigensolver: 751.15 MiB
      Projections: 3.10 MiB
      Projectors: 1.18 MiB
      PW-descriptor: 15.59 MiB

Total number of cores used: 30
Parallelization over k-points: 2
Domain decomposition: 1 x 3 x 5

Number of atoms: 125
Number of atomic orbitals: 1075
Number of bands in calculation: 718
Number of valence electrons: 1050
Bands to converge: occupied

... initialized

Initializing position-dependent things.

Density initialized from atomic densities
Creating initial wave functions:
  718 bands from LCAO basis set

                                                                       
                                                                       
                                                                       
                                                                       
                                                                       
                                                                       
                                                                       
                     Fe                Cr                              
                                   Al            Al                    
                        Ni     CoFe     CrNi    Al                     
                             Ni  Cr   Ni    Fe    Cr     Al            
                       Al   Cr  Fe   NFe   Ni        Co                
                  Cr    Ni     CrNi  Al     Ni                         
                       Al   Co    Al Al Fe       Ni                    
                  Fe         Fe    Ni          Co                      
                    Fe   Fe    Co   NiFe  CoAl                         
                    Cr  Cr     Fe   Cr     Al                          
              Co     Ni  CoCo  Co            Al  Al         Al         
                     Cr Fe       Co Nie Cr  Ni Al                      
                     Cr    CrNi  Fe    Ni    Cr  Ni  Al                
           Co    NiFe  Co  Ni   CrCoAl   CrCr          Ni              
               Al         Al  AlCCo  CoCr                              
                 Co    Fe Fe Co    Co         Fe                       
          Cr Cr     FeNi     Co     Co   Al                            
                    Al    Fe   Co                                      
            Fe   Al                                                    
                    Co               Al                                
                                                                       
                        Fe                                             
                                                                       
                                                                       
                                                                       
                                                                       
                                                                       

Positions:
   0 Co    10.234517    0.219701   11.364542    ( 0.0000,  0.0000,  2.1000)
   1 Fe     2.114107    0.691711   10.282087    ( 0.0000,  0.0000,  2.0000)
   2 Co     5.653083    0.912716    9.379905    ( 0.0000,  0.0000,  2.1000)
   3 Fe     8.020400    0.630108   10.719116    ( 0.0000,  0.0000,  2.0000)
   4 Co    10.904275   -0.291860   13.717742    ( 0.0000,  0.0000,  2.1000)
   5 Fe     7.343946   -0.036987    8.040538    ( 0.0000,  0.0000,  2.0000)
   6 Co     3.919888    1.916360   11.899002    ( 0.0000,  0.0000,  2.1000)
   7 Al     3.647868    2.630006    9.473533    ( 0.0000,  0.0000,  0.0000)
   8 Co     8.719619    3.165708   10.654568    ( 0.0000,  0.0000,  2.1000)
   9 Co    11.331860    3.102524   10.575793    ( 0.0000,  0.0000,  2.1000)
  10 Fe    14.136732    6.641263   12.037312    ( 0.0000,  0.0000,  2.0000)
  11 Fe     4.182668    5.642331    9.348036    ( 0.0000,  0.0000,  2.0000)
  12 Co     7.999644    5.373818   10.713889    ( 0.0000,  0.0000,  2.1000)
  13 Co    10.294006    5.345458   10.093635    ( 0.0000,  0.0000,  2.1000)
  14 Al    12.987575    5.257920    9.963639    ( 0.0000,  0.0000,  0.0000)
  15 Fe    14.546717    7.161919    9.245070    ( 0.0000,  0.0000,  2.0000)
  16 Al     6.219110    7.088733   10.360192    ( 0.0000,  0.0000,  0.0000)
  17 Co     8.823435    7.483045   10.453841    ( 0.0000,  0.0000,  2.1000)
  18 Cr    11.515447    7.714257   10.118369    ( 0.0000,  0.0000,  0.0000)
  19 Ni    15.345520    9.291477   10.763483    ( 0.0000,  0.0000,  1.5000)
  20 Ni    17.549848    9.572339   10.041161    ( 0.0000,  0.0000,  1.5000)
  21 Ni     7.214176    9.490225   10.375076    ( 0.0000,  0.0000,  1.5000)
  22 Cr    12.757024    9.571642    9.787190    ( 0.0000,  0.0000,  0.0000)
  23 Al    15.996995   12.459242    8.951070    ( 0.0000,  0.0000,  0.0000)
  24 Al    13.443273   13.744514    9.117174    ( 0.0000,  0.0000,  0.0000)
  25 Al    19.406362   10.924256   12.025406    ( 0.0000,  0.0000,  0.0000)
  26 Al     9.924424    9.774332    9.512697    ( 0.0000,  0.0000,  0.0000)
  27 Al     5.544569   -0.093493   11.672757    ( 0.0000,  0.0000,  0.0000)
  28 Fe     8.348421   -0.543560   13.197518    ( 0.0000,  0.0000,  2.0000)
  29 Cr    10.948360   -2.002848   15.721159    ( 0.0000,  0.0000,  0.0000)
  30 Al    12.582954    0.903509    9.333587    ( 0.0000,  0.0000,  0.0000)
  31 Ni     4.367280    0.777235   14.377483    ( 0.0000,  0.0000,  1.5000)
  32 Ni     6.085826    2.278071   11.159860    ( 0.0000,  0.0000,  1.5000)
  33 Al     9.367664    1.987006   13.022498    ( 0.0000,  0.0000,  0.0000)
  34 Co    11.948009    1.990851   12.695366    ( 0.0000,  0.0000,  2.1000)
  35 Al     2.685810    4.394474   11.402045    ( 0.0000,  0.0000,  0.0000)
  36 Fe     5.675499    4.537531   11.156525    ( 0.0000,  0.0000,  2.0000)
  37 Ni     7.507707    3.612491   12.745185    ( 0.0000,  0.0000,  1.5000)
  38 Co    10.342601    4.077594   12.337169    ( 0.0000,  0.0000,  2.1000)
  39 Cr    13.079434    4.133052   12.447032    ( 0.0000,  0.0000,  0.0000)
  40 Fe     3.592280    7.097361   11.222691    ( 0.0000,  0.0000,  2.0000)
  41 Cr     6.872008    6.410278   12.581958    ( 0.0000,  0.0000,  0.0000)
  42 Fe     9.484549    6.165962   12.377885    ( 0.0000,  0.0000,  2.0000)
  43 Ni    11.717781    6.353212   12.373570    ( 0.0000,  0.0000,  1.5000)
  44 Cr    15.490509    2.502999   13.820565    ( 0.0000,  0.0000,  0.0000)
  45 Fe     5.371467    8.683412   12.306220    ( 0.0000,  0.0000,  2.0000)
  46 Ni     8.180309    8.559666   12.663062    ( 0.0000,  0.0000,  1.5000)
  47 Ni    10.687169    8.407507   12.132855    ( 0.0000,  0.0000,  1.5000)
  48 Ni    13.361206    8.760244   11.973002    ( 0.0000,  0.0000,  1.5000)
  49 Al    15.642478    8.050845   13.454063    ( 0.0000,  0.0000,  0.0000)
  50 Co     1.932324    0.584053   14.230368    ( 0.0000,  0.0000,  2.1000)
  51 Cr     2.992388   -0.453835   12.463614    ( 0.0000,  0.0000,  0.0000)
  52 Co     6.601250    1.457766   13.547160    ( 0.0000,  0.0000,  2.1000)
  53 Ni     9.147730    0.337543   15.617952    ( 0.0000,  0.0000,  1.5000)
  54 Ni    12.138395    0.685250   15.649529    ( 0.0000,  0.0000,  1.5000)
  55 Cr     0.919252    2.622627   10.930270    ( 0.0000,  0.0000,  0.0000)
  56 Cr     5.096053    3.449093   13.436396    ( 0.0000,  0.0000,  0.0000)
  57 Co     7.837202    2.577678   15.377580    ( 0.0000,  0.0000,  2.1000)
  58 Co    10.439087    2.265991   15.138648    ( 0.0000,  0.0000,  2.1000)
  59 Cr    13.388470    2.703240   14.888374    ( 0.0000,  0.0000,  0.0000)
  60 Cr     4.485899    5.784946   13.031937    ( 0.0000,  0.0000,  0.0000)
  61 Co     6.692851    4.959793   14.830591    ( 0.0000,  0.0000,  2.1000)
  62 Co     9.200979    4.663907   14.474481    ( 0.0000,  0.0000,  2.1000)
  63 Ni    10.723425    5.598967   16.250324    ( 0.0000,  0.0000,  1.5000)
  64 Al    14.796954    5.314252   14.363512    ( 0.0000,  0.0000,  0.0000)
  65 Cr     5.513131    7.117777   14.717418    ( 0.0000,  0.0000,  0.0000)
  66 Fe     8.277371    6.929464   14.517847    ( 0.0000,  0.0000,  2.0000)
  67 Cr    10.610532    7.083377   14.228308    ( 0.0000,  0.0000,  0.0000)
  68 Al    13.063653    7.414005   14.330181    ( 0.0000,  0.0000,  0.0000)
  69 Fe    15.499345    7.471968   16.344901    ( 0.0000,  0.0000,  2.0000)
  70 Cr     6.922533    9.540893   14.483867    ( 0.0000,  0.0000,  0.0000)
  71 Ni     9.514579    9.154696   14.586127    ( 0.0000,  0.0000,  1.5000)
  72 Co    12.271428    9.616004   13.839156    ( 0.0000,  0.0000,  2.1000)
  73 Co    14.462400    9.265055   15.216554    ( 0.0000,  0.0000,  2.1000)
  74 Cr    13.551171    8.052255   17.521994    ( 0.0000,  0.0000,  0.0000)
  75 Al    12.171933    1.503616   19.452323    ( 0.0000,  0.0000,  0.0000)
  76 Co     2.907467    1.903489   16.125543    ( 0.0000,  0.0000,  2.1000)
  77 Ni     5.297479    2.444465   15.661399    ( 0.0000,  0.0000,  1.5000)
  78 Fe     6.836291    3.433509   17.261832    ( 0.0000,  0.0000,  2.0000)
  79 Fe    11.671402    4.542532   14.381365    ( 0.0000,  0.0000,  2.0000)
  80 Al    14.549162    3.918863   16.708943    ( 0.0000,  0.0000,  0.0000)
  81 Cr     4.446782    4.547960   15.945963    ( 0.0000,  0.0000,  0.0000)
  82 Cr     7.911518    4.484887   19.553562    ( 0.0000,  0.0000,  0.0000)
  83 Co     9.281035    3.547418   17.222656    ( 0.0000,  0.0000,  2.1000)
  84 Fe    11.904960    3.839806   16.689318    ( 0.0000,  0.0000,  2.0000)
  85 Ni    15.933171    5.708645   17.861336    ( 0.0000,  0.0000,  1.5000)
  86 Cr     5.567597    5.789621   17.390337    ( 0.0000,  0.0000,  0.0000)
  87 Fe     8.092832    5.702612   16.700724    ( 0.0000,  0.0000,  2.0000)
  88 Ni     9.717306    5.526770   18.476747    ( 0.0000,  0.0000,  1.5000)
  89 Co    13.180681    5.949862   16.093963    ( 0.0000,  0.0000,  2.1000)
  90 Co    17.306878    7.907120   18.016346    ( 0.0000,  0.0000,  2.1000)
  91 Co     6.923346    8.156196   16.458382    ( 0.0000,  0.0000,  2.1000)
  92 Fe     7.832017   10.889006   16.394143    ( 0.0000,  0.0000,  2.0000)
  93 Al     9.474438    7.721440   16.484682    ( 0.0000,  0.0000,  0.0000)
  94 Ni    12.489783    8.528191   19.655319    ( 0.0000,  0.0000,  1.5000)
  95 Cr    15.581525    9.995936   17.663817    ( 0.0000,  0.0000,  0.0000)
  96 Co     6.993065   12.803554   17.262013    ( 0.0000,  0.0000,  2.1000)
  97 Ni    10.106633   10.627951   16.321249    ( 0.0000,  0.0000,  1.5000)
  98 Al    12.828094   11.304639   15.699105    ( 0.0000,  0.0000,  0.0000)
  99 Al    14.312968   12.428762   17.954791    ( 0.0000,  0.0000,  0.0000)
 100 Cr     8.512537    9.448649   17.812268    ( 0.0000,  0.0000,  0.0000)
 101 Cr     8.864804   12.083737   18.658113    ( 0.0000,  0.0000,  0.0000)
 102 Fe     5.170483    1.301392   17.998162    ( 0.0000,  0.0000,  2.0000)
 103 Cr    10.897358   10.936984   20.096753    ( 0.0000,  0.0000,  0.0000)
 104 Al    15.180117    7.703803   19.373327    ( 0.0000,  0.0000,  0.0000)
 105 Cr     4.061663    2.465386   20.154396    ( 0.0000,  0.0000,  0.0000)
 106 Fe     4.009193    3.299716   17.948472    ( 0.0000,  0.0000,  2.0000)
 107 Ni     6.548950    2.557749   19.564161    ( 0.0000,  0.0000,  1.5000)
 108 Al     7.167466   -0.381204   20.181140    ( 0.0000,  0.0000,  0.0000)
 109 Cr     9.619001    2.983612   19.408518    ( 0.0000,  0.0000,  0.0000)
 110 Ni    14.721805    3.595277   19.490299    ( 0.0000,  0.0000,  1.5000)
 111 Al     5.787283    4.652150   19.492090    ( 0.0000,  0.0000,  0.0000)
 112 Fe     9.700982    5.725516   21.068575    ( 0.0000,  0.0000,  2.0000)
 113 Al    11.703387    4.514666   18.970555    ( 0.0000,  0.0000,  0.0000)
 114 Ni    13.691418    5.887497   18.705480    ( 0.0000,  0.0000,  1.5000)
 115 Al    18.310086   10.040523   17.923172    ( 0.0000,  0.0000,  0.0000)
 116 Ni     7.409066    7.113622   18.888156    ( 0.0000,  0.0000,  1.5000)
 117 Al     9.711922    8.125493   20.060936    ( 0.0000,  0.0000,  0.0000)
 118 Fe    11.506611    6.921923   18.173921    ( 0.0000,  0.0000,  2.0000)
 119 Cr    12.459118    6.489775   20.677032    ( 0.0000,  0.0000,  0.0000)
 120 Fe     3.103533   11.333404   19.758794    ( 0.0000,  0.0000,  2.0000)
 121 Ni     4.297552   12.569695   17.467323    ( 0.0000,  0.0000,  1.5000)
 122 Ni    10.700039    9.435284   18.162695    ( 0.0000,  0.0000,  1.5000)
 123 Fe    11.692068    8.715920   15.991175    ( 0.0000,  0.0000,  2.0000)
 124 Fe    12.780592   10.338863   17.927924    ( 0.0000,  0.0000,  2.0000)

Unit cell:
           periodic     x           y           z      points  spacing
  1. axis:    yes   12.688900    0.000000    0.000000    56     0.1962
  2. axis:    yes    6.352870   11.003500    0.000000    56     0.1965
  3. axis:    no     0.000000    0.000000   29.353100   128     0.2293

  Lengths:  12.688900  12.705746  29.353100
  Angles:   90.000000  90.000000  60.000014

Effective grid spacing dv^(1/3) = 0.2169

     iter     time        total  log10-change:  magmom
                         energy  eigst   dens
iter:   1 01:02:02 -1099.950498                  +140.3334
iter:   2 01:04:55 -1143.160907  +0.15  -1.06    +70.0846
iter:   3 01:07:48 -2959.631504  +1.30  -0.91    +58.6429
iter:   4 01:10:41  -911.517320  +0.42  -0.53    +47.1032
iter:   5 01:13:33  -929.271547  +0.39  -1.14    +35.7115
iter:   6 01:16:26  -941.769841  +0.01  -1.15    +40.0545
iter:   7 01:19:14  -917.301497  -0.57  -1.14    +43.7340
iter:   8 01:22:08  -925.192774  -0.99  -1.19    +48.2287
iter:   9 01:25:01 -1583.607454  +0.14  -1.18    +52.5187
iter:  10 01:27:54  -901.773377  -0.55  -0.80    +49.0100
iter:  11 01:30:47  -891.876947  -1.34  -1.28    +48.5662
iter:  12 01:33:40  -883.110562  -1.26  -1.34    +52.3574
iter:  13 01:36:33  -913.698529  -1.43  -1.38    +54.3132
iter:  14 01:39:25  -889.499520  -1.41  -1.26    +54.7180
iter:  15 01:42:19  -891.112285  -1.59  -1.39    +52.3168
iter:  16 01:45:09  -870.170335  -1.63  -1.38    +46.7707
iter:  17 01:48:01  -866.445642  -2.12  -1.52    +48.6439
iter:  18 01:50:53  -867.539014  -2.37  -1.56    +52.4394
iter:  19 01:53:45  -871.905261  -1.81  -1.57    +55.5675
iter:  20 01:56:38  -867.686015  -1.88  -1.59    +56.7856
iter:  21 01:59:30  -870.913222  -2.30  -1.64    +59.1254
iter:  22 02:02:23  -866.635610  -2.31  -1.60    +60.3371
iter:  23 02:05:16  -897.118163  -1.94  -1.76    +63.3780
iter:  24 02:08:09  -871.145489  -2.14  -1.37    +63.2052
iter:  25 02:11:01  -866.433228  -1.99  -1.64    +62.9347
iter:  26 02:13:54  -873.365535  -2.21  -1.87    +62.9362
iter:  27 02:16:46  -868.023568  -2.38  -1.63    +62.6596
iter:  28 02:19:39  -866.539322  -2.35  -1.80    +63.3872
iter:  29 02:22:30  -873.699357  -2.09  -1.89    +64.8096
iter:  30 02:25:20  -871.458485  -2.28  -1.67    +65.8441
iter:  31 02:28:12  -866.523055  -2.45  -1.70    +65.2600
iter:  32 02:31:04  -866.690987  -2.45  -1.96    +65.0104
iter:  33 02:33:56  -870.138317  -2.69  -1.98    +65.3670
iter:  34 02:36:49  -868.159724  -3.12  -1.78    +65.5117
iter:  35 02:39:42  -868.289838  -2.33  -1.89    +66.0892
iter:  36 02:42:35  -867.224826  -2.58  -1.94    +66.2235
iter:  37 02:45:27  -867.362660  -2.95  -1.99    +67.2969
iter:  38 02:48:20  -866.263005  -3.23  -2.02    +67.2798
iter:  39 02:51:13  -866.460001  -2.98  -2.23    +67.7393
iter:  40 02:54:06  -866.573982  -3.31  -2.27    +67.8483
iter:  41 02:56:59  -866.156511  -3.39  -2.21    +68.2819
iter:  42 02:59:52  -866.301103  -3.51  -2.43    +68.3831
iter:  43 03:02:45  -866.405715  -3.41  -2.40    +68.6508
iter:  44 03:05:38  -866.532340  -3.36  -2.45    +69.4397
iter:  45 03:08:31  -866.529728  -4.04  -2.51    +69.4548
iter:  46 03:11:25  -866.728701  -3.64  -2.54    +70.0289
iter:  47 03:14:18  -866.638417  -4.06  -2.52    +69.7690
iter:  48 03:17:11  -866.775666  -3.81  -2.55    +70.1127
iter:  49 03:20:01  -867.196175  -3.26  -2.52    +70.4930
iter:  50 03:22:55  -867.064286  -4.35  -2.33    +70.4060
iter:  51 03:25:48  -869.704724  -3.08  -2.39    +70.5507
iter:  52 03:28:42  -867.442609  -3.05  -1.92    +70.3413
iter:  53 03:31:37  -867.405267  -3.48  -2.37    +70.1901
iter:  54 03:34:31  -868.529908  -2.84  -2.37    +70.8815
iter:  55 03:37:25  -867.227878  -3.11  -2.11    +71.0361
iter:  56 03:40:19  -867.482363  -3.28  -2.37    +70.7747
iter:  57 03:43:13  -894.931072  -1.99  -2.29    +70.7709
iter:  58 03:46:07  -867.254525  -2.33  -1.44    +70.5527
iter:  59 03:49:02  -867.256074  -3.24  -2.42    +70.2694
iter:  60 03:51:55  -867.259722c -3.56  -2.44    +70.1064
iter:  61 03:54:49  -867.118797  -3.73  -2.42    +69.9386
iter:  62 03:57:41  -867.061238  -4.08  -2.51    +69.8091
iter:  63 04:00:34  -868.566812  -3.09  -2.57    +69.5729
iter:  64 04:03:28  -867.542709  -3.15  -2.07    +69.2531
iter:  65 04:06:21  -867.141817  -3.80  -2.32    +69.1214
iter:  66 04:09:15  -867.242149  -3.89  -2.56    +69.0756
iter:  67 04:12:09  -867.098103  -3.85  -2.51    +68.9948
iter:  68 04:15:03  -867.135433  -3.97  -2.66    +68.8920
iter:  69 04:17:57  -867.040265c -3.97  -2.64    +68.8128
iter:  70 04:20:50  -867.126111c -4.02  -3.01    +68.6874
iter:  71 04:23:43  -867.087033c -4.25  -2.70    +68.5370
iter:  72 04:26:37  -867.058012c -4.86  -2.82    +68.4646
iter:  73 04:29:31  -867.065804c -5.17  -3.04    +68.4745
iter:  74 04:32:25  -867.065489c -4.77  -3.01    +68.3636
iter:  75 04:35:19  -867.058677c -5.08  -3.17    +68.3915
iter:  76 04:38:13  -867.077898c -4.62  -3.19    +68.1684
iter:  77 04:41:08  -867.081395c -4.62  -3.17    +67.9847
iter:  78 04:44:03  -867.090724c -4.67  -3.28    +67.9305
iter:  79 04:46:58  -867.093995c -4.97  -3.13    +67.8959
iter:  80 04:49:54  -867.093050c -4.95  -3.12    +67.8933
iter:  81 04:52:49  -867.091976c -5.57  -3.15    +67.8583
iter:  82 04:55:44  -867.097475c -4.82  -3.18    +67.6695
iter:  83 04:58:40  -867.101802c -5.01  -3.18    +67.5527
iter:  84 05:01:35  -867.107684c -4.65  -3.13    +67.3855
iter:  85 05:04:29  -867.140719c -4.58  -3.09    +67.4436
iter:  86 05:07:22  -867.116378c -4.70  -2.80    +67.3705
iter:  87 05:10:17  -867.114282c -4.61  -3.04    +67.3810
iter:  88 05:13:11  -867.113614c -4.68  -3.05    +67.3676
iter:  89 05:16:07  -867.134869c -4.43  -3.10    +67.3909
iter:  90 05:19:02  -867.197597c -4.14  -2.83    +67.3640
iter:  91 05:21:57  -867.599544  -3.49  -2.65    +67.3266
iter:  92 05:24:52  -867.097355  -3.90  -2.34    +67.2223
iter:  93 05:27:48  -867.094722  -4.72  -3.18    +67.3029
iter:  94 05:30:42  -867.097708c -5.04  -3.26    +67.3553
iter:  95 05:33:35  -867.102147c -4.77  -3.22    +67.3739
iter:  96 05:36:30  -867.095233c -5.24  -3.12    +67.3739
iter:  97 05:39:25  -867.095935c -5.32  -3.49    +67.4245
iter:  98 05:42:20  -867.101292c -5.28  -3.41    +67.4550
iter:  99 05:45:15  -867.099478c -5.60  -3.21    +67.4392
iter: 100 05:48:10  -867.099198c -5.29  -3.41    +67.4435
iter: 101 05:51:05  -867.098027c -5.45  -3.44    +67.4579
iter: 102 05:54:00  -867.099627c -5.69  -3.58    +67.4750
iter: 103 05:56:55  -867.099173c -5.87  -3.46    +67.4962
iter: 104 05:59:50  -867.101180c -5.79  -3.62    +67.4947
iter: 105 06:02:45  -867.100122c -5.80  -3.61    +67.4949
iter: 106 06:05:40  -867.101764c -5.65  -3.81    +67.5318
iter: 107 06:08:35  -867.101316c -6.55  -3.81    +67.5387
iter: 108 06:11:30  -867.103770c -5.99  -3.81    +67.5823
iter: 109 06:14:23  -867.100895c -5.91  -3.68    +67.5151
iter: 110 06:17:18  -867.099093c -5.31  -3.80    +67.4239
iter: 111 06:20:13  -867.104546c -4.91  -3.59    +67.6166
iter: 112 06:23:08  -867.102572c -5.78  -3.71    +67.5472
iter: 113 06:26:03  -867.107241c -5.22  -3.85    +67.6573
iter: 114 06:28:58  -867.102544c -4.72  -3.58    +67.4520
iter: 115 06:31:53  -867.103653c -5.67  -3.50    +67.4941
iter: 116 06:34:47  -867.100853c -5.49  -3.56    +67.4247
iter: 117 06:37:40  -867.098632c -5.52  -3.52    +67.3844
iter: 118 06:40:36  -867.105373c -5.45  -3.57    +67.4561
iter: 119 06:43:31  -867.100245c -5.14  -3.35    +67.4521
iter: 120 06:46:25  -867.102352c -5.21  -3.35    +67.4678
iter: 121 06:49:21  -867.100361c -5.64  -3.39    +67.4551
iter: 122 06:52:16  -867.103913c -5.29  -3.66    +67.4928
iter: 123 06:55:11  -867.103470c -5.78  -3.65    +67.5189
iter: 124 06:58:06  -867.106365c -5.23  -3.75    +67.6067
iter: 125 07:01:01  -867.108499c -5.61  -3.63    +67.6350
iter: 126 07:03:57  -867.104686c -5.43  -3.71    +67.5655
iter: 127 07:06:52  -867.101272c -4.74  -3.69    +67.4592
iter: 128 07:09:45  -867.105954c -4.87  -3.54    +67.3752
iter: 129 07:12:38  -867.103453c -5.30  -3.40    +67.4310
iter: 130 07:15:33  -867.103560c -5.70  -3.36    +67.3748
iter: 131 07:18:28  -867.102638c -5.99  -3.40    +67.3665
iter: 132 07:21:23  -867.099978c -5.93  -3.43    +67.3607
iter: 133 07:24:18  -867.395027  -3.84  -3.42    +67.3657
iter: 134 07:27:13  -867.177131  -3.83  -2.45    +67.3550
iter: 135 07:30:08  -867.150791  -4.02  -2.70    +67.4227
iter: 136 07:33:03  -867.090414c -4.49  -2.84    +67.3026
iter: 137 07:35:58  -867.100771c -5.01  -3.45    +67.4225
iter: 138 07:38:53  -867.104568c -5.38  -3.44    +67.4447
iter: 139 07:41:48  -867.105687c -4.88  -3.52    +67.4627
iter: 140 07:44:42  -867.114401c -4.76  -3.27    +67.5744
iter: 141 07:47:35  -867.123202c -4.94  -3.33    +67.6473
iter: 142 07:50:30  -867.116036c -5.40  -3.49    +67.5558
iter: 143 07:53:25  -867.146166c -4.59  -3.47    +67.7877
iter: 144 07:56:20  -867.106102c -4.35  -3.31    +67.4981
iter: 145 07:59:15  -867.097318c -4.31  -3.55    +67.2543
iter: 146 08:02:11  -867.101330c -5.22  -3.46    +67.3397
iter: 147 08:05:06  -867.096310c -5.66  -3.30    +67.3255
iter: 148 08:08:01  -867.098005c -5.87  -3.67    +67.3390
iter: 149 08:10:56  -867.099630c -5.36  -3.56    +67.3750
iter: 150 08:13:48  -867.096711c -5.27  -3.64    +67.2992
iter: 151 08:16:43  -867.101490c -5.31  -3.59    +67.3836
iter: 152 08:19:38  -867.099167c -5.51  -3.62    +67.3129
iter: 153 08:22:33  -867.104868c -5.28  -3.59    +67.4172
iter: 154 08:25:28  -867.105215c -6.16  -3.90    +67.4199
iter: 155 08:28:23  -867.112090c -5.23  -3.80    +67.5137
iter: 156 08:31:18  -867.110235c -6.50  -3.66    +67.4996
iter: 157 08:34:13  -867.103161c -4.88  -3.77    +67.4088
iter: 158 08:37:07  -867.108277c -5.51  -3.43    +67.4594
iter: 159 08:40:02  -867.108306c -6.01  -3.69    +67.4593
iter: 160 08:42:57  -867.115479c -5.21  -3.62    +67.5022
iter: 161 08:45:52  -867.115781c -5.75  -3.49    +67.5120
iter: 162 08:48:47  -867.127571c -4.88  -3.47    +67.5933
iter: 163 08:51:42  -867.119042c -5.48  -3.12    +67.6067
iter: 164 08:54:37  -867.127069c -5.25  -3.69    +67.7180
iter: 165 08:57:32  -867.096503c -3.99  -3.61    +67.1786
iter: 166 09:00:28  -867.090373c -4.16  -3.66    +66.8973
iter: 167 09:03:22  -867.090866c -4.76  -3.49    +66.8141
iter: 168 09:06:17  -867.097181c -5.15  -3.47    +66.8091
iter: 169 09:09:13  -867.092460c -5.84  -3.29    +66.8200
iter: 170 09:12:09  -867.089222c -5.53  -3.46    +66.8283
iter: 171 09:14:58  -867.101307c -4.52  -3.41    +66.8116
iter: 172 09:17:47  -867.107090c -4.27  -3.09    +66.8226
iter: 173 09:20:36  -867.091590c -4.77  -3.05    +66.8887
iter: 174 09:23:25  -867.406119  -3.95  -3.35    +66.9256
iter: 175 09:26:35  -867.097966  -4.29  -2.45    +66.9078
iter: 176 09:29:41  -867.103109  -4.91  -3.38    +66.9591
iter: 177 09:32:30  -867.121555c -4.96  -3.47    +67.0563
iter: 178 09:35:19  -867.085868c -4.28  -3.32    +66.8072
iter: 179 09:38:07  -867.079427c -4.14  -3.58    +66.5957
iter: 180 09:40:56  -867.077758c -5.24  -3.27    +66.6671
iter: 181 09:43:44  -867.080999c -5.58  -3.30    +66.6355
iter: 182 09:46:32  -867.079759c -6.08  -3.24    +66.6342
iter: 183 09:49:20  -867.076293c -5.35  -3.27    +66.6716
iter: 184 09:52:08  -867.106629c -4.19  -3.26    +66.6470
iter: 185 09:54:57  -867.080626c -4.30  -2.87    +66.7333
iter: 186 09:57:45  -867.232760  -4.01  -3.02    +66.6466
iter: 187 10:00:34  -867.088063  -4.22  -2.59    +66.7073
iter: 188 10:03:23  -867.103574  -4.48  -3.23    +66.8412
iter: 189 10:06:12  -867.107489c -4.95  -3.27    +66.9142
iter: 190 10:09:01  -867.134288c -4.51  -3.34    +67.1759
iter: 191 10:11:48  -867.160185c -4.86  -3.19    +67.2202
iter: 192 10:14:37  -867.146657c -4.67  -3.00    +67.3173
iter: 193 10:17:25  -867.225806c -4.11  -3.12    +67.2981
iter: 194 10:20:31  -867.223778c -4.36  -2.68    +67.2792
iter: 195 10:23:38  -867.326990c -3.76  -2.65    +67.1572
iter: 196 10:26:26  -867.203526  -3.70  -2.50    +67.0628
iter: 197 10:29:15  -867.119249  -4.06  -2.66    +66.8287
iter: 198 10:32:03  -869.424980  -3.01  -2.91    +66.7729
iter: 199 10:34:52  -867.102098  -3.45  -2.00    +66.7690
iter: 200 10:37:40  -867.115025  -4.13  -3.13    +66.7736
iter: 201 10:40:29  -867.111160c -4.54  -3.25    +66.7283
iter: 202 10:43:17  -867.112332c -4.45  -3.43    +66.6804
iter: 203 10:46:07  -867.126359c -4.70  -3.30    +66.7053
iter: 204 10:49:16  -867.263888  -4.29  -3.15    +66.6941
iter: 205 10:52:22  -867.109997  -4.21  -2.59    +66.6331
iter: 206 10:55:10  -867.110718  -4.47  -3.12    +66.7038
iter: 207 10:57:59  -867.118912c -4.32  -3.21    +66.6844
iter: 208 11:00:48  -867.115607c -4.48  -3.12    +66.6827
iter: 209 11:03:37  -867.114091c -4.77  -3.18    +66.7772
iter: 210 11:06:25  -867.163576c -4.49  -3.48    +66.8032
iter: 211 11:09:14  -867.122512c -4.90  -2.81    +66.7842
iter: 212 11:12:03  -867.131863c -4.93  -3.41    +66.7982
iter: 213 11:14:51  -867.132090c -5.10  -3.15    +66.8013
iter: 214 11:17:40  -867.136914c -5.19  -3.17    +66.7715
iter: 215 11:20:29  -867.138300c -5.29  -3.14    +66.7659
iter: 216 11:23:17  -867.192648c -4.56  -3.15    +66.7650
iter: 217 11:26:06  -867.321143  -3.86  -2.72    +66.7258
iter: 218 11:28:55  -867.145610  -4.06  -2.53    +66.6799
iter: 219 11:31:44  -867.162894  -4.04  -2.92    +66.7614
iter: 220 11:34:32  -867.140370c -4.11  -2.86    +66.6579
iter: 221 11:37:21  -867.124273c -4.50  -3.09    +66.6509
iter: 222 11:40:46  -867.137090c -4.59  -3.30    +66.5051
iter: 223 11:43:38  -867.137128c -4.82  -3.02    +66.4428
iter: 224 11:46:27  -867.126952c -5.08  -3.08    +66.4347
iter: 225 11:49:16  -867.127541c -4.94  -3.31    +66.4463
iter: 226 11:52:05  -867.123840c -4.98  -3.24    +66.4572
iter: 227 11:54:54  -867.124285c -5.25  -3.37    +66.4850
iter: 228 11:57:43  -867.135875c -4.89  -3.38    +66.4706
iter: 229 12:00:31  -867.125707c -5.24  -3.06    +66.4636
iter: 230 12:03:20  -867.125149c -5.65  -3.38    +66.4657
iter: 231 12:06:08  -867.125737c -6.15  -3.44    +66.4619
iter: 232 12:08:56  -867.127753c -5.06  -3.41    +66.4719
iter: 233 12:11:45  -867.127494c -5.04  -3.32    +66.4344
iter: 234 12:15:11  -867.173011c -4.54  -3.37    +66.3970
iter: 235 12:18:01  -867.138105c -4.60  -2.83    +66.3863
iter: 236 12:20:49  -867.126577c -5.43  -3.11    +66.4078
iter: 237 12:23:38  -867.130267c -5.40  -3.49    +66.4059
iter: 238 12:26:26  -867.126306c -5.70  -3.34    +66.4114
iter: 239 12:29:15  -867.133269c -5.41  -3.57    +66.4136
iter: 240 12:32:04  -867.128657c -5.46  -3.25    +66.4187
iter: 241 12:34:53  -867.134342c -5.04  -3.49    +66.4040
iter: 242 12:38:16  -867.134160c -5.10  -3.17    +66.3788
iter: 243 12:41:09  -867.129299c -5.22  -3.24    +66.3882
iter: 244 12:43:59  -867.132285c -5.34  -3.54    +66.4024
iter: 245 12:46:47  -867.128454c -5.54  -3.36    +66.3884
iter: 246 12:49:35  -867.128485c -5.85  -3.67    +66.3816
iter: 247 12:52:23  -867.130337c -5.67  -3.67    +66.3645
iter: 248 12:55:12  -867.132705c -5.40  -3.58    +66.3598
iter: 249 12:58:01  -867.128770c -5.85  -3.31    +66.3458
iter: 250 13:00:48  -867.129622c -5.84  -3.82    +66.3337
iter: 251 13:04:11  -867.130342c -5.74  -4.00    +66.3079
iter: 252 13:07:00  -867.130080c -6.58  -3.89    +66.3007
iter: 253 13:09:48  -867.130642c -6.15  -3.91    +66.2665
iter: 254 13:12:37  -867.133259c -5.27  -3.86    +66.1759
iter: 255 13:15:24  -867.130201c -5.23  -3.63    +66.2971
iter: 256 13:18:12  -867.129977c -5.78  -3.96    +66.3379
iter: 257 13:21:02  -867.131065c -6.01  -3.93    +66.2929
iter: 258 13:24:09  -867.131003c -6.14  -3.94    +66.2805
iter: 259 13:27:15  -867.131235c -6.57  -3.88    +66.2711
iter: 260 13:30:03  -867.131589c -6.08  -3.90    +66.2383
iter: 261 13:32:52  -867.132394c -6.04  -3.98    +66.2227
iter: 262 13:35:40  -867.132867c -6.18  -3.88    +66.2202
iter: 263 13:38:29  -867.140154c -5.55  -3.77    +66.2193
iter: 264 13:41:18  -867.132935c -5.73  -3.27    +66.2342
iter: 265 13:44:06  -867.133826c -6.09  -3.89    +66.2194
iter: 266 13:46:55  -867.134935c -5.63  -3.83    +66.2043
iter: 267 13:49:44  -867.134123c -5.85  -3.49    +66.1968
iter: 268 13:52:33  -867.134312c -5.89  -3.79    +66.1725
iter: 269 13:55:21  -867.148121c -5.25  -3.86    +66.1763
iter: 270 13:58:11  -867.134287c -5.37  -3.12    +66.1814
iter: 271 14:00:59  -867.134453c -5.98  -3.71    +66.1674
iter: 272 14:03:48  -867.136088c -5.82  -3.92    +66.1512
iter: 273 14:06:42  -867.135347c -6.50  -3.50    +66.1562
iter: 274 14:10:06  -867.135674c -6.18  -3.65    +66.1298
iter: 275 14:12:55  -867.136827c -5.69  -3.67    +66.1142
iter: 276 14:15:43  -867.135636c -6.01  -3.56    +66.1096
iter: 277 14:18:31  -867.134968c -6.05  -3.69    +66.0923
iter: 278 14:21:19  -867.136585c -6.23  -3.79    +66.0822
iter: 279 14:24:08  -867.135924c -6.40  -3.55    +66.0846
iter: 280 14:26:57  -867.135762c -5.86  -3.58    +66.0522
iter: 281 14:29:46  -867.137202c -5.78  -3.68    +66.0468
iter: 282 14:32:35  -867.137653c -5.60  -3.51    +66.0498
iter: 283 14:35:24  -867.143448c -5.31  -3.57    +66.0617
iter: 284 14:38:13  -867.136176c -5.63  -3.26    +66.0661
iter: 285 14:41:02  -867.138213c -5.55  -3.81    +66.0718
iter: 286 14:43:51  -867.136409c -6.25  -3.49    +66.0725
iter: 287 14:47:16  -867.136795c -6.20  -3.84    +66.0912
iter: 288 14:50:04  -867.137408c -5.76  -3.93    +66.0908
iter: 289 14:52:53  -867.137123c -5.93  -3.59    +66.0861
iter: 290 14:55:42  -867.136109c -5.98  -3.77    +66.0701
iter: 291 14:58:30  -867.136956c -6.33  -4.06c   +66.0698
iter: 292 15:01:18  -867.136720c -6.64  -4.13c   +66.0740
iter: 293 15:04:06  -867.136951c -6.76  -4.22c   +66.0825
iter: 294 15:06:55  -867.137132c -6.96  -4.27c   +66.0909
iter: 295 15:10:15  -867.137627c -6.52  -4.26c   +66.1091
iter: 296 15:13:10  -867.136866c -6.54  -4.12c   +66.0831
iter: 297 15:15:58  -867.137653c -6.49  -4.24c   +66.1090
iter: 298 15:18:47  -867.137176c -6.46  -4.00c   +66.0929
iter: 299 15:21:35  -867.137998c -6.49  -3.90    +66.1029
iter: 300 15:24:24  -867.137674c -6.90  -3.98    +66.1050
iter: 301 15:27:12  -867.137953c -6.58  -4.15c   +66.1084
iter: 302 15:30:05  -867.138594c -6.09  -3.85    +66.1108
iter: 303 15:33:30  -867.138079c -6.22  -3.66    +66.1263
iter: 304 15:36:19  -867.139415c -5.69  -3.94    +66.1359
iter: 305 15:39:07  -867.137835c -5.99  -3.43    +66.1312
iter: 306 15:41:55  -867.137427c -6.63  -3.94    +66.1254
iter: 307 15:44:43  -867.137642c -6.99  -4.32c   +66.1218
iter: 308 15:47:32  -867.137294c -6.99  -4.09c   +66.1241
iter: 309 15:50:19  -867.137390c -7.37  -4.22c   +66.1201
iter: 310 15:53:08  -867.137189c -6.84  -4.26c   +66.1156
iter: 311 15:56:27  -867.137668c -6.86  -4.25c   +66.1138
iter: 312 15:59:23  -867.137451c -7.11  -4.13c   +66.1148
iter: 313 16:02:12  -867.137201c -6.83  -4.23c   +66.1148
iter: 314 16:05:00  -867.137441c -7.11  -4.16c   +66.1136
iter: 315 16:07:49  -867.137373c -7.71c -4.31c   +66.1150

Converged after 315 iterations.

Dipole moment: (66.722837, -1.266696, 0.061814) |e|*Ang

Total magnetic moment: (0.000000, 0.000000, 66.115002)
Local magnetic moments:
   0 Co ( 0.000000,  0.000000,  1.642618)
   1 Fe ( 0.000000,  0.000000,  2.026074)
   2 Co ( 0.000000,  0.000000,  1.046201)
   3 Fe ( 0.000000,  0.000000,  2.719891)
   4 Co ( 0.000000,  0.000000,  1.551550)
   5 Fe ( 0.000000,  0.000000,  3.026206)
   6 Co ( 0.000000,  0.000000,  0.484000)
   7 Al ( 0.000000,  0.000000, -0.040010)
   8 Co ( 0.000000,  0.000000,  1.262224)
   9 Co ( 0.000000,  0.000000,  1.430089)
  10 Fe ( 0.000000,  0.000000,  2.129241)
  11 Fe ( 0.000000,  0.000000,  2.906508)
  12 Co ( 0.000000,  0.000000,  1.422889)
  13 Co ( 0.000000,  0.000000,  1.763909)
  14 Al ( 0.000000,  0.000000, -0.053982)
  15 Fe ( 0.000000,  0.000000,  3.083985)
  16 Al ( 0.000000,  0.000000, -0.056192)
  17 Co ( 0.000000,  0.000000,  1.574089)
  18 Cr ( 0.000000,  0.000000,  2.482154)
  19 Ni ( 0.000000,  0.000000,  0.611475)
  20 Ni ( 0.000000,  0.000000,  0.636432)
  21 Ni ( 0.000000,  0.000000,  0.302028)
  22 Cr ( 0.000000,  0.000000, -2.390966)
  23 Al ( 0.000000,  0.000000, -0.037517)
  24 Al ( 0.000000,  0.000000, -0.018072)
  25 Al ( 0.000000,  0.000000, -0.029844)
  26 Al ( 0.000000,  0.000000, -0.023936)
  27 Al ( 0.000000,  0.000000, -0.015973)
  28 Fe ( 0.000000,  0.000000,  2.779505)
  29 Cr ( 0.000000,  0.000000, -1.896871)
  30 Al ( 0.000000,  0.000000, -0.033696)
  31 Ni ( 0.000000,  0.000000,  0.302447)
  32 Ni ( 0.000000,  0.000000,  0.471073)
  33 Al ( 0.000000,  0.000000, -0.046973)
  34 Co ( 0.000000,  0.000000,  1.108186)
  35 Al ( 0.000000,  0.000000, -0.018202)
  36 Fe ( 0.000000,  0.000000,  2.533736)
  37 Ni ( 0.000000,  0.000000,  0.406178)
  38 Co ( 0.000000,  0.000000,  1.469270)
  39 Cr ( 0.000000,  0.000000, -1.809252)
  40 Fe ( 0.000000,  0.000000,  2.277310)
  41 Cr ( 0.000000,  0.000000, -2.126955)
  42 Fe ( 0.000000,  0.000000,  2.293831)
  43 Ni ( 0.000000,  0.000000,  0.229464)
  44 Cr ( 0.000000,  0.000000,  1.291770)
  45 Fe ( 0.000000,  0.000000,  2.618157)
  46 Ni ( 0.000000,  0.000000,  0.073104)
  47 Ni ( 0.000000,  0.000000,  0.104341)
  48 Ni ( 0.000000,  0.000000,  0.414888)
  49 Al ( 0.000000,  0.000000, -0.043939)
  50 Co ( 0.000000,  0.000000,  0.356961)
  51 Cr ( 0.000000,  0.000000, -2.376948)
  52 Co ( 0.000000,  0.000000,  1.492795)
  53 Ni ( 0.000000,  0.000000,  0.358356)
  54 Ni ( 0.000000,  0.000000,  0.335141)
  55 Cr ( 0.000000,  0.000000,  1.275407)
  56 Cr ( 0.000000,  0.000000, -1.867773)
  57 Co ( 0.000000,  0.000000,  1.674009)
  58 Co ( 0.000000,  0.000000,  1.502620)
  59 Cr ( 0.000000,  0.000000, -2.127015)
  60 Cr ( 0.000000,  0.000000,  0.994839)
  61 Co ( 0.000000,  0.000000,  1.291230)
  62 Co ( 0.000000,  0.000000,  1.667877)
  63 Ni ( 0.000000,  0.000000,  0.475781)
  64 Al ( 0.000000,  0.000000, -0.024584)
  65 Cr ( 0.000000,  0.000000,  1.599119)
  66 Fe ( 0.000000,  0.000000,  2.058359)
  67 Cr ( 0.000000,  0.000000, -1.657823)
  68 Al ( 0.000000,  0.000000, -0.026241)
  69 Fe ( 0.000000,  0.000000,  2.405911)
  70 Cr ( 0.000000,  0.000000, -2.278613)
  71 Ni ( 0.000000,  0.000000,  0.017684)
  72 Co ( 0.000000,  0.000000,  1.344905)
  73 Co ( 0.000000,  0.000000,  1.185393)
  74 Cr ( 0.000000,  0.000000, -2.038210)
  75 Al ( 0.000000,  0.000000, -0.001752)
  76 Co ( 0.000000,  0.000000,  0.972634)
  77 Ni ( 0.000000,  0.000000,  0.362051)
  78 Fe ( 0.000000,  0.000000,  2.435161)
  79 Fe ( 0.000000,  0.000000,  2.415939)
  80 Al ( 0.000000,  0.000000, -0.025426)
  81 Cr ( 0.000000,  0.000000,  1.775920)
  82 Cr ( 0.000000,  0.000000, -1.431691)
  83 Co ( 0.000000,  0.000000,  1.243055)
  84 Fe ( 0.000000,  0.000000,  2.382552)
  85 Ni ( 0.000000,  0.000000,  0.191862)
  86 Cr ( 0.000000,  0.000000, -1.739419)
  87 Fe ( 0.000000,  0.000000,  2.595822)
  88 Ni ( 0.000000,  0.000000,  0.382282)
  89 Co ( 0.000000,  0.000000,  0.730619)
  90 Co ( 0.000000,  0.000000,  0.665366)
  91 Co ( 0.000000,  0.000000,  0.804166)
  92 Fe ( 0.000000,  0.000000,  1.748580)
  93 Al ( 0.000000,  0.000000, -0.037665)
  94 Ni ( 0.000000,  0.000000,  0.042931)
  95 Cr ( 0.000000,  0.000000, -2.765839)
  96 Co ( 0.000000,  0.000000,  0.895624)
  97 Ni ( 0.000000,  0.000000,  0.246968)
  98 Al ( 0.000000,  0.000000, -0.042030)
  99 Al ( 0.000000,  0.000000, -0.035067)
 100 Cr ( 0.000000,  0.000000, -2.140189)
 101 Cr ( 0.000000,  0.000000, -3.044052)
 102 Fe ( 0.000000,  0.000000,  2.547870)
 103 Cr ( 0.000000,  0.000000, -3.280142)
 104 Al ( 0.000000,  0.000000, -0.000790)
 105 Cr ( 0.000000,  0.000000,  2.925897)
 106 Fe ( 0.000000,  0.000000,  1.865010)
 107 Ni ( 0.000000,  0.000000,  0.227327)
 108 Al ( 0.000000,  0.000000, -0.017778)
 109 Cr ( 0.000000,  0.000000, -1.727888)
 110 Ni ( 0.000000,  0.000000,  0.038906)
 111 Al ( 0.000000,  0.000000, -0.017668)
 112 Fe ( 0.000000,  0.000000,  3.037540)
 113 Al ( 0.000000,  0.000000, -0.001233)
 114 Ni ( 0.000000,  0.000000,  0.021228)
 115 Al ( 0.000000,  0.000000,  0.001034)
 116 Ni ( 0.000000,  0.000000,  0.161223)
 117 Al ( 0.000000,  0.000000, -0.007318)
 118 Fe ( 0.000000,  0.000000,  2.496498)
 119 Cr ( 0.000000,  0.000000, -3.430120)
 120 Fe ( 0.000000,  0.000000,  2.601605)
 121 Ni ( 0.000000,  0.000000,  0.163745)
 122 Ni ( 0.000000,  0.000000,  0.029172)
 123 Fe ( 0.000000,  0.000000,  2.354109)
 124 Fe ( 0.000000,  0.000000,  1.985572)

Energy contributions relative to reference atoms: (reference = -3726899.091688)

Kinetic:       +289.033876
Potential:     -285.127102
External:        +0.000000
XC:            -902.681665
Entropy (-ST):   -5.001881
Local:          +34.138459
--------------------------
Free energy:   -869.638314
Extrapolated:  -867.137373

Dipole-layer corrected work functions: 4.197339, 4.117228 eV

Spin contamination: 49.107386 electrons
Showing all kpts
                      Up                     Down
 Kpt  Band  Eigenvalues  Occupancy  Eigenvalues  Occupancy
  0   523      0.36132    0.99704      1.25830    0.04107
  0   524      0.37493    0.99661      1.26711    0.03774
  0   525      0.37737    0.99653      1.27880    0.03371
  0   526      0.39517    0.99585      1.28754    0.03098

  1   523      0.36024    0.99707      1.25705    0.04157
  1   524      0.36867    0.99681      1.27181    0.03607
  1   525      0.38086    0.99640      1.27914    0.03360
  1   526      0.38837    0.99612      1.28445    0.03192


Fermi level: 0.94324

No gap

Forces in eV/Ang:
  0 Co    0.59279    0.79260    0.23810
  1 Fe    1.24904   -0.28257    0.59737
  2 Co   -0.96650   -0.96724   -0.47406
  3 Fe   -0.45654   -0.12604    0.25240
  4 Co   -0.19127    0.15733   -0.30968
  5 Fe    0.10871    0.69463    1.21444
  6 Co   -1.03710   -0.72361   -0.41042
  7 Al    0.42143    0.04426    0.60019
  8 Co    1.18060   -0.37087    0.28917
  9 Co   -0.13375   -0.57702   -1.05766
 10 Fe    0.15101   -1.31471   -0.48463
 11 Fe   -0.39625   -0.26219    0.82646
 12 Co   -0.82987   -0.77171   -0.28032
 13 Co    0.31287   -0.27673    0.90939
 14 Al   -0.67377   -0.25889    0.43393
 15 Fe    0.08302    0.44523    1.55633
 16 Al   -0.77410    0.68036   -1.27209
 17 Co    0.32370    0.69853    0.13322
 18 Cr    0.42630   -0.85189   -0.36973
 19 Ni   -0.72219   -0.14596    0.04843
 20 Ni    0.57718   -0.23682    0.04076
 21 Ni    1.10984   -0.51558   -0.64800
 22 Cr    0.86025   -0.75800   -0.95238
 23 Al    0.39650   -0.05867    0.75875
 24 Al   -0.10089    0.19179   -0.79335
 25 Al   -0.49486    0.77262    1.14626
 26 Al    0.19125   -0.17794    0.77488
 27 Al   -0.35588    0.32944    1.18403
 28 Fe   -0.22212    0.71147   -0.34500
 29 Cr   -0.44471    0.16969   -0.53272
 30 Al   -1.21508   -0.52516    0.44063
 31 Ni   -0.12777   -0.89187   -1.73603
 32 Ni    0.71158    0.16575    1.16857
 33 Al   -0.81623   -0.71875   -0.17576
 34 Co   -0.53094   -0.01135    1.01275
 35 Al    1.61246    0.48515    0.10988
 36 Fe   -0.64588    0.75394   -0.55920
 37 Ni    0.35249    0.91191    0.45956
 38 Co    0.31986    0.20324    0.46340
 39 Cr   -0.21111    0.14741    0.17421
 40 Fe    0.85698   -0.49122   -1.38692
 41 Cr    0.12782   -0.75848    1.61095
 42 Fe   -1.81999    0.61485   -0.20672
 43 Ni    2.29535   -1.47522   -1.01716
 44 Cr   -0.22843    2.44847   -0.94577
 45 Fe   -0.02839   -0.11800    0.39299
 46 Ni   -0.60991   -0.63137   -0.83894
 47 Ni   -0.65217    1.73563    0.44296
 48 Ni   -0.68027   -0.13403   -0.13682
 49 Al    0.93516    0.38379    0.46567
 50 Co   -0.70348   -1.08358    0.26438
 51 Cr    0.45558    1.15392   -0.85597
 52 Co    0.49068   -0.40478   -0.45452
 53 Ni    0.22474    0.37841   -0.19447
 54 Ni   -1.01124   -1.25331   -0.90702
 55 Cr    0.68250   -0.10186    0.40979
 56 Cr   -0.04139    0.51228   -0.49001
 57 Co    0.60892    0.19464   -0.97667
 58 Co    0.50089    1.63529   -0.13437
 59 Cr   -0.90502   -0.09472   -0.91443
 60 Cr    0.13048   -0.06508    0.78361
 61 Co   -0.32650   -0.47030    0.05121
 62 Co   -0.14895   -0.53118    0.36467
 63 Ni   -1.56130    1.43515    0.27547
 64 Al    0.24919   -0.32188   -0.43778
 65 Cr   -0.45010    0.16800    0.42474
 66 Fe   -1.04082    0.12853   -0.08276
 67 Cr   -0.38273   -0.27681    0.85539
 68 Al    1.10375   -0.22811   -0.85541
 69 Fe    0.33042   -0.63707   -0.28777
 70 Cr   -0.50439   -0.38515   -0.31534
 71 Ni    0.03371    0.80668   -0.55814
 72 Co   -0.94801    1.00348    0.40074
 73 Co   -0.52279    0.19706    0.90900
 74 Cr   -0.62492    0.25124   -1.67394
 75 Al   -0.28016    0.61315   -0.29973
 76 Co    0.43767   -0.23021    0.16441
 77 Ni    0.57420    0.23517    0.41863
 78 Fe   -0.94151    1.47250   -0.00293
 79 Fe    0.41479   -0.05467   -0.79783
 80 Al   -0.07029    1.24840    1.63534
 81 Cr   -0.45051    1.08862   -1.23279
 82 Cr    3.81595    0.20945   -0.48635
 83 Co   -0.09728    0.21132   -1.03195
 84 Fe    0.64732   -1.96279   -0.41787
 85 Ni   -0.21922   -0.29251    0.84023
 86 Cr    0.90113    1.06227   -1.76773
 87 Fe   -0.89331   -0.62847    0.08047
 88 Ni   -0.98269    0.81382    0.76809
 89 Co   -0.20419   -0.40347    1.26371
 90 Co   -0.04988   -0.44366   -0.39535
 91 Co    0.01589   -0.29955    1.08903
 92 Fe   -0.66322   -0.28253    0.23967
 93 Al    0.40710   -0.47979    1.04288
 94 Ni   -0.09842    0.97881    0.33360
 95 Cr   -0.30541   -0.14114    0.36501
 96 Co   -0.38796    0.68318    1.05399
 97 Ni    1.14171    0.63772    0.31314
 98 Al    0.32765   -0.49945   -0.13001
 99 Al    0.67271   -0.85590   -0.44984
100 Cr   -2.20175   -0.06514    1.56589
101 Cr    0.12564    0.82313   -0.41874
102 Fe   -0.28771   -0.62536   -0.73627
103 Cr    0.55816   -0.13290   -0.17075
104 Al    0.36787    0.13090    0.02054
105 Cr   -0.07556   -0.56618    0.68659
106 Fe    0.27826    0.84476   -0.32780
107 Ni    0.23623   -1.61438    0.73732
108 Al    0.41760    0.40389    0.52969
109 Cr   -0.08035   -0.45089    0.47967
110 Ni   -0.39128   -0.06446   -1.35340
111 Al   -4.44829    1.14319    0.55781
112 Fe    0.12987   -0.21930   -1.56456
113 Al    1.01003   -0.94303    1.22616
114 Ni    0.10304   -0.59256   -0.25160
115 Al    0.75357    0.99325   -0.20216
116 Ni    0.44017   -0.37107   -0.75545
117 Al    0.32398   -0.48204   -0.66028
118 Fe    0.62629    0.83066   -0.70044
119 Cr   -0.75781   -0.50035    0.33405
120 Fe    1.16657    0.61301   -1.01302
121 Ni    0.08953   -0.89711    0.37443
122 Ni    0.37161   -1.45253    1.10128
123 Fe    1.01997    0.15242    0.27331
124 Fe    1.04946   -0.75756   -0.83044

Timing:                              incl.     excl.
-----------------------------------------------------------
Forces:                             45.226    45.226   0.1% |
Hamiltonian:                         1.841     0.015   0.0% |
 Atomic:                             0.438     0.002   0.0% |
  XC Correction:                     0.436     0.436   0.0% |
 Calculate atomic Hamiltonians:      0.659     0.659   0.0% |
 Communicate:                        0.075     0.075   0.0% |
 Initialize Hamiltonian:             0.001     0.001   0.0% |
 Poisson:                            0.139     0.139   0.0% |
 XC 3D grid:                         0.514     0.514   0.0% |
LCAO initialization:               313.621     0.629   0.0% |
 LCAO eigensolver:                  18.253     0.021   0.0% |
  Calculate projections:             0.000     0.000   0.0% |
  DenseAtomicCorrection:             0.000     0.000   0.0% |
  Distribute overlap matrix:         8.148     8.148   0.0% |
  Orbital Layouts:                   9.896     9.896   0.0% |
  Potential matrix:                  0.010     0.010   0.0% |
  Sum over cells:                    0.178     0.178   0.0% |
 LCAO to grid:                     292.571   292.571   0.5% |
 Set positions (LCAO WFS):           2.167     1.822   0.0% |
  Basic WFS set positions:           0.004     0.004   0.0% |
  Basis functions set positions:     0.001     0.001   0.0% |
  P tci:                             0.001     0.001   0.0% |
  ST tci:                            0.129     0.129   0.0% |
  mktci:                             0.210     0.210   0.0% |
PWDescriptor:                        0.150     0.150   0.0% |
SCF-cycle:                       54532.851     2.276   0.0% |
 Davidson:                       52614.841 15094.505  27.5% |----------|
  Apply H:                        1086.780  1066.653   1.9% ||
   HMM T:                           20.127    20.127   0.0% |
  Subspace diag:                  5049.907     0.192   0.0% |
   calc_h_matrix:                 2279.628  1256.636   2.3% ||
    Apply H:                      1022.992  1001.116   1.8% ||
     HMM T:                         21.876    21.876   0.0% |
   diagonalize:                    410.120   410.120   0.7% |
   rotate_psi:                    2359.967  2359.967   4.3% |-|
  calc. matrices:                11447.763  9495.593  17.3% |------|
   Apply H:                       1952.169  1911.947   3.5% ||
    HMM T:                          40.223    40.223   0.1% |
  diagonalize:                   14921.230 14921.230  27.2% |----------|
  rotate_psi:                     5014.657  5014.657   9.1% |---|
 Density:                         1109.092     0.016   0.0% |
  Atomic density matrices:           8.888     8.888   0.0% |
  Mix:                             579.076   579.076   1.1% |
  Multipole moments:                 0.308     0.308   0.0% |
  Pseudo density:                  520.804   520.786   0.9% |
   Symmetrize density:               0.018     0.018   0.0% |
 Hamiltonian:                      788.604     5.450   0.0% |
  Atomic:                          138.875     0.651   0.0% |
   XC Correction:                  138.224   138.224   0.3% |
  Calculate atomic Hamiltonians:   452.955   452.955   0.8% |
  Communicate:                      22.919    22.919   0.0% |
  Poisson:                          15.514    15.514   0.0% |
  XC 3D grid:                      152.892   152.892   0.3% |
 Orthonormalize:                    18.038     0.001   0.0% |
  calc_s_matrix:                     2.189     2.189   0.0% |
  inverse-cholesky:                  0.784     0.784   0.0% |
  projections:                      11.272    11.272   0.0% |
  rotate_psi_s:                      3.793     3.793   0.0% |
Set symmetry:                        0.001     0.001   0.0% |
Other:                               7.912     7.912   0.0% |
-----------------------------------------------------------
Total:                                     54901.602 100.0%

Date: Tue Apr 18 16:08:38 2023
