
  ___ ___ ___ _ _ _  
 |   |   |_  | | | | 
 | | | | | . | | | | 
 |__ |  _|___|_____|  22.8.0
 |___|_|             

User:   c.zeng@d0106
Date:   Tue Apr 18 00:59:39 2023
Arch:   x86_64
Pid:    126132
CWD:    /home/c.zeng/projects/hea-corrosion/hea-mlp/data-curation/surface-md/dft-jobs/96
Python: 3.8.1
gpaw:   /home/c.zeng/usr/installs/gpaw/source/gpaw-22.8.0/gpaw
_gpaw:  /home/c.zeng/usr/installs/gpaw/source/gpaw-22.8.0/
        _gpaw.cpython-38-x86_64-linux-gnu.so
ase:    /home/c.zeng/.local/lib/python3.8/site-packages/ase-3.22.1-py3.8.egg/ase (version 3.22.1)
numpy:  /home/c.zeng/.local/lib/python3.8/site-packages/numpy (version 1.24.2)
scipy:  /home/c.zeng/.local/lib/python3.8/site-packages/scipy (version 1.10.1)
libxc:  4.2.3
units:  Angstrom and eV
cores: 30
OpenMP: False
OMP_NUM_THREADS: 1

Input parameters:
  convergence: {energy: 0.0001}
  kpts: [2 2 1]
  maxiter: 666
  mode: {ecut: 350.0,
         name: pw}
  occupations: {fixmagmom: False,
                name: fermi-dirac,
                width: 0.1}
  poissonsolver: {dipolelayer: xy}
  spinpol: True
  symmetry: {point_group: False}
  xc: PBE

System changes: positions, numbers, cell, pbc, initial_charges, initial_magmoms 

Initialize ...

species:
  Co:
    name: Cobalt
    id: 339d20d5b0b93d2de9531a1bee871d91
    Z: 27.0
    valence: 9
    core: 18
    charge: 0.0
    file: /home/c.zeng/usr/data/gpaw-setups-0.9.20000/Co.PBE.gz
    compensation charges: {type: gauss,
                           rc: 0.32,
                           lmax: 2}
    cutoffs: {filter: 1.87,
              core: 2.55}
    valence states:
      #              energy  rcut
      - 4s(2.00)    -5.469   1.005
      - 4p(0.00)    -1.277   1.058
      - 3d(7.00)    -8.205   1.005
      -  s          21.742   1.005
      -  p          25.934   1.058
      -  d          19.007   1.005
  
    # Using partial waves for Co as LCAO basis

  Fe:
    name: Iron
    id: 37abbd8d6c3c35915a9b583b742da910
    Z: 26.0
    valence: 8
    core: 18
    charge: 0.0
    file: /home/c.zeng/usr/data/gpaw-setups-0.9.20000/Fe.PBE.gz
    compensation charges: {type: gauss,
                           rc: 0.33,
                           lmax: 2}
    cutoffs: {filter: 2.06,
              core: 2.67}
    valence states:
      #              energy  rcut
      - 4s(2.00)    -5.291   1.164
      - 4p(0.00)    -1.326   1.058
      - 3d(6.00)    -7.505   1.058
      -  s          21.920   1.164
      -  p          25.885   1.058
      -  d          19.706   1.058
  
    # Using partial waves for Fe as LCAO basis

  Al:
    name: Aluminium
    id: 0292cae29f5d6237e50f6abdd43a7bdd
    Z: 13.0
    valence: 3
    core: 10
    charge: 0.0
    file: /home/c.zeng/usr/data/gpaw-setups-0.9.20000/Al.PBE.gz
    compensation charges: {type: gauss,
                           rc: 0.34,
                           lmax: 2}
    cutoffs: {filter: 1.91,
              core: 2.36}
    valence states:
      #              energy  rcut
      - 3s(2.00)    -7.753   1.085
      - 3p(1.00)    -2.712   1.085
      -  s          19.459   1.085
      -  p          24.499   1.085
      -  d           0.000   1.085
  
    # Using partial waves for Al as LCAO basis

  Cr:
    name: Chromium
    id: 33f258bda2ca9f93018e70263a35547b
    Z: 24.0
    valence: 6
    core: 18
    charge: 0.0
    file: /home/c.zeng/usr/data/gpaw-setups-0.9.20000/Cr.PBE.gz
    compensation charges: {type: gauss,
                           rc: 0.35,
                           lmax: 2}
    cutoffs: {filter: 2.14,
              core: 3.04}
    valence states:
      #              energy  rcut
      - 4s(1.00)    -4.007   1.164
      - 4p(0.00)    -0.989   1.217
      - 3d(5.00)    -2.913   1.111
      -  s          23.205   1.164
      -  p          26.223   1.217
      -  d          24.299   1.111
  
    # Using partial waves for Cr as LCAO basis

  Ni:
    name: Nickel
    id: 0d9f38a9d6e76a2886f07bb4381f212b
    Z: 28.0
    valence: 16
    core: 12
    charge: 0.0
    file: /home/c.zeng/usr/data/gpaw-setups-0.9.20000/Ni.PBE.gz
    compensation charges: {type: gauss,
                           rc: 0.36,
                           lmax: 2}
    cutoffs: {filter: 2.14,
              core: 1.98}
    valence states:
      #              energy  rcut
      - 4s(2.00)    -5.642   1.164
      - 3p(6.00)   -71.394   1.207
      - 4p(0.00)    -1.226   1.207
      - 3d(8.00)    -8.875   1.138
      -  s          21.570   1.164
      -  d          18.337   1.138
  
    # Using partial waves for Ni as LCAO basis

Reference energy: -3726899.091688  # eV

Spin-polarized calculation.
Magnetic moment: 140.000000

Convergence criteria:
 Maximum [total energy] change in last 3 cyles: 0.0001 eV / electron
 Maximum integral of absolute [dens]ity change: 0.0001 electrons / valence electron
 Maximum integral of absolute [eigenst]ate change: 4e-08 eV^2 / valence electron
 Maximum number of scf [iter]ations: 666
 (Square brackets indicate name in SCF output, whereas a 'c' in
 the SCF output indicates the quantity has converged.)

Symmetries present (total): 1

  ( 1  0  0)
  ( 0  1  0)
  ( 0  0  1)

4 k-points: 2 x 2 x 1 Monkhorst-Pack grid
2 k-points in the irreducible part of the Brillouin zone
       k-points in crystal coordinates                weights
   0:     0.25000000   -0.25000000    0.00000000          2/4
   1:     0.25000000    0.25000000    0.00000000          2/4

Wave functions: Plane wave expansion
  Cutoff energy: 350.000 eV
  Number of coefficients (min, max): 60935, 60955
  Pulay-stress correction: 0.000000 eV/Ang^3 (de/decut=0.000000)
  Using FFTW library
  ScaLapack parameters: grid=1x1, blocksize=None
  Wavefunction extrapolation:
    Improved wavefunction reuse through dual PAW basis 

Occupation numbers: Fermi-Dirac:
  width: 0.1000  # eV
 

Eigensolver
   Davidson(niter=2) 

Densities:
  Coarse grid: 56*56*128 grid
  Fine grid: 112*112*256 grid
  Total Charge: 0.000000 

Density mixing:
  Method: difference
  Backend: pulay
  Linear mixing parameter: 0.05
  old densities: 5
  Damping of long wavelength oscillations: 50 

Hamiltonian:
  XC and Coulomb potentials evaluated on a 112*112*256 grid
  Using the PBE Exchange-Correlation functional
  External potential:
    NoExternalPotential
 

XC parameters: PBE with 2 nearest neighbor stencil

Memory estimate:
  Process memory now: 377.73 MiB
  Calculator: 2131.41 MiB
    Density: 19.02 MiB
      Arrays: 7.39 MiB
      Localized functions: 8.68 MiB
      Mixer: 2.95 MiB
    Hamiltonian: 5.75 MiB
      Arrays: 5.49 MiB
      XC: 0.00 MiB
      Poisson: 0.00 MiB
      vbar: 0.26 MiB
    Wavefunctions: 2106.64 MiB
      Arrays psit_nG: 1335.62 MiB
      Eigensolver: 751.15 MiB
      Projections: 3.10 MiB
      Projectors: 1.18 MiB
      PW-descriptor: 15.59 MiB

Total number of cores used: 30
Parallelization over k-points: 2
Domain decomposition: 1 x 3 x 5

Number of atoms: 125
Number of atomic orbitals: 1075
Number of bands in calculation: 718
Number of valence electrons: 1050
Bands to converge: occupied

... initialized

Initializing position-dependent things.

Density initialized from atomic densities
Creating initial wave functions:
  718 bands from LCAO basis set

                                                                     
                                                                     
                                                                     
                                                                     
                                                                     
                                                                     
                                                                     
                                Cr      Cr                           
                    Fe                       Fe                      
                        Ni     Co AlrCr   Ni   All                   
                                Fe      Ni              Al           
                      Al    Ni            Nir    Cr                  
                          Al  FeNi  NAle       Ni  Co                
                Cr   Ni   Co  CrAl  Al Fe Nil                        
                      Cr    Fe          CoAl  Co                     
                Fe   CrFe     Co NNiFe         Fe                    
                    Fe    CrFe          Co                           
                  Cr              Cr   Al       Al        Al         
             Co  CrNi  CCo   NCoCo  FeCr  Al                         
                      Fe  Co      Nii    Ni   Al                     
                   Cr       Ni     Ni      Fe   Ni                   
        Co        Fe Co  Ni  CriCoCoAlCr   Cr      Al  Ni            
              ANi    Fe    Al  Coo    Cr     Fe                      
         Cr             Fe Co         Al                             
               Co   FeNi    Co  CoCo                                 
           Cr     Al          Co                                     
                  Al    Fe                                           
           Fe     Co                Al                               
                                                                     
                       Fe                                            
                                                                     
                                                                     
                                                                     
                                                                     
                                                                     

Positions:
   0 Co    10.251428    0.256226   10.978190    ( 0.0000,  0.0000,  2.1000)
   1 Fe     2.593990    0.412549    9.261242    ( 0.0000,  0.0000,  2.0000)
   2 Co     5.277050    0.542411    9.119244    ( 0.0000,  0.0000,  2.1000)
   3 Fe     7.767938    0.620678   10.267733    ( 0.0000,  0.0000,  2.0000)
   4 Co    10.769516   -0.163640   13.264841    ( 0.0000,  0.0000,  2.1000)
   5 Fe     7.346103    0.297056    7.768515    ( 0.0000,  0.0000,  2.0000)
   6 Co     3.989428    1.739268   11.020431    ( 0.0000,  0.0000,  2.1000)
   7 Al     4.512882    3.151174    8.669118    ( 0.0000,  0.0000,  0.0000)
   8 Co     9.049578    2.673035   10.584985    ( 0.0000,  0.0000,  2.1000)
   9 Co    11.474361    2.339495   11.073347    ( 0.0000,  0.0000,  2.1000)
  10 Fe    14.149135    6.379549   12.374024    ( 0.0000,  0.0000,  2.0000)
  11 Fe     4.625366    6.360414    9.045273    ( 0.0000,  0.0000,  2.0000)
  12 Co     7.826939    4.761446   10.416797    ( 0.0000,  0.0000,  2.1000)
  13 Co    10.239841    4.523066   10.083629    ( 0.0000,  0.0000,  2.1000)
  14 Al    12.757403    4.427873   10.325341    ( 0.0000,  0.0000,  0.0000)
  15 Fe    14.627282    6.953000    9.896892    ( 0.0000,  0.0000,  2.0000)
  16 Al     6.728731    7.072933   10.537948    ( 0.0000,  0.0000,  0.0000)
  17 Co     9.314129    6.923591   10.051895    ( 0.0000,  0.0000,  2.1000)
  18 Cr    11.807793    6.986725   10.362183    ( 0.0000,  0.0000,  0.0000)
  19 Ni    15.474575    8.926643   11.060859    ( 0.0000,  0.0000,  1.5000)
  20 Ni    18.098559    9.364231    9.757297    ( 0.0000,  0.0000,  1.5000)
  21 Ni     7.895595    9.213035    9.885437    ( 0.0000,  0.0000,  1.5000)
  22 Cr    13.378490    9.360927    9.514385    ( 0.0000,  0.0000,  0.0000)
  23 Al    15.888243   12.566827    8.557966    ( 0.0000,  0.0000,  0.0000)
  24 Al    13.468761   13.874002    8.988832    ( 0.0000,  0.0000,  0.0000)
  25 Al    19.133937   11.069040   11.769461    ( 0.0000,  0.0000,  0.0000)
  26 Al    10.612669    9.170201    9.510817    ( 0.0000,  0.0000,  0.0000)
  27 Al     5.723387   -0.394202   11.281975    ( 0.0000,  0.0000,  0.0000)
  28 Fe     7.985271   -0.726748   12.996193    ( 0.0000,  0.0000,  2.0000)
  29 Cr    10.586637   -1.640889   15.517842    ( 0.0000,  0.0000,  0.0000)
  30 Al    12.900320    0.509420    8.927346    ( 0.0000,  0.0000,  0.0000)
  31 Ni     4.156340    0.719900   13.248765    ( 0.0000,  0.0000,  1.5000)
  32 Ni     6.365276    2.451981   11.104013    ( 0.0000,  0.0000,  1.5000)
  33 Al     8.967856    1.470346   12.871113    ( 0.0000,  0.0000,  0.0000)
  34 Co    11.740439    1.884640   13.332900    ( 0.0000,  0.0000,  2.1000)
  35 Al     2.836861    4.527328   11.285263    ( 0.0000,  0.0000,  0.0000)
  36 Fe     5.584219    5.105850   11.325775    ( 0.0000,  0.0000,  2.0000)
  37 Ni     7.507872    3.725823   12.760321    ( 0.0000,  0.0000,  1.5000)
  38 Co    10.112296    3.764164   12.738364    ( 0.0000,  0.0000,  2.1000)
  39 Cr    12.823824    3.993202   12.739526    ( 0.0000,  0.0000,  0.0000)
  40 Fe     3.960791    6.864298   11.300653    ( 0.0000,  0.0000,  2.0000)
  41 Cr     5.692444    6.719316   13.145974    ( 0.0000,  0.0000,  0.0000)
  42 Fe     7.953374    6.203708   12.449707    ( 0.0000,  0.0000,  2.0000)
  43 Ni    11.010727    5.843588   12.235165    ( 0.0000,  0.0000,  1.5000)
  44 Cr    15.252929    2.651093   13.343692    ( 0.0000,  0.0000,  0.0000)
  45 Fe     5.081924    8.877165   11.974499    ( 0.0000,  0.0000,  2.0000)
  46 Ni     7.808422    8.667932   12.259792    ( 0.0000,  0.0000,  1.5000)
  47 Ni    10.297236    8.290206   11.925704    ( 0.0000,  0.0000,  1.5000)
  48 Ni    12.828231    8.419817   12.016061    ( 0.0000,  0.0000,  1.5000)
  49 Al    15.850903    8.084669   13.378932    ( 0.0000,  0.0000,  0.0000)
  50 Co     1.487960    0.457009   13.920591    ( 0.0000,  0.0000,  2.1000)
  51 Cr     2.853692   -0.300266   11.490428    ( 0.0000,  0.0000,  0.0000)
  52 Co     6.406409    1.521232   13.276743    ( 0.0000,  0.0000,  2.1000)
  53 Ni     9.386667    0.464356   15.293808    ( 0.0000,  0.0000,  1.5000)
  54 Ni    11.869635    0.333046   15.781224    ( 0.0000,  0.0000,  1.5000)
  55 Cr     1.471914    2.074616   11.445956    ( 0.0000,  0.0000,  0.0000)
  56 Cr     5.070112    3.300855   13.336351    ( 0.0000,  0.0000,  0.0000)
  57 Co     8.054214    2.444846   14.939325    ( 0.0000,  0.0000,  2.1000)
  58 Co    10.462375    2.983738   15.089675    ( 0.0000,  0.0000,  2.1000)
  59 Cr    13.022662    2.617385   15.387614    ( 0.0000,  0.0000,  0.0000)
  60 Cr     3.830645    5.733421   13.635529    ( 0.0000,  0.0000,  0.0000)
  61 Co     6.653935    4.384557   14.898907    ( 0.0000,  0.0000,  2.1000)
  62 Co     9.032645    5.052086   14.484187    ( 0.0000,  0.0000,  2.1000)
  63 Ni    10.402620    6.286638   16.423045    ( 0.0000,  0.0000,  1.5000)
  64 Al    13.966939    5.064063   14.476250    ( 0.0000,  0.0000,  0.0000)
  65 Cr     5.077421    7.142116   15.309463    ( 0.0000,  0.0000,  0.0000)
  66 Fe     7.840155    7.072896   14.689504    ( 0.0000,  0.0000,  2.0000)
  67 Cr    10.103542    7.074630   14.167178    ( 0.0000,  0.0000,  0.0000)
  68 Al    12.359547    7.228336   14.097286    ( 0.0000,  0.0000,  0.0000)
  69 Fe    15.548647    7.104365   16.028911    ( 0.0000,  0.0000,  2.0000)
  70 Cr     6.341294    9.355169   14.055770    ( 0.0000,  0.0000,  0.0000)
  71 Ni     9.434799    9.414610   14.286467    ( 0.0000,  0.0000,  1.5000)
  72 Co    12.100483    9.483831   13.863455    ( 0.0000,  0.0000,  2.1000)
  73 Co    14.544105    8.946288   15.300961    ( 0.0000,  0.0000,  2.1000)
  74 Cr    13.769403    8.417342   17.910079    ( 0.0000,  0.0000,  0.0000)
  75 Al    12.639820    1.501512   19.847783    ( 0.0000,  0.0000,  0.0000)
  76 Co     3.011763    2.160919   15.784160    ( 0.0000,  0.0000,  2.1000)
  77 Ni     5.460302    2.137276   15.634674    ( 0.0000,  0.0000,  1.5000)
  78 Fe     6.520722    3.773078   17.169674    ( 0.0000,  0.0000,  2.0000)
  79 Fe    11.532017    4.912960   14.690961    ( 0.0000,  0.0000,  2.0000)
  80 Al    14.208607    4.196455   17.772455    ( 0.0000,  0.0000,  0.0000)
  81 Cr     4.414535    4.693074   15.582590    ( 0.0000,  0.0000,  0.0000)
  82 Cr     7.809602    4.646743   19.158946    ( 0.0000,  0.0000,  0.0000)
  83 Co     9.336316    3.912445   17.075320    ( 0.0000,  0.0000,  2.1000)
  84 Fe    11.867506    4.001748   17.204564    ( 0.0000,  0.0000,  2.0000)
  85 Ni    15.956470    6.114278   18.159142    ( 0.0000,  0.0000,  1.5000)
  86 Cr     5.635060    5.862749   17.242289    ( 0.0000,  0.0000,  0.0000)
  87 Fe     8.012030    5.921985   17.073696    ( 0.0000,  0.0000,  2.0000)
  88 Ni     9.843992    5.533886   18.790417    ( 0.0000,  0.0000,  1.5000)
  89 Co    13.037866    6.448222   16.404877    ( 0.0000,  0.0000,  2.1000)
  90 Co    17.032835    8.006832   17.978151    ( 0.0000,  0.0000,  2.1000)
  91 Co     6.552533    8.507633   16.628728    ( 0.0000,  0.0000,  2.1000)
  92 Fe     7.962541   10.402750   16.416534    ( 0.0000,  0.0000,  2.0000)
  93 Al     9.225526    8.421293   16.502913    ( 0.0000,  0.0000,  0.0000)
  94 Ni    12.988876    8.493558   20.144928    ( 0.0000,  0.0000,  1.5000)
  95 Cr    15.509098   10.234519   17.254472    ( 0.0000,  0.0000,  0.0000)
  96 Co     7.462712   12.835437   17.450101    ( 0.0000,  0.0000,  2.1000)
  97 Ni    10.261186   10.996265   15.865518    ( 0.0000,  0.0000,  1.5000)
  98 Al    12.926389   10.726542   15.837314    ( 0.0000,  0.0000,  0.0000)
  99 Al    14.561791   12.879465   17.618158    ( 0.0000,  0.0000,  0.0000)
 100 Cr     8.317353   11.379764   19.926078    ( 0.0000,  0.0000,  0.0000)
 101 Cr     9.763783   11.292683   18.095969    ( 0.0000,  0.0000,  0.0000)
 102 Fe     6.014262    1.341588   17.845213    ( 0.0000,  0.0000,  2.0000)
 103 Cr    11.679425   10.442826   20.632838    ( 0.0000,  0.0000,  0.0000)
 104 Al    15.391371    8.181397   19.912780    ( 0.0000,  0.0000,  0.0000)
 105 Cr     4.285880    1.553308   19.810602    ( 0.0000,  0.0000,  0.0000)
 106 Fe     3.978268    3.238692   17.913555    ( 0.0000,  0.0000,  2.0000)
 107 Ni     5.863894    3.005560   19.317851    ( 0.0000,  0.0000,  1.5000)
 108 Al     8.128676    2.265552   20.686873    ( 0.0000,  0.0000,  0.0000)
 109 Cr     9.852770    3.016005   19.214189    ( 0.0000,  0.0000,  0.0000)
 110 Ni    14.802554    2.624485   19.631717    ( 0.0000,  0.0000,  1.5000)
 111 Al     5.662336    5.752758   19.558806    ( 0.0000,  0.0000,  0.0000)
 112 Fe     9.989454    4.363039   21.347758    ( 0.0000,  0.0000,  2.0000)
 113 Al    12.123704    4.200841   19.889293    ( 0.0000,  0.0000,  0.0000)
 114 Ni    13.606840    6.192001   19.088691    ( 0.0000,  0.0000,  1.5000)
 115 Al    18.363707   10.392607   18.288216    ( 0.0000,  0.0000,  0.0000)
 116 Ni     7.675521    7.402897   19.053232    ( 0.0000,  0.0000,  1.5000)
 117 Al     9.866182    8.798623   19.796079    ( 0.0000,  0.0000,  0.0000)
 118 Fe    11.667273    7.460184   18.261852    ( 0.0000,  0.0000,  2.0000)
 119 Cr    11.650726    6.665933   20.773751    ( 0.0000,  0.0000,  0.0000)
 120 Fe     3.338381   11.290846   19.587221    ( 0.0000,  0.0000,  2.0000)
 121 Ni     4.855140   12.964782   17.797941    ( 0.0000,  0.0000,  1.5000)
 122 Ni    11.841962    9.881169   18.301900    ( 0.0000,  0.0000,  1.5000)
 123 Fe    11.764249    8.591682   16.162163    ( 0.0000,  0.0000,  2.0000)
 124 Fe    13.754706   10.817289   19.317055    ( 0.0000,  0.0000,  2.0000)

Unit cell:
           periodic     x           y           z      points  spacing
  1. axis:    yes   12.688900    0.000000    0.000000    56     0.1962
  2. axis:    yes    6.352870   11.003500    0.000000    56     0.1965
  3. axis:    no     0.000000    0.000000   29.353100   128     0.2293

  Lengths:  12.688900  12.705746  29.353100
  Angles:   90.000000  90.000000  60.000014

Effective grid spacing dv^(1/3) = 0.2169

     iter     time        total  log10-change:  magmom
                         energy  eigst   dens
iter:   1 01:06:13 -1086.010710                  +140.3334
iter:   2 01:08:28 -1118.381509  +0.11  -1.07    +71.7572
iter:   3 01:10:44 -3023.480718  +1.32  -0.92    +62.5069
iter:   4 01:12:59  -899.986079  +0.46  -0.51    +50.1763
iter:   5 01:15:14  -924.384033  +0.45  -1.12    +39.8699
iter:   6 01:17:30  -948.854819  +0.10  -1.13    +45.4392
iter:   7 01:19:45  -915.242953  -0.50  -1.10    +48.6238
iter:   8 01:22:01  -929.617757  -0.90  -1.18    +52.8578
iter:   9 01:24:16 -1448.014476  -0.09  -1.16    +56.8425
iter:  10 01:26:31  -923.382735  -0.60  -0.84    +54.0468
iter:  11 01:28:47  -880.646173  -1.39  -1.19    +52.6574
iter:  12 01:31:02  -905.628408  -0.88  -1.36    +56.4569
iter:  13 01:33:18  -927.568852  -1.33  -1.27    +56.4557
iter:  14 01:35:33  -873.235942  -1.54  -1.18    +58.5481
iter:  15 01:37:49  -904.481996  -1.38  -1.41    +58.5923
iter:  16 01:40:04  -868.011014  -1.67  -1.28    +58.8017
iter:  17 01:42:20  -867.490313  -1.94  -1.48    +57.4305
iter:  18 01:44:35  -859.342484  -2.33  -1.48    +61.2418
iter:  19 01:46:51  -861.141022  -1.89  -1.58    +64.9287
iter:  20 01:49:06  -860.829804  -1.95  -1.62    +66.9079
iter:  21 01:51:22  -857.851810  -2.18  -1.65    +68.5833
iter:  22 01:53:38  -886.729054  -1.96  -1.80    +69.1484
iter:  23 01:55:53  -880.415488  -1.65  -1.42    +70.6866
iter:  24 01:58:09  -862.905989  -2.42  -1.44    +68.5784
iter:  25 02:00:24  -865.355351  -2.51  -1.75    +68.1680
iter:  26 02:02:39  -866.450820  -2.60  -1.72    +68.4144
iter:  27 02:04:55  -868.143122  -2.78  -1.70    +68.3189
iter:  28 02:07:07  -889.297783  -1.62  -1.68    +67.7266
iter:  29 02:09:20  -865.290038  -1.93  -1.45    +67.3214
iter:  30 02:11:33  -865.284010  -2.55  -1.78    +67.4519
iter:  31 02:13:45  -863.716040  -2.46  -1.79    +67.7834
iter:  32 02:15:58  -864.329912  -2.51  -1.86    +67.8131
iter:  33 02:18:11  -872.053833  -2.61  -1.84    +67.8153
iter:  34 02:20:23  -869.951582  -2.09  -1.62    +67.0772
iter:  35 02:22:36  -863.387012  -2.33  -1.75    +65.9974
iter:  36 02:24:48  -864.437234  -2.93  -1.91    +66.9650
iter:  37 02:27:01  -864.235744  -3.47  -1.86    +67.2038
iter:  38 02:29:13  -865.744153  -3.17  -1.88    +67.3138
iter:  39 02:31:26  -871.602291  -2.20  -1.83    +67.2910
iter:  40 02:33:38  -864.101391  -2.18  -1.66    +67.4970
iter:  41 02:35:51  -865.123206  -2.52  -2.00    +67.2811
iter:  42 02:38:04  -863.284715  -2.74  -1.90    +67.4512
iter:  43 02:40:17  -864.983674  -2.91  -2.07    +67.6460
iter:  44 02:42:29  -863.148407  -3.45  -1.90    +67.7096
iter:  45 02:44:42  -863.493255  -2.81  -2.05    +68.0582
iter:  46 02:46:55  -863.572238  -3.02  -2.08    +68.0814
iter:  47 02:49:07  -862.692732  -3.34  -2.03    +68.4269
iter:  48 02:51:20  -863.301007  -3.11  -2.25    +68.5638
iter:  49 02:53:33  -862.643546  -3.29  -2.16    +68.9557
iter:  50 02:55:46  -863.846154  -2.93  -2.49    +69.1938
iter:  51 02:57:58  -862.729838  -3.36  -2.17    +69.3010
iter:  52 03:00:11  -862.980401  -3.61  -2.55    +69.8557
iter:  53 03:02:24  -862.723741  -4.06  -2.41    +69.5580
iter:  54 03:04:36  -862.973816  -3.21  -2.64    +69.6618
iter:  55 03:06:49  -862.977312  -2.70  -2.54    +70.2819
iter:  56 03:09:02  -863.340812  -2.94  -2.47    +71.1429
iter:  57 03:11:14  -863.297778  -3.45  -2.35    +71.4686
iter:  58 03:13:27  -863.604084  -3.42  -2.36    +71.7427
iter:  59 03:15:40  -863.580317  -4.33  -2.35    +71.6279
iter:  60 03:17:52  -864.760015  -3.43  -2.34    +71.7955
iter:  61 03:20:05  -863.782085  -2.66  -2.11    +71.6834
iter:  62 03:22:18  -864.669636  -2.72  -2.23    +72.2719
iter:  63 03:24:30  -868.597771  -2.26  -2.09    +72.9654
iter:  64 03:26:43  -869.152004  -2.26  -1.78    +72.9460
iter:  65 03:28:56  -868.391147  -2.12  -1.79    +74.3562
iter:  66 03:31:08  -863.484605  -2.63  -1.81    +74.2818
iter:  67 03:33:21  -863.458570  -3.33  -2.32    +74.9906
iter:  68 03:35:33  -863.464526c -3.72  -2.39    +75.4134
iter:  69 03:37:46  -863.498336c -3.40  -2.42    +76.1067
iter:  70 03:39:58  -863.608420  -3.91  -2.43    +76.0468
iter:  71 03:42:11  -873.291168  -2.38  -2.41    +76.3277
iter:  72 03:44:23  -864.243877  -2.61  -1.66    +76.2664
iter:  73 03:46:36  -864.319397  -3.50  -2.25    +76.4715
iter:  74 03:48:48  -865.167731  -2.94  -2.24    +77.0151
iter:  75 03:51:01  -863.748508  -3.40  -2.02    +77.1172
iter:  76 03:53:13  -864.484524  -3.15  -2.27    +77.2499
iter:  77 03:55:26  -910.099333  -1.67  -2.12    +77.2894
iter:  78 03:57:38  -864.041500  -2.07  -1.33    +76.9168
iter:  79 03:59:51  -863.697498  -2.81  -2.21    +76.7923
iter:  80 04:02:04  -863.638306  -3.38  -2.36    +76.6858
iter:  81 04:04:16  -863.592934c -3.29  -2.39    +76.7238
iter:  82 04:06:29  -863.697388c -3.24  -2.41    +76.6972
iter:  83 04:08:42  -878.246536  -2.20  -2.34    +76.7415
iter:  84 04:10:55  -863.830037  -2.50  -1.57    +76.7697
iter:  85 04:13:08  -863.507328  -3.42  -2.31    +76.9511
iter:  86 04:15:21  -863.591633  -3.90  -2.49    +77.1989
iter:  87 04:17:34  -863.795381  -3.97  -2.45    +77.5409
iter:  88 04:19:47  -863.614906  -4.08  -2.40    +77.0800
iter:  89 04:21:59  -874.201353  -2.35  -2.43    +76.9180
iter:  90 04:24:12  -863.562549  -2.67  -1.64    +77.2690
iter:  91 04:26:25  -863.454940  -3.64  -2.45    +77.4358
iter:  92 04:28:37  -863.519647  -4.18  -2.54    +77.4664
iter:  93 04:30:49  -863.529534c -3.27  -2.47    +77.5181
iter:  94 04:33:01  -863.310897  -3.77  -2.49    +77.5313
iter:  95 04:35:13  -865.132773  -3.04  -2.67    +77.3155
iter:  96 04:37:25  -863.280934  -3.36  -2.03    +77.5242
iter:  97 04:39:37  -863.361671  -4.05  -2.74    +77.4488
iter:  98 04:41:49  -863.299301c -4.43  -2.61    +77.2467
iter:  99 04:44:01  -863.314191c -4.67  -2.82    +77.1371
iter: 100 04:46:14  -863.338727c -4.01  -2.83    +76.7822
iter: 101 04:48:26  -863.323293c -4.21  -2.94    +77.0146
iter: 102 04:50:38  -863.355347c -3.76  -2.80    +76.6289
iter: 103 04:52:49  -863.385006c -4.08  -2.93    +76.4928
iter: 104 04:55:02  -863.398172c -4.45  -2.86    +76.4105
iter: 105 04:57:14  -863.410197c -4.69  -2.84    +76.3650
iter: 106 04:59:26  -863.433460c -4.76  -2.78    +76.3623
iter: 107 05:01:38  -863.991741  -3.77  -2.78    +76.4118
iter: 108 05:03:50  -863.440109  -3.88  -2.30    +76.3797
iter: 109 05:06:01  -863.423798  -4.03  -2.74    +76.3210
iter: 110 05:08:13  -863.596987  -3.83  -2.73    +76.1545
iter: 111 05:10:26  -863.518913  -3.21  -2.48    +76.0822
iter: 112 05:12:38  -863.379518  -3.43  -2.58    +75.7410
iter: 113 05:14:50  -863.328166  -3.84  -2.67    +75.9607
iter: 114 05:17:02  -863.360229c -4.09  -2.94    +76.0139
iter: 115 05:19:14  -863.372799c -4.29  -2.86    +75.9538
iter: 116 05:21:26  -863.339683c -4.28  -2.88    +76.0020
iter: 117 05:23:38  -863.347548c -4.73  -3.09    +76.0784
iter: 118 05:25:53  -863.353937c -5.01  -3.09    +76.0834
iter: 119 05:28:09  -863.349081c -4.94  -3.03    +76.0706
iter: 120 05:30:25  -863.372098c -4.81  -3.13    +76.0778
iter: 121 05:32:40  -863.356976c -4.79  -2.96    +76.0892
iter: 122 05:34:57  -863.350154c -5.18  -3.08    +76.0937
iter: 123 05:37:13  -863.345981c -5.12  -3.21    +76.0946
iter: 124 05:39:28  -863.349548c -5.25  -3.30    +76.1173
iter: 125 05:41:44  -863.350110c -5.18  -3.42    +76.1357
iter: 126 05:44:00  -863.360495c -5.21  -3.41    +76.1718
iter: 127 05:46:15  -863.358875c -4.94  -3.21    +76.2091
iter: 128 05:48:31  -863.351152c -5.49  -3.07    +76.1840
iter: 129 05:50:47  -863.351955c -5.64  -3.52    +76.1988
iter: 130 05:53:03  -863.351577c -5.91  -3.49    +76.2159
iter: 131 05:55:19  -863.352238c -5.74  -3.63    +76.2256
iter: 132 05:57:29  -863.352287c -6.00  -3.64    +76.2264
iter: 133 05:59:36  -863.352006c -5.71  -3.73    +76.2399
iter: 134 06:01:44  -863.361186c -5.38  -3.50    +76.2298
iter: 135 06:03:51  -863.354057c -6.05  -3.29    +76.2284
iter: 136 06:05:59  -863.353789c -6.18  -3.69    +76.2435
iter: 137 06:08:07  -863.355685c -6.01  -3.81    +76.2603
iter: 138 06:10:14  -863.355973c -6.85  -3.61    +76.2555
iter: 139 06:12:22  -863.355835c -5.49  -3.55    +76.3009
iter: 140 06:14:29  -863.354977c -5.81  -3.73    +76.3157
iter: 141 06:16:37  -863.356385c -6.28  -3.54    +76.3144
iter: 142 06:18:44  -863.355120c -5.75  -3.68    +76.3231
iter: 143 06:20:52  -863.356524c -6.08  -3.51    +76.3208
iter: 144 06:22:59  -863.363575c -5.56  -3.70    +76.3298
iter: 145 06:25:06  -863.360159c -5.24  -3.26    +76.3375
iter: 146 06:27:14  -863.354543c -5.21  -3.34    +76.3731
iter: 147 06:29:21  -863.355843c -5.67  -3.43    +76.3514
iter: 148 06:31:29  -863.353594c -5.98  -3.64    +76.3563
iter: 149 06:33:36  -863.354868c -5.64  -3.86    +76.3484
iter: 150 06:35:44  -863.354564c -6.03  -3.71    +76.3252
iter: 151 06:37:52  -863.354144c -6.47  -3.84    +76.3280
iter: 152 06:39:59  -863.354215c -6.68  -4.08c   +76.3239
iter: 153 06:42:07  -863.353540c -6.20  -4.06c   +76.3195
iter: 154 06:44:15  -863.356130c -6.09  -3.72    +76.3180
iter: 155 06:46:22  -863.354433c -6.55  -3.66    +76.3206
iter: 156 06:48:30  -863.354029c -6.67  -3.94    +76.3215
iter: 157 06:50:37  -863.354646c -6.74  -4.24c   +76.3146
iter: 158 06:52:45  -863.354342c -7.17  -3.92    +76.3169
iter: 159 06:54:52  -863.354322c -7.20  -4.08c   +76.3175
iter: 160 06:57:00  -863.353588c -6.36  -4.17c   +76.3171
iter: 161 06:59:07  -863.354339c -6.68  -3.80    +76.3182
iter: 162 07:01:15  -863.354235c -7.10  -4.27c   +76.3159
iter: 163 07:03:22  -863.353806c -6.97  -4.19c   +76.3144
iter: 164 07:05:30  -863.354007c -7.42c -4.14c   +76.3153

Converged after 164 iterations.

Dipole moment: (-37.562765, -50.878623, 0.168981) |e|*Ang

Total magnetic moment: (0.000000, 0.000000, 76.315275)
Local magnetic moments:
   0 Co ( 0.000000,  0.000000,  1.658395)
   1 Fe ( 0.000000,  0.000000,  2.661745)
   2 Co ( 0.000000,  0.000000,  1.196796)
   3 Fe ( 0.000000,  0.000000,  2.524455)
   4 Co ( 0.000000,  0.000000,  1.347458)
   5 Fe ( 0.000000,  0.000000,  2.962453)
   6 Co ( 0.000000,  0.000000,  1.355945)
   7 Al ( 0.000000,  0.000000, -0.026460)
   8 Co ( 0.000000,  0.000000,  1.276936)
   9 Co ( 0.000000,  0.000000,  1.479595)
  10 Fe ( 0.000000,  0.000000,  2.281768)
  11 Fe ( 0.000000,  0.000000,  3.046002)
  12 Co ( 0.000000,  0.000000,  1.564035)
  13 Co ( 0.000000,  0.000000,  1.735644)
  14 Al ( 0.000000,  0.000000, -0.029099)
  15 Fe ( 0.000000,  0.000000,  2.905736)
  16 Al ( 0.000000,  0.000000, -0.055153)
  17 Co ( 0.000000,  0.000000,  1.615616)
  18 Cr ( 0.000000,  0.000000, -2.833679)
  19 Ni ( 0.000000,  0.000000,  0.496449)
  20 Ni ( 0.000000,  0.000000,  0.511178)
  21 Ni ( 0.000000,  0.000000,  0.271532)
  22 Cr ( 0.000000,  0.000000, -3.223007)
  23 Al ( 0.000000,  0.000000, -0.037478)
  24 Al ( 0.000000,  0.000000, -0.032883)
  25 Al ( 0.000000,  0.000000, -0.013753)
  26 Al ( 0.000000,  0.000000,  0.015000)
  27 Al ( 0.000000,  0.000000, -0.019215)
  28 Fe ( 0.000000,  0.000000,  2.754010)
  29 Cr ( 0.000000,  0.000000,  0.869993)
  30 Al ( 0.000000,  0.000000, -0.034408)
  31 Ni ( 0.000000,  0.000000,  0.252713)
  32 Ni ( 0.000000,  0.000000,  0.435146)
  33 Al ( 0.000000,  0.000000, -0.056409)
  34 Co ( 0.000000,  0.000000,  1.462086)
  35 Al ( 0.000000,  0.000000, -0.023694)
  36 Fe ( 0.000000,  0.000000,  2.436507)
  37 Ni ( 0.000000,  0.000000,  0.512804)
  38 Co ( 0.000000,  0.000000,  1.653817)
  39 Cr ( 0.000000,  0.000000, -2.373045)
  40 Fe ( 0.000000,  0.000000,  1.968618)
  41 Cr ( 0.000000,  0.000000, -0.641578)
  42 Fe ( 0.000000,  0.000000,  2.538563)
  43 Ni ( 0.000000,  0.000000,  0.132022)
  44 Cr ( 0.000000,  0.000000,  1.137841)
  45 Fe ( 0.000000,  0.000000,  2.047056)
  46 Ni ( 0.000000,  0.000000,  0.133864)
  47 Ni ( 0.000000,  0.000000,  0.159754)
  48 Ni ( 0.000000,  0.000000,  0.200186)
  49 Al ( 0.000000,  0.000000, -0.041260)
  50 Co ( 0.000000,  0.000000,  1.390227)
  51 Cr ( 0.000000,  0.000000, -2.300151)
  52 Co ( 0.000000,  0.000000,  1.367162)
  53 Ni ( 0.000000,  0.000000,  0.306911)
  54 Ni ( 0.000000,  0.000000,  0.220488)
  55 Cr ( 0.000000,  0.000000,  1.263770)
  56 Cr ( 0.000000,  0.000000, -2.261265)
  57 Co ( 0.000000,  0.000000,  1.645638)
  58 Co ( 0.000000,  0.000000,  1.635743)
  59 Cr ( 0.000000,  0.000000, -2.708708)
  60 Cr ( 0.000000,  0.000000, -0.129580)
  61 Co ( 0.000000,  0.000000,  1.490403)
  62 Co ( 0.000000,  0.000000,  1.422969)
  63 Ni ( 0.000000,  0.000000,  0.304777)
  64 Al ( 0.000000,  0.000000, -0.032159)
  65 Cr ( 0.000000,  0.000000, -0.002393)
  66 Fe ( 0.000000,  0.000000,  2.382936)
  67 Cr ( 0.000000,  0.000000, -1.647308)
  68 Al ( 0.000000,  0.000000, -0.042260)
  69 Fe ( 0.000000,  0.000000,  2.581006)
  70 Cr ( 0.000000,  0.000000, -2.346078)
  71 Ni ( 0.000000,  0.000000,  0.227204)
  72 Co ( 0.000000,  0.000000,  1.338335)
  73 Co ( 0.000000,  0.000000,  1.140371)
  74 Cr ( 0.000000,  0.000000, -2.257380)
  75 Al ( 0.000000,  0.000000, -0.008691)
  76 Co ( 0.000000,  0.000000,  1.619762)
  77 Ni ( 0.000000,  0.000000,  0.548116)
  78 Fe ( 0.000000,  0.000000,  2.267886)
  79 Fe ( 0.000000,  0.000000,  2.113612)
  80 Al ( 0.000000,  0.000000, -0.038037)
  81 Cr ( 0.000000,  0.000000,  1.201786)
  82 Cr ( 0.000000,  0.000000, -2.362901)
  83 Co ( 0.000000,  0.000000,  1.130000)
  84 Fe ( 0.000000,  0.000000,  2.492373)
  85 Ni ( 0.000000,  0.000000,  0.404972)
  86 Cr ( 0.000000,  0.000000, -0.939139)
  87 Fe ( 0.000000,  0.000000,  2.492591)
  88 Ni ( 0.000000,  0.000000,  0.215099)
  89 Co ( 0.000000,  0.000000,  1.266134)
  90 Co ( 0.000000,  0.000000,  1.446842)
  91 Co ( 0.000000,  0.000000,  1.294577)
  92 Fe ( 0.000000,  0.000000,  2.627275)
  93 Al ( 0.000000,  0.000000, -0.048747)
  94 Ni ( 0.000000,  0.000000,  0.003478)
  95 Cr ( 0.000000,  0.000000,  2.100705)
  96 Co ( 0.000000,  0.000000,  1.262387)
  97 Ni ( 0.000000,  0.000000,  0.387994)
  98 Al ( 0.000000,  0.000000, -0.033441)
  99 Al ( 0.000000,  0.000000, -0.048663)
 100 Cr ( 0.000000,  0.000000, -2.781002)
 101 Cr ( 0.000000,  0.000000,  1.451736)
 102 Fe ( 0.000000,  0.000000,  2.287947)
 103 Cr ( 0.000000,  0.000000, -3.146019)
 104 Al ( 0.000000,  0.000000, -0.028737)
 105 Cr ( 0.000000,  0.000000,  1.840312)
 106 Fe ( 0.000000,  0.000000,  2.777907)
 107 Ni ( 0.000000,  0.000000,  0.401987)
 108 Al ( 0.000000,  0.000000, -0.010963)
 109 Cr ( 0.000000,  0.000000,  1.376758)
 110 Ni ( 0.000000,  0.000000,  0.055563)
 111 Al ( 0.000000,  0.000000,  0.015339)
 112 Fe ( 0.000000,  0.000000,  2.926244)
 113 Al ( 0.000000,  0.000000, -0.015741)
 114 Ni ( 0.000000,  0.000000,  0.119109)
 115 Al ( 0.000000,  0.000000, -0.031132)
 116 Ni ( 0.000000,  0.000000,  0.322823)
 117 Al ( 0.000000,  0.000000,  0.008096)
 118 Fe ( 0.000000,  0.000000,  2.445097)
 119 Cr ( 0.000000,  0.000000, -3.438798)
 120 Fe ( 0.000000,  0.000000,  2.574544)
 121 Ni ( 0.000000,  0.000000,  0.414860)
 122 Ni ( 0.000000,  0.000000,  0.224888)
 123 Fe ( 0.000000,  0.000000,  2.367406)
 124 Fe ( 0.000000,  0.000000,  2.487915)

Energy contributions relative to reference atoms: (reference = -3726899.091688)

Kinetic:       +182.658008
Potential:     -203.895796
External:        +0.000000
XC:            -873.723690
Entropy (-ST):   -5.004622
Local:          +34.109783
--------------------------
Free energy:   -865.856318
Extrapolated:  -863.354007

Dipole-layer corrected work functions: 4.250084, 4.031084 eV

Spin contamination: 45.010596 electrons
Showing all kpts
                      Up                     Down
 Kpt  Band  Eigenvalues  Occupancy  Eigenvalues  Occupancy
  0   523      0.29141    0.99874      1.31144    0.02858
  0   524      0.29500    0.99869      1.32224    0.02573
  0   525      0.30499    0.99856      1.33162    0.02348
  0   526      0.32362    0.99826      1.34248    0.02111

  1   523      0.28292    0.99884      1.30850    0.02941
  1   524      0.30103    0.99861      1.31601    0.02734
  1   525      0.31106    0.99846      1.32988    0.02388
  1   526      0.31981    0.99832      1.33946    0.02175


Fermi level: 0.95883

Gap: 0.003 eV
Transition (v -> c):
  (s=0, k=0, n=563, [0.25, -0.25, 0.00]) -> (s=1, k=1, n=487, [0.25, 0.25, 0.00])

Forces in eV/Ang:
  0 Co   -0.27679   -0.13644   -0.42019
  1 Fe    1.45527    0.15338    0.84069
  2 Co    0.30752    0.47396    0.37939
  3 Fe    0.77633   -0.52590    0.12043
  4 Co   -0.30070   -1.29538    0.73638
  5 Fe   -0.22121    0.45884    1.34658
  6 Co   -0.38758    0.74056   -0.15974
  7 Al   -0.25545   -0.17785    1.13437
  8 Co   -0.35281   -0.03877    0.94770
  9 Co   -0.02526    0.22086   -0.66686
 10 Fe   -0.05775   -0.10885   -1.16919
 11 Fe   -0.33816   -0.43971    1.34317
 12 Co    0.31673    0.20490    0.36626
 13 Co    0.30452    0.93845    0.74895
 14 Al    0.23335    0.32944   -0.55904
 15 Fe   -0.41362   -0.25216    0.89749
 16 Al   -0.40762    1.36539   -0.94045
 17 Co   -0.24496   -0.31790    1.18402
 18 Cr    0.33161   -0.30688   -0.83997
 19 Ni   -0.59737    0.71336    0.01565
 20 Ni    0.01468   -0.10140    0.37278
 21 Ni    0.34964    0.45967   -0.16233
 22 Cr    0.29176   -0.33118   -0.51427
 23 Al    0.38145   -0.54210    0.30036
 24 Al    0.36352   -0.36520   -0.90848
 25 Al   -0.18214   -0.92841   -0.18078
 26 Al   -0.74041    0.34582   -0.34305
 27 Al   -0.87777    0.98276    2.06014
 28 Fe   -0.39060   -0.76322    0.24477
 29 Cr    0.55209   -0.72942    0.30523
 30 Al   -0.98296   -0.29190    1.02408
 31 Ni   -0.27651   -0.20028    1.15237
 32 Ni   -0.46976    0.08274    0.06003
 33 Al    0.33820    1.24327   -0.47129
 34 Co    0.36873   -0.42627    0.73239
 35 Al    0.36542   -0.64611    0.00318
 36 Fe   -0.31307   -1.62996    0.35897
 37 Ni    0.86235    0.14718   -0.19821
 38 Co    0.06283   -0.47055   -0.32780
 39 Cr   -0.27344   -0.85228   -0.42673
 40 Fe    0.03508   -0.17915   -0.65101
 41 Cr    0.53637    0.80393   -0.47447
 42 Fe    1.46074   -1.07835    0.20085
 43 Ni    0.08756    0.25830    0.19876
 44 Cr   -0.54257    0.37047    0.01671
 45 Fe    0.80117    0.32542   -0.04571
 46 Ni   -0.09863   -0.12493    0.46455
 47 Ni    0.08223    0.31890    0.39508
 48 Ni    1.13390   -0.38917   -1.05436
 49 Al   -0.22173    0.82114    0.56089
 50 Co    0.28322    0.31177   -0.01043
 51 Cr   -0.46314   -0.22392    0.31508
 52 Co    1.14085   -1.80797    0.66300
 53 Ni   -0.52585    0.38269   -0.66976
 54 Ni    0.59626    0.12953   -0.22138
 55 Cr    0.49718    0.80741    0.11141
 56 Cr   -1.16834    0.84894   -0.72841
 57 Co   -0.58048    0.64155    0.61000
 58 Co   -0.33883   -1.18243    0.39945
 59 Cr    0.37466    0.22794   -0.68812
 60 Cr   -0.37540   -1.68164   -0.22556
 61 Co    0.03386    1.27233    0.13728
 62 Co   -0.19888   -1.19944    0.48884
 63 Ni    0.30326   -0.32517    0.37015
 64 Al    2.37381    0.34733    2.03906
 65 Cr    0.73419    0.15001    0.15917
 66 Fe   -1.05381    0.70079    0.48096
 67 Cr   -2.13193    0.93979   -0.48469
 68 Al    2.78407   -0.71870    0.02977
 69 Fe   -0.25393   -1.00981   -0.09359
 70 Cr    0.16807   -0.01596    0.85149
 71 Ni   -0.57169    0.16622   -0.85205
 72 Co   -1.16341    1.98023    0.46851
 73 Co   -1.30690    0.80395   -0.39137
 74 Cr    0.91414    0.25897   -1.70065
 75 Al   -2.46872    1.26989   -0.48146
 76 Co   -0.59701    0.27869    0.28514
 77 Ni   -0.13436   -0.02273   -0.39177
 78 Fe    0.53535   -0.30571   -0.43415
 79 Fe   -0.24185    0.27089   -0.15230
 80 Al    0.95791    0.83471   -0.43919
 81 Cr   -1.23533   -0.97391    0.57904
 82 Cr   -0.06168   -1.00888    0.29658
 83 Co   -0.12234    0.16986   -0.89175
 84 Fe   -0.71399    1.70509   -0.73619
 85 Ni   -0.58561   -1.74415    0.58560
 86 Cr   -0.52010    0.90747   -2.01529
 87 Fe    0.13889    0.74688   -0.53836
 88 Ni    1.68428    0.92939    0.50132
 89 Co   -0.08234   -0.35004    0.48715
 90 Co    0.96659    1.70986   -0.57858
 91 Co    0.19502   -0.34815    0.41829
 92 Fe   -1.19219    1.78549   -0.58007
 93 Al    0.24890   -0.73715    0.97204
 94 Ni    0.47574    0.13966   -0.14670
 95 Cr    0.05068   -0.54950    1.22725
 96 Co    0.24953   -1.09246    0.19559
 97 Ni    1.37147   -0.36635   -0.63985
 98 Al    0.59833    1.35051    0.05173
 99 Al    1.55800   -0.73865   -0.25474
100 Cr    2.01503   -2.66395   -0.53304
101 Cr   -0.40607    0.36810    0.69839
102 Fe   -1.97449   -1.58193   -0.37980
103 Cr   -0.34579    1.12653    0.37983
104 Al    0.05613    0.13171   -0.64371
105 Cr   -0.60900   -0.88488    0.49031
106 Fe   -0.38681    0.14887   -0.93629
107 Ni    1.48195    1.50426    1.34938
108 Al   -0.97867   -0.56354   -0.41139
109 Cr    0.77448    1.11561    1.08029
110 Ni   -0.13552    1.11817   -0.46253
111 Al   -0.97907    0.34181    1.07124
112 Fe   -0.16377    0.07552   -1.59969
113 Al    0.37765    0.23615   -0.37723
114 Ni   -0.15957   -0.05222    0.03368
115 Al   -0.14897   -0.23228   -0.91348
116 Ni    0.14406   -0.49222   -0.85336
117 Al   -0.40249   -0.29907   -0.82623
118 Fe   -0.91129   -1.11626    0.11845
119 Cr   -0.84318   -0.54657   -0.34238
120 Fe    0.36195    0.62002   -0.41282
121 Ni    0.02705   -2.12306   -0.97351
122 Ni   -0.96007    0.35162   -0.89730
123 Fe   -0.17368   -0.65693   -0.76675
124 Fe    0.63288    0.30889   -0.24302

Timing:                              incl.     excl.
-----------------------------------------------------------
Forces:                             37.886    37.886   0.2% |
Hamiltonian:                         2.138     0.012   0.0% |
 Atomic:                             0.407     0.001   0.0% |
  XC Correction:                     0.405     0.405   0.0% |
 Calculate atomic Hamiltonians:      1.147     1.147   0.0% |
 Communicate:                        0.108     0.108   0.0% |
 Initialize Hamiltonian:             0.000     0.000   0.0% |
 Poisson:                            0.096     0.096   0.0% |
 XC 3D grid:                         0.367     0.367   0.0% |
LCAO initialization:               237.792     0.567   0.0% |
 LCAO eigensolver:                  11.138     0.012   0.0% |
  Calculate projections:             0.000     0.000   0.0% |
  DenseAtomicCorrection:             0.000     0.000   0.0% |
  Distribute overlap matrix:         6.759     6.759   0.0% |
  Orbital Layouts:                   4.130     4.130   0.0% |
  Potential matrix:                  0.007     0.007   0.0% |
  Sum over cells:                    0.230     0.230   0.0% |
 LCAO to grid:                     224.103   224.103   1.0% |
 Set positions (LCAO WFS):           1.984     1.726   0.0% |
  Basic WFS set positions:           0.004     0.004   0.0% |
  Basis functions set positions:     0.001     0.001   0.0% |
  P tci:                             0.000     0.000   0.0% |
  ST tci:                            0.093     0.093   0.0% |
  mktci:                             0.161     0.161   0.0% |
PWDescriptor:                        0.102     0.102   0.0% |
SCF-cycle:                       21706.389     1.554   0.0% |
 Davidson:                       20930.810  7414.093  33.7% |------------|
  Apply H:                         404.801   397.847   1.8% ||
   HMM T:                            6.954     6.954   0.0% |
  Subspace diag:                  2295.159     0.058   0.0% |
   calc_h_matrix:                  973.891   593.222   2.7% ||
    Apply H:                       380.669   373.644   1.7% ||
     HMM T:                          7.025     7.025   0.0% |
   diagonalize:                    172.282   172.282   0.8% |
   rotate_psi:                    1148.929  1148.929   5.2% |-|
  calc. matrices:                 5250.875  4560.740  20.7% |-------|
   Apply H:                        690.134   675.976   3.1% ||
    HMM T:                          14.158    14.158   0.1% |
  diagonalize:                    3179.623  3179.623  14.5% |-----|
  rotate_psi:                     2386.260  2386.260  10.9% |---|
 Density:                          419.863     0.005   0.0% |
  Atomic density matrices:           3.860     3.860   0.0% |
  Mix:                             209.399   209.399   1.0% |
  Multipole moments:                 0.106     0.106   0.0% |
  Pseudo density:                  206.492   206.486   0.9% |
   Symmetrize density:               0.007     0.007   0.0% |
 Hamiltonian:                      336.543     1.949   0.0% |
  Atomic:                           65.964     0.213   0.0% |
   XC Correction:                   65.751    65.751   0.3% |
  Calculate atomic Hamiltonians:   182.428   182.428   0.8% |
  Communicate:                      20.006    20.006   0.1% |
  Poisson:                           6.524     6.524   0.0% |
  XC 3D grid:                       59.671    59.671   0.3% |
 Orthonormalize:                    17.619     0.001   0.0% |
  calc_s_matrix:                     2.026     2.026   0.0% |
  inverse-cholesky:                  0.650     0.650   0.0% |
  projections:                      11.356    11.356   0.1% |
  rotate_psi_s:                      3.586     3.586   0.0% |
Set symmetry:                        0.001     0.001   0.0% |
Other:                               7.521     7.521   0.0% |
-----------------------------------------------------------
Total:                                     21991.828 100.0%

Date: Tue Apr 18 07:06:11 2023
