
  ___ ___ ___ _ _ _  
 |   |   |_  | | | | 
 | | | | | . | | | | 
 |__ |  _|___|_____|  22.8.0
 |___|_|             

User:   c.zeng@d0075
Date:   Fri Apr 14 20:26:18 2023
Arch:   x86_64
Pid:    180775
CWD:    /home/c.zeng/projects/hea-corrosion/hea-mlp/data-curation/bulk-mcmc/dft-jobs/169
Python: 3.8.1
gpaw:   /home/c.zeng/usr/installs/gpaw/source/gpaw-22.8.0/gpaw
_gpaw:  /home/c.zeng/usr/installs/gpaw/source/gpaw-22.8.0/
        _gpaw.cpython-38-x86_64-linux-gnu.so
ase:    /home/c.zeng/.local/lib/python3.8/site-packages/ase-3.22.1-py3.8.egg/ase (version 3.22.1)
numpy:  /shared/centos7/python/3.8.1/lib/python3.8/site-packages/numpy (version 1.17.4)
scipy:  /shared/centos7/python/3.8.1/lib/python3.8/site-packages/scipy (version 1.4.1)
libxc:  4.2.3
units:  Angstrom and eV
cores: 30
OpenMP: False
OMP_NUM_THREADS: 1

Input parameters:
  convergence: {energy: 0.0001}
  kpts: [2 2 2]
  maxiter: 666
  mode: {ecut: 350.0,
         name: pw}
  occupations: {fixmagmom: False,
                name: fermi-dirac,
                width: 0.1}
  spinpol: True
  xc: PBE

System changes: positions, numbers, cell, pbc, initial_charges, initial_magmoms 

Initialize ...

species:
  Co:
    name: Cobalt
    id: 339d20d5b0b93d2de9531a1bee871d91
    Z: 27.0
    valence: 9
    core: 18
    charge: 0.0
    file: /home/c.zeng/usr/data/gpaw-setups-0.9.20000/Co.PBE.gz
    compensation charges: {type: gauss,
                           rc: 0.32,
                           lmax: 2}
    cutoffs: {filter: 1.87,
              core: 2.55}
    valence states:
      #              energy  rcut
      - 4s(2.00)    -5.469   1.005
      - 4p(0.00)    -1.277   1.058
      - 3d(7.00)    -8.205   1.005
      -  s          21.742   1.005
      -  p          25.934   1.058
      -  d          19.007   1.005
  
    # Using partial waves for Co as LCAO basis

  Al:
    name: Aluminium
    id: 0292cae29f5d6237e50f6abdd43a7bdd
    Z: 13.0
    valence: 3
    core: 10
    charge: 0.0
    file: /home/c.zeng/usr/data/gpaw-setups-0.9.20000/Al.PBE.gz
    compensation charges: {type: gauss,
                           rc: 0.34,
                           lmax: 2}
    cutoffs: {filter: 1.91,
              core: 2.36}
    valence states:
      #              energy  rcut
      - 3s(2.00)    -7.753   1.085
      - 3p(1.00)    -2.712   1.085
      -  s          19.459   1.085
      -  p          24.499   1.085
      -  d           0.000   1.085
  
    # Using partial waves for Al as LCAO basis

  Fe:
    name: Iron
    id: 37abbd8d6c3c35915a9b583b742da910
    Z: 26.0
    valence: 8
    core: 18
    charge: 0.0
    file: /home/c.zeng/usr/data/gpaw-setups-0.9.20000/Fe.PBE.gz
    compensation charges: {type: gauss,
                           rc: 0.33,
                           lmax: 2}
    cutoffs: {filter: 2.06,
              core: 2.67}
    valence states:
      #              energy  rcut
      - 4s(2.00)    -5.291   1.164
      - 4p(0.00)    -1.326   1.058
      - 3d(6.00)    -7.505   1.058
      -  s          21.920   1.164
      -  p          25.885   1.058
      -  d          19.706   1.058
  
    # Using partial waves for Fe as LCAO basis

  Cr:
    name: Chromium
    id: 33f258bda2ca9f93018e70263a35547b
    Z: 24.0
    valence: 6
    core: 18
    charge: 0.0
    file: /home/c.zeng/usr/data/gpaw-setups-0.9.20000/Cr.PBE.gz
    compensation charges: {type: gauss,
                           rc: 0.35,
                           lmax: 2}
    cutoffs: {filter: 2.14,
              core: 3.04}
    valence states:
      #              energy  rcut
      - 4s(1.00)    -4.007   1.164
      - 4p(0.00)    -0.989   1.217
      - 3d(5.00)    -2.913   1.111
      -  s          23.205   1.164
      -  p          26.223   1.217
      -  d          24.299   1.111
  
    # Using partial waves for Cr as LCAO basis

  Ni:
    name: Nickel
    id: 0d9f38a9d6e76a2886f07bb4381f212b
    Z: 28.0
    valence: 16
    core: 12
    charge: 0.0
    file: /home/c.zeng/usr/data/gpaw-setups-0.9.20000/Ni.PBE.gz
    compensation charges: {type: gauss,
                           rc: 0.36,
                           lmax: 2}
    cutoffs: {filter: 2.14,
              core: 1.98}
    valence states:
      #              energy  rcut
      - 4s(2.00)    -5.642   1.164
      - 3p(6.00)   -71.394   1.207
      - 4p(0.00)    -1.226   1.207
      - 3d(8.00)    -8.875   1.138
      -  s          21.570   1.164
      -  d          18.337   1.138
  
    # Using partial waves for Ni as LCAO basis

Reference energy: -3382523.201499  # eV

Spin-polarized calculation.
Magnetic moment: 128.800000

Convergence criteria:
 Maximum [total energy] change in last 3 cyles: 0.0001 eV / electron
 Maximum integral of absolute [dens]ity change: 0.0001 electrons / valence electron
 Maximum integral of absolute [eigenst]ate change: 4e-08 eV^2 / valence electron
 Maximum number of scf [iter]ations: 666
 (Square brackets indicate name in SCF output, whereas a 'c' in
 the SCF output indicates the quantity has converged.)

Symmetries present (total): 1

  ( 1  0  0)
  ( 0  1  0)
  ( 0  0  1)

8 k-points: 2 x 2 x 2 Monkhorst-Pack grid
4 k-points in the irreducible part of the Brillouin zone
       k-points in crystal coordinates                weights
   0:     0.25000000   -0.25000000   -0.25000000          2/8
   1:     0.25000000   -0.25000000    0.25000000          2/8
   2:     0.25000000    0.25000000   -0.25000000          2/8
   3:     0.25000000    0.25000000    0.25000000          2/8

Wave functions: Plane wave expansion
  Cutoff energy: 350.000 eV
  Number of coefficients (min, max): 18865, 18865
  Pulay-stress correction: 0.000000 eV/Ang^3 (de/decut=0.000000)
  Using FFTW library
  ScaLapack parameters: grid=1x1, blocksize=None
  Wavefunction extrapolation:
    Improved wavefunction reuse through dual PAW basis 

Occupation numbers: Fermi-Dirac:
  width: 0.1000  # eV
 

Eigensolver
   Davidson(niter=2) 

Densities:
  Coarse grid: 48*48*48 grid
  Fine grid: 96*96*96 grid
  Total Charge: 0.000000 

Density mixing:
  Method: difference
  Backend: pulay
  Linear mixing parameter: 0.05
  old densities: 5
  Damping of long wavelength oscillations: 50 

Hamiltonian:
  XC and Coulomb potentials evaluated on a 96*96*96 grid
  Using the PBE Exchange-Correlation functional
  External potential:
    NoExternalPotential
 

XC parameters: PBE with 2 nearest neighbor stencil

Memory estimate:
  Process memory now: 250.41 MiB
  Calculator: 1017.03 MiB
    Density: 5.55 MiB
      Arrays: 2.05 MiB
      Localized functions: 2.68 MiB
      Mixer: 0.82 MiB
    Hamiltonian: 1.60 MiB
      Arrays: 1.52 MiB
      XC: 0.00 MiB
      Poisson: 0.00 MiB
      vbar: 0.08 MiB
    Wavefunctions: 1009.87 MiB
      Arrays psit_nG: 747.28 MiB
      Eigensolver: 252.55 MiB
      Projections: 4.92 MiB
      Projectors: 0.73 MiB
      PW-descriptor: 4.39 MiB

Total number of cores used: 30
Parallelization over k-points: 2
Domain decomposition: 5 x 3 x 1

Number of atoms: 108
Number of atomic orbitals: 961
Number of bands in calculation: 649
Number of valence electrons: 945
Bands to converge: occupied

... initialized

Initializing position-dependent things.

Density initialized from atomic densities
Creating initial wave functions:
  649 bands from LCAO basis set

        .--------------------------.  
       /|                     Fe   |  
      / |            Co Fe     CrCo|  
     /  |       Cr       Ni       Cr  
    /   |Fe       Fel     CFer     |  
   /i   | Coo        Fe      Co    |  
  /  CrAl   NCr       Ni           |  
 *      Ni     FeFe   AlFeCrCo   Cr|  
 |      |FeNi   CrNiAl   NiAlNi   Co  
 | CrCo | AlNi   AlAlCo     Ni     |  
 |     Fe  FeCr Cr  Fe CoNi  CrNi  |  
 |      CoNi   AlCr   FeCoFeNi  Co |  
 |Al    |FeCr   AlCrFe   CrFe     Co  
 |      .-CrCo-----NiCr-CoCoCrNi---.  
 |     /   Ni Co    Cr CoNi    Al /   
 |    Fe       ACoi       Al     /    
 |   /  Fe         Al       Cr  /     
 |  /      Fe       Al       Co/      
 | / Co     Fe       Ni Ni    /       
 |/             Cr       Ni  /        
 *--------Fe----------------*         

Positions:
   0 Co    10.764147   10.861293   10.805330    ( 0.0000,  0.0000,  2.0000)
   1 Co    10.786221    1.792513    1.813624    ( 0.0000,  0.0000,  0.0000)
   2 Co     1.744156    0.036560    1.851269    ( 0.0000,  0.0000,  1.5000)
   3 Al     1.736571    1.831142   10.798805    ( 0.0000,  0.0000,  0.0000)
   4 Fe     3.575126    0.057318    0.061759    ( 0.0000,  0.0000,  0.0000)
   5 Fe     3.594289    1.817617    1.845577    ( 0.0000,  0.0000,  2.0000)
   6 Fe     5.429813   10.817005    1.865054    ( 0.0000,  0.0000,  1.5000)
   7 Cr     5.429608    1.929425    0.057134    ( 0.0000,  0.0000,  0.0000)
   8 Co     7.316909   10.723332    0.087382    ( 0.0000,  0.0000,  0.0000)
   9 Al     7.263142    1.825786    1.869404    ( 0.0000,  0.0000,  2.1000)
  10 Ni     9.063554    0.025226    1.863474    ( 0.0000,  0.0000,  1.5000)
  11 Ni     9.049217    1.829703    0.033106    ( 0.0000,  0.0000,  2.1000)
  12 Ni     0.004792    3.558981   10.794801    ( 0.0000,  0.0000,  1.5000)
  13 Al    10.759710    5.390697    1.778165    ( 0.0000,  0.0000,  0.0000)
  14 Fe     1.733585    3.561849    1.761112    ( 0.0000,  0.0000,  2.0000)
  15 Fe     1.776899    5.391834   10.795505    ( 0.0000,  0.0000,  0.0000)
  16 Fe     3.565452    3.619360   10.832619    ( 0.0000,  0.0000,  2.1000)
  17 Co     3.633221    5.394614    1.719551    ( 0.0000,  0.0000,  0.0000)
  18 Ni     5.471624    3.659114    1.836033    ( 0.0000,  0.0000,  2.1000)
  19 Fe     5.440212    5.373060   -0.002773    ( 0.0000,  0.0000,  2.0000)
  20 Ni     7.258997    3.609080    0.031294    ( 0.0000,  0.0000,  0.0000)
  21 Co     7.268941    5.378362    1.785274    ( 0.0000,  0.0000,  2.0000)
  22 Al     9.030724    3.577636    1.833728    ( 0.0000,  0.0000,  2.1000)
  23 Fe     9.040420    5.372281   10.801110    ( 0.0000,  0.0000,  0.0000)
  24 Co    10.791663    7.196206   10.792486    ( 0.0000,  0.0000,  1.5000)
  25 Co    10.758434    9.040387    1.848239    ( 0.0000,  0.0000,  0.0000)
  26 Cr     1.690487    7.202493    1.786032    ( 0.0000,  0.0000,  0.0000)
  27 Ni     1.652691    8.981047    0.027217    ( 0.0000,  0.0000,  0.0000)
  28 Al     3.631241    7.164437    0.034633    ( 0.0000,  0.0000,  0.0000)
  29 Al     3.625452    9.063759    1.801678    ( 0.0000,  0.0000,  0.0000)
  30 Ni     5.490852    7.187095    1.746342    ( 0.0000,  0.0000,  2.0000)
  31 Cr     5.426935    8.989152    0.009861    ( 0.0000,  0.0000,  2.0000)
  32 Fe     7.229122    7.237075   -0.008698    ( 0.0000,  0.0000,  1.5000)
  33 Cr     7.249194    8.995850    1.810713    ( 0.0000,  0.0000,  0.0000)
  34 Cr     9.052073    7.204300    1.764218    ( 0.0000,  0.0000,  2.1000)
  35 Fe     9.092553    8.989639   10.808760    ( 0.0000,  0.0000,  1.5000)
  36 Cr    -0.000975   10.826235    3.639789    ( 0.0000,  0.0000,  1.5000)
  37 Al    10.822772    1.771770    5.422044    ( 0.0000,  0.0000,  2.1000)
  38 Ni     1.754263   10.802084    5.428872    ( 0.0000,  0.0000,  2.1000)
  39 Fe     1.741873    1.774270    3.610801    ( 0.0000,  0.0000,  0.0000)
  40 Al     3.591183   10.794152    3.612143    ( 0.0000,  0.0000,  2.0000)
  41 Cr     3.593088    1.736744    5.455177    ( 0.0000,  0.0000,  0.0000)
  42 Al     5.437150   10.794563    5.400804    ( 0.0000,  0.0000,  2.0000)
  43 Co     5.451931    1.783251    3.601387    ( 0.0000,  0.0000,  1.5000)
  44 Al     7.226222    0.007781    3.626209    ( 0.0000,  0.0000,  0.0000)
  45 Fe     7.236069    1.766512    5.381392    ( 0.0000,  0.0000,  2.1000)
  46 Co     9.034587   10.848850    5.403844    ( 0.0000,  0.0000,  2.1000)
  47 Ni     9.031558    1.804946    3.616730    ( 0.0000,  0.0000,  1.5000)
  48 Ni    10.773885    3.543973    3.617867    ( 0.0000,  0.0000,  1.5000)
  49 Ni    10.772186    5.358409    5.454917    ( 0.0000,  0.0000,  0.0000)
  50 Co     1.757531    3.575678    5.428937    ( 0.0000,  0.0000,  2.1000)
  51 Fe     1.621766    5.386986    3.572550    ( 0.0000,  0.0000,  0.0000)
  52 Co     3.634303    3.633188    3.540792    ( 0.0000,  0.0000,  0.0000)
  53 Cr     3.550606    5.397969    5.404753    ( 0.0000,  0.0000,  2.0000)
  54 Cr     5.402221    3.610887    5.370193    ( 0.0000,  0.0000,  2.0000)
  55 Cr     5.460241    5.433590    3.575613    ( 0.0000,  0.0000,  2.0000)
  56 Cr     7.250157    3.615183    3.623169    ( 0.0000,  0.0000,  1.5000)
  57 Co     7.248707    5.410715    5.362099    ( 0.0000,  0.0000,  1.5000)
  58 Fe     9.058230    3.565236    5.380082    ( 0.0000,  0.0000,  2.1000)
  59 Fe     9.074071    5.365323    3.589008    ( 0.0000,  0.0000,  2.1000)
  60 Co    10.732086    7.267719    3.615162    ( 0.0000,  0.0000,  2.0000)
  61 Co    10.775779    9.094782    5.426621    ( 0.0000,  0.0000,  2.1000)
  62 Al     1.686775    7.280195    5.496879    ( 0.0000,  0.0000,  0.0000)
  63 Fe     1.734277    9.054854    3.595598    ( 0.0000,  0.0000,  1.5000)
  64 Al     3.592936    7.268141    3.470210    ( 0.0000,  0.0000,  0.0000)
  65 Cr     3.586606    9.093570    5.438989    ( 0.0000,  0.0000,  0.0000)
  66 Al     5.383004    7.229273    5.440602    ( 0.0000,  0.0000,  0.0000)
  67 Fe     5.438189    9.045072    3.590069    ( 0.0000,  0.0000,  1.5000)
  68 Co     7.326074    7.204776    3.545683    ( 0.0000,  0.0000,  0.0000)
  69 Ni     7.279632    9.072199    5.413107    ( 0.0000,  0.0000,  2.0000)
  70 Ni     9.092152    7.237465    5.436987    ( 0.0000,  0.0000,  0.0000)
  71 Cr     9.065675    9.066703    3.636153    ( 0.0000,  0.0000,  0.0000)
  72 Ni    10.809723   10.839544    7.207860    ( 0.0000,  0.0000,  2.0000)
  73 Ni    10.806033    1.798562    8.996921    ( 0.0000,  0.0000,  2.1000)
  74 Co     1.743366    0.025229    8.997224    ( 0.0000,  0.0000,  2.1000)
  75 Fe     1.767453    1.793054    7.239326    ( 0.0000,  0.0000,  2.1000)
  76 Ni     3.586833    0.005591    7.224978    ( 0.0000,  0.0000,  2.0000)
  77 Ni     3.553431    1.854828    8.998555    ( 0.0000,  0.0000,  2.0000)
  78 Co     5.409460   10.815988    8.971428    ( 0.0000,  0.0000,  0.0000)
  79 Cr     5.421081    1.784279    7.188372    ( 0.0000,  0.0000,  2.0000)
  80 Co     7.245937   10.799746    7.160228    ( 0.0000,  0.0000,  2.1000)
  81 Al     7.320999    1.765083    8.948813    ( 0.0000,  0.0000,  0.0000)
  82 Cr     9.091124   10.807104    8.993610    ( 0.0000,  0.0000,  1.5000)
  83 Ni     9.075738    1.781649    7.163106    ( 0.0000,  0.0000,  1.5000)
  84 Cr    10.826451    3.561578    7.207611    ( 0.0000,  0.0000,  1.5000)
  85 Cr     0.036832    5.383155    8.996207    ( 0.0000,  0.0000,  2.0000)
  86 Ni     1.771305    3.603573    9.016896    ( 0.0000,  0.0000,  2.1000)
  87 Fe     1.802046    5.346615    7.250741    ( 0.0000,  0.0000,  0.0000)
  88 Ni     3.593250    3.620096    7.230713    ( 0.0000,  0.0000,  1.5000)
  89 Cr     3.560215    5.391985    9.052268    ( 0.0000,  0.0000,  2.0000)
  90 Fe     5.376880    3.650263    8.987215    ( 0.0000,  0.0000,  1.5000)
  91 Ni     5.354319    5.395567    7.215694    ( 0.0000,  0.0000,  2.1000)
  92 Co     7.220974    3.645372    7.098821    ( 0.0000,  0.0000,  0.0000)
  93 Ni     7.211073    5.388295    9.040181    ( 0.0000,  0.0000,  0.0000)
  94 Cr     9.095052    3.598119    8.980636    ( 0.0000,  0.0000,  2.0000)
  95 Al     9.078205    5.402416    7.227759    ( 0.0000,  0.0000,  0.0000)
  96 Cr    10.763411    7.244682    7.260285    ( 0.0000,  0.0000,  1.5000)
  97 Cr    10.795093    9.034566    8.977574    ( 0.0000,  0.0000,  2.0000)
  98 Co     1.740045    7.178947    8.984662    ( 0.0000,  0.0000,  2.1000)
  99 Co     1.734429    9.080207    7.236696    ( 0.0000,  0.0000,  1.5000)
 100 Fe     3.580482    7.154277    7.248285    ( 0.0000,  0.0000,  0.0000)
 101 Cr     3.612835    8.970898    8.958086    ( 0.0000,  0.0000,  0.0000)
 102 Al     5.410943    7.155878    9.067049    ( 0.0000,  0.0000,  0.0000)
 103 Fe     5.466441    9.064062    7.220963    ( 0.0000,  0.0000,  2.1000)
 104 Fe     7.307203    7.271549    7.289738    ( 0.0000,  0.0000,  0.0000)
 105 Ni     7.271073    9.044683    9.027879    ( 0.0000,  0.0000,  1.5000)
 106 Cr     9.081743    7.219805    9.041166    ( 0.0000,  0.0000,  2.1000)
 107 Co     9.063684    9.083009    7.213865    ( 0.0000,  0.0000,  2.0000)

Unit cell:
           periodic     x           y           z      points  spacing
  1. axis:    yes   10.820500    0.000000    0.000000    48     0.2254
  2. axis:    yes    0.000000   10.820500    0.000000    48     0.2254
  3. axis:    yes    0.000000    0.000000   10.820500    48     0.2254

  Lengths:  10.820500  10.820500  10.820500
  Angles:   90.000000  90.000000  90.000000

Effective grid spacing dv^(1/3) = 0.2254

     iter     time        total  log10-change:  magmom
                         energy  eigst   dens
iter:   1 20:29:49  -895.476413                  +128.4417
iter:   2 20:31:13  -865.647026  -0.40  -1.31    +95.8437
iter:   3 20:32:37  -845.007369  -0.94  -1.29    +67.3215
iter:   4 20:34:01  -832.626776  -1.26  -1.37    +58.0337
iter:   5 20:35:25  -825.976123  -1.84  -1.40    +53.0319
iter:   6 20:36:50  -826.514125  -2.01  -1.47    +50.8746
iter:   7 20:38:14  -826.011243  -1.68  -1.50    +49.6333
iter:   8 20:39:38  -825.815901  -1.74  -1.55    +49.4466
iter:   9 20:41:02  -829.267156  -1.77  -1.64    +50.0515
iter:  10 20:42:26  -823.174656  -1.99  -1.64    +49.5425
iter:  11 20:43:50  -824.373735  -2.24  -1.81    +50.2014
iter:  12 20:45:15  -822.786974  -2.40  -1.80    +50.9120
iter:  13 20:46:39  -823.267650  -2.62  -1.88    +52.1306
iter:  14 20:48:03  -823.890559  -2.53  -1.93    +53.2779
iter:  15 20:49:27  -825.440500  -2.43  -1.94    +53.9870
iter:  16 20:50:51  -824.403097  -2.42  -1.91    +55.5153
iter:  17 20:52:15  -824.936593  -2.63  -1.98    +56.1019
iter:  18 20:53:40  -824.505360  -2.64  -2.02    +56.7880
iter:  19 20:55:04  -824.599780  -2.81  -2.11    +57.5365
iter:  20 20:56:28  -824.397835  -3.03  -2.10    +58.5312
iter:  21 20:57:52  -824.872726  -3.08  -2.20    +59.2272
iter:  22 20:59:16  -824.853279  -3.02  -2.18    +59.5441
iter:  23 21:00:40  -824.883396c -3.18  -2.20    +60.2947
iter:  24 21:02:04  -824.898250c -3.25  -2.24    +60.7883
iter:  25 21:03:28  -825.186591  -3.16  -2.29    +61.1781
iter:  26 21:04:52  -825.105331  -3.27  -2.28    +61.3108
iter:  27 21:06:16  -825.322989  -3.21  -2.34    +61.5827
iter:  28 21:07:40  -825.376525  -3.18  -2.30    +61.8568
iter:  29 21:09:05  -825.304649c -3.26  -2.35    +61.8167
iter:  30 21:10:28  -825.254453  -3.57  -2.39    +61.9582
iter:  31 21:11:49  -825.311259c -3.57  -2.46    +62.0566
iter:  32 21:13:10  -825.299528c -3.87  -2.46    +62.1878
iter:  33 21:14:31  -825.376665c -3.72  -2.52    +62.1755
iter:  34 21:15:52  -825.374968c -4.02  -2.49    +62.1911
iter:  35 21:17:13  -825.541850  -3.55  -2.57    +62.2228
iter:  36 21:18:34  -825.519419  -3.70  -2.48    +62.1826
iter:  37 21:19:55  -825.587824c -3.55  -2.56    +62.1069
iter:  38 21:21:16  -825.551977c -3.69  -2.59    +61.9222
iter:  39 21:22:37  -825.683560  -3.54  -2.63    +61.8636
iter:  40 21:23:58  -825.573640  -3.88  -2.55    +61.8726
iter:  41 21:25:20  -825.609768  -3.92  -2.74    +61.7378
iter:  42 21:26:41  -825.595516c -4.32  -2.73    +61.7128
iter:  43 21:28:02  -825.637663c -4.44  -2.81    +61.6404
iter:  44 21:29:23  -825.706110  -4.11  -2.87    +61.5598
iter:  45 21:30:44  -825.706960c -4.30  -2.81    +61.4289
iter:  46 21:32:05  -825.782778c -4.11  -2.99    +61.3183
iter:  47 21:33:26  -825.764221c -4.28  -2.85    +61.2774
iter:  48 21:34:48  -825.811226c -4.35  -3.24    +61.1314
iter:  49 21:36:09  -825.847927c -4.57  -3.28    +61.0646
iter:  50 21:37:30  -825.989901  -3.74  -3.27    +60.8233
iter:  51 21:38:52  -826.220132  -3.04  -3.07    +60.2856
iter:  52 21:40:13  -826.226696  -4.05  -2.82    +60.1770
iter:  53 21:41:35  -826.229110c -4.34  -2.81    +60.0064
iter:  54 21:42:56  -826.227731c -4.73  -2.82    +59.9223
iter:  55 21:44:17  -826.207650c -4.63  -2.82    +59.8487
iter:  56 21:45:38  -826.123866  -3.41  -2.82    +59.8645
iter:  57 21:46:59  -826.101521  -4.02  -2.83    +59.8031
iter:  58 21:48:21  -826.094851c -4.18  -2.91    +59.6920
iter:  59 21:49:42  -826.089536c -4.51  -2.99    +59.6239
iter:  60 21:51:03  -826.099425c -4.43  -3.15    +59.5563
iter:  61 21:52:24  -826.093801c -4.58  -3.11    +59.5570
iter:  62 21:53:46  -826.092252c -4.98  -3.31    +59.5832
iter:  63 21:55:07  -826.092520c -5.09  -3.31    +59.5977
iter:  64 21:56:28  -826.091606c -5.30  -3.38    +59.6045
iter:  65 21:57:50  -826.091529c -5.49  -3.45    +59.6252
iter:  66 21:59:11  -826.092341c -5.61  -3.51    +59.6354
iter:  67 22:00:32  -826.092205c -5.52  -3.52    +59.6557
iter:  68 22:01:54  -826.093426c -5.55  -3.58    +59.6701
iter:  69 22:03:15  -826.092462c -5.66  -3.59    +59.6801
iter:  70 22:04:37  -826.092961c -5.69  -3.70    +59.6977
iter:  71 22:05:58  -826.092794c -6.07  -3.73    +59.7029
iter:  72 22:07:20  -826.093507c -5.90  -3.81    +59.7195
iter:  73 22:08:41  -826.093435c -6.55  -3.84    +59.7171
iter:  74 22:10:02  -826.093814c -6.14  -3.90    +59.7165
iter:  75 22:11:24  -826.093946c -6.32  -3.92    +59.7288
iter:  76 22:12:45  -826.094766c -6.05  -3.97    +59.7452
iter:  77 22:14:07  -826.094707c -6.52  -4.00    +59.7498
iter:  78 22:15:28  -826.095412c -6.15  -4.07c   +59.7652
iter:  79 22:16:49  -826.095444c -6.98  -4.08c   +59.7646
iter:  80 22:18:11  -826.096009c -6.28  -4.10c   +59.7703
iter:  81 22:19:32  -826.095162c -6.27  -4.08c   +59.7575
iter:  82 22:20:53  -826.093825c -5.62  -4.10c   +59.7271
iter:  83 22:22:14  -826.094447c -6.21  -4.11c   +59.7416
iter:  84 22:23:35  -826.094430c -6.57  -4.15c   +59.7326
iter:  85 22:24:56  -826.095209c -6.01  -4.09c   +59.7529
iter:  86 22:26:18  -826.095724c -6.38  -4.20c   +59.7633
iter:  87 22:27:39  -826.096176c -6.30  -4.18c   +59.7775
iter:  88 22:29:00  -826.096036c -7.12  -4.14c   +59.7734
iter:  89 22:30:22  -826.097388c -5.88  -4.10c   +59.8061
iter:  90 22:31:43  -826.097988c -6.26  -3.98    +59.8101
iter:  91 22:33:04  -826.098419c -6.39  -3.97    +59.8205
iter:  92 22:34:26  -826.099397c -5.93  -3.98    +59.8499
iter:  93 22:35:47  -826.098629c -6.11  -3.93    +59.8267
iter:  94 22:37:08  -826.101021c -5.53  -3.91    +59.8746
iter:  95 22:38:30  -826.100126c -6.00  -3.86    +59.8621
iter:  96 22:39:51  -826.101166c -5.89  -3.82    +59.8755
iter:  97 22:41:12  -826.102086c -5.83  -3.82    +59.8838
iter:  98 22:42:33  -826.101994c -5.98  -3.76    +59.9097
iter:  99 22:43:55  -826.102591c -6.16  -3.90    +59.9274
iter: 100 22:45:16  -826.103129c -6.43  -3.90    +59.9377
iter: 101 22:46:37  -826.104675c -5.75  -3.87    +59.9689
iter: 102 22:47:58  -826.105223c -6.07  -3.76    +59.9736
iter: 103 22:49:20  -826.105666c -6.03  -3.75    +59.9981
iter: 104 22:50:41  -826.107475c -5.71  -3.84    +60.0429
iter: 105 22:52:02  -826.108258c -6.08  -3.75    +60.0474
iter: 106 22:53:23  -826.109544c -5.75  -3.70    +60.0732
iter: 107 22:54:45  -826.109424c -6.05  -3.68    +60.0972
iter: 108 22:56:06  -826.110762c -5.98  -3.76    +60.1252
iter: 109 22:57:27  -826.110159c -5.66  -3.71    +60.0946
iter: 110 22:58:48  -826.112009c -5.53  -3.62    +60.1503
iter: 111 23:00:10  -826.112894c -5.98  -3.65    +60.1660
iter: 112 23:01:31  -826.113667c -6.10  -3.67    +60.1902
iter: 113 23:02:53  -826.116379c -5.57  -3.66    +60.2231
iter: 114 23:04:14  -826.117173c -5.51  -3.51    +60.2267
iter: 115 23:05:35  -826.116444c -5.54  -3.47    +60.2646
iter: 116 23:06:57  -826.116671c -6.03  -3.56    +60.2835
iter: 117 23:08:19  -826.118675c -5.64  -3.59    +60.3246
iter: 118 23:09:40  -826.120451c -5.30  -3.55    +60.3293
iter: 119 23:11:02  -826.118401c -5.65  -3.47    +60.3643
iter: 120 23:12:23  -826.119734c -5.92  -3.70    +60.3968
iter: 121 23:13:45  -826.120570c -6.03  -3.63    +60.4322
iter: 122 23:15:07  -826.122192c -5.87  -3.63    +60.4445
iter: 123 23:16:28  -826.125089c -5.43  -3.50    +60.4547
iter: 124 23:17:50  -826.123247c -5.89  -3.45    +60.4967
iter: 125 23:19:11  -826.126361c -5.13  -3.59    +60.5644
iter: 126 23:20:33  -826.124617c -5.34  -3.44    +60.5681
iter: 127 23:21:55  -826.123444c -5.55  -3.56    +60.5845
iter: 128 23:23:18  -826.125256c -5.59  -3.70    +60.5831
iter: 129 23:24:40  -826.124689c -5.73  -3.61    +60.5870
iter: 130 23:26:03  -826.125158c -5.52  -3.64    +60.6100
iter: 131 23:27:25  -826.125437c -5.56  -3.69    +60.6252
iter: 132 23:28:48  -826.126154c -5.47  -3.70    +60.6291
iter: 133 23:30:11  -826.124852c -5.90  -3.60    +60.6283
iter: 134 23:31:34  -826.124780c -6.11  -3.96    +60.6440
iter: 135 23:32:56  -826.125117c -6.32  -3.98    +60.6541
iter: 136 23:34:20  -826.125241c -6.70  -4.00    +60.6633
iter: 137 23:35:43  -826.125769c -6.35  -4.12c   +60.6843
iter: 138 23:37:06  -826.125663c -7.03  -4.07c   +60.6816
iter: 139 23:38:29  -826.125761c -6.80  -4.13c   +60.6888
iter: 140 23:39:52  -826.126253c -6.58  -4.16c   +60.7002
iter: 141 23:41:15  -826.126272c -6.25  -4.13c   +60.7117
iter: 142 23:42:38  -826.126432c -6.35  -4.06c   +60.7217
iter: 143 23:44:01  -826.126458c -6.66  -4.12c   +60.7308
iter: 144 23:45:25  -826.126724c -6.65  -4.41c   +60.7402
iter: 145 23:46:48  -826.126742c -7.08  -4.31c   +60.7442
iter: 146 23:48:11  -826.126865c -6.99  -4.49c   +60.7582
iter: 147 23:49:35  -826.127118c -6.87  -4.59c   +60.7737
iter: 148 23:50:58  -826.128801c -5.36  -4.58c   +60.8880
iter: 149 23:52:22  -826.129695c -5.59  -4.18c   +60.9629
iter: 150 23:53:45  -826.130021c -6.10  -4.05c   +60.9948
iter: 151 23:55:09  -826.130106c -6.51  -4.04c   +61.0107
iter: 152 23:56:34  -826.130287c -6.46  -4.06c   +61.0376
iter: 153 23:57:59  -826.131043c -6.44  -4.04c   +61.0522
iter: 154 23:59:24  -826.130700c -6.67  -3.87    +61.0373
iter: 155 00:00:49  -826.131160c -5.97  -3.92    +61.0653
iter: 156 00:02:14  -826.130404c -6.08  -3.77    +61.0535
iter: 157 00:03:40  -826.130581c -6.06  -3.90    +61.0466
iter: 158 00:05:05  -826.130386c -5.89  -3.97    +61.0392
iter: 159 00:06:30  -826.129862c -6.45  -3.85    +61.0279
iter: 160 00:07:56  -826.129823c -7.06  -4.33c   +61.0127
iter: 161 00:09:21  -826.129729c -6.84  -4.40c   +60.9989
iter: 162 00:10:47  -826.129686c -7.22  -4.36c   +61.0003
iter: 163 00:12:12  -826.129680c -7.03  -4.43c   +60.9946
iter: 164 00:13:38  -826.129662c -7.37  -4.41c   +60.9897
iter: 165 00:15:03  -826.129568c -7.72c -4.58c   +60.9875

Converged after 165 iterations.

Dipole moment: (29.940805, -3.282709, -10.369496) |e|*Ang

Total magnetic moment: (0.000000, 0.000000, 60.987524)
Local magnetic moments:
   0 Co ( 0.000000,  0.000000,  1.241401)
   1 Co ( 0.000000,  0.000000,  1.357796)
   2 Co ( 0.000000,  0.000000,  1.313281)
   3 Al ( 0.000000,  0.000000, -0.045144)
   4 Fe ( 0.000000,  0.000000,  2.450584)
   5 Fe ( 0.000000,  0.000000,  2.373029)
   6 Fe ( 0.000000,  0.000000,  1.946501)
   7 Cr ( 0.000000,  0.000000, -2.409233)
   8 Co ( 0.000000,  0.000000,  0.971857)
   9 Al ( 0.000000,  0.000000, -0.005496)
  10 Ni ( 0.000000,  0.000000,  0.144734)
  11 Ni ( 0.000000,  0.000000,  0.117425)
  12 Ni ( 0.000000,  0.000000,  0.233856)
  13 Al ( 0.000000,  0.000000, -0.034220)
  14 Fe ( 0.000000,  0.000000,  2.240606)
  15 Fe ( 0.000000,  0.000000,  2.057898)
  16 Fe ( 0.000000,  0.000000,  2.275364)
  17 Co ( 0.000000,  0.000000,  0.997220)
  18 Ni ( 0.000000,  0.000000,  0.246363)
  19 Fe ( 0.000000,  0.000000,  2.185638)
  20 Ni ( 0.000000,  0.000000,  0.128289)
  21 Co ( 0.000000,  0.000000,  1.188927)
  22 Al ( 0.000000,  0.000000, -0.023815)
  23 Fe ( 0.000000,  0.000000,  2.106853)
  24 Co ( 0.000000,  0.000000,  0.240930)
  25 Co ( 0.000000,  0.000000,  0.993870)
  26 Cr ( 0.000000,  0.000000, -1.943157)
  27 Ni ( 0.000000,  0.000000,  0.060439)
  28 Al ( 0.000000,  0.000000, -0.007209)
  29 Al ( 0.000000,  0.000000, -0.024360)
  30 Ni ( 0.000000,  0.000000,  0.315471)
  31 Cr ( 0.000000,  0.000000,  1.550300)
  32 Fe ( 0.000000,  0.000000,  1.941818)
  33 Cr ( 0.000000,  0.000000, -1.460665)
  34 Cr ( 0.000000,  0.000000, -1.703431)
  35 Fe ( 0.000000,  0.000000,  2.011632)
  36 Cr ( 0.000000,  0.000000, -1.629582)
  37 Al ( 0.000000,  0.000000, -0.027918)
  38 Ni ( 0.000000,  0.000000,  0.155868)
  39 Fe ( 0.000000,  0.000000,  2.248823)
  40 Al ( 0.000000,  0.000000, -0.036941)
  41 Cr ( 0.000000,  0.000000, -2.052796)
  42 Al ( 0.000000,  0.000000, -0.026292)
  43 Co ( 0.000000,  0.000000,  0.751836)
  44 Al ( 0.000000,  0.000000, -0.028271)
  45 Fe ( 0.000000,  0.000000,  1.904723)
  46 Co ( 0.000000,  0.000000,  0.889382)
  47 Ni ( 0.000000,  0.000000,  0.129100)
  48 Ni ( 0.000000,  0.000000,  0.398957)
  49 Ni ( 0.000000,  0.000000,  0.339233)
  50 Co ( 0.000000,  0.000000,  1.222134)
  51 Fe ( 0.000000,  0.000000,  2.341380)
  52 Co ( 0.000000,  0.000000,  1.250108)
  53 Cr ( 0.000000,  0.000000, -1.952238)
  54 Cr ( 0.000000,  0.000000,  1.237884)
  55 Cr ( 0.000000,  0.000000,  1.441215)
  56 Cr ( 0.000000,  0.000000, -1.746560)
  57 Co ( 0.000000,  0.000000,  1.148304)
  58 Fe ( 0.000000,  0.000000,  2.242162)
  59 Fe ( 0.000000,  0.000000,  2.201697)
  60 Co ( 0.000000,  0.000000,  0.970177)
  61 Co ( 0.000000,  0.000000,  1.096737)
  62 Al ( 0.000000,  0.000000, -0.038936)
  63 Fe ( 0.000000,  0.000000,  1.972477)
  64 Al ( 0.000000,  0.000000, -0.020943)
  65 Cr ( 0.000000,  0.000000,  1.430638)
  66 Al ( 0.000000,  0.000000, -0.036534)
  67 Fe ( 0.000000,  0.000000,  2.055401)
  68 Co ( 0.000000,  0.000000,  1.036528)
  69 Ni ( 0.000000,  0.000000,  0.299801)
  70 Ni ( 0.000000,  0.000000,  0.320788)
  71 Cr ( 0.000000,  0.000000,  1.342672)
  72 Ni ( 0.000000,  0.000000,  0.273465)
  73 Ni ( 0.000000,  0.000000,  0.196654)
  74 Co ( 0.000000,  0.000000,  1.096038)
  75 Fe ( 0.000000,  0.000000,  2.400173)
  76 Ni ( 0.000000,  0.000000,  0.134614)
  77 Ni ( 0.000000,  0.000000,  0.369309)
  78 Co ( 0.000000,  0.000000,  1.186440)
  79 Cr ( 0.000000,  0.000000,  1.230176)
  80 Co ( 0.000000,  0.000000,  1.106419)
  81 Al ( 0.000000,  0.000000, -0.021234)
  82 Cr ( 0.000000,  0.000000, -1.493757)
  83 Ni ( 0.000000,  0.000000,  0.129166)
  84 Cr ( 0.000000,  0.000000, -1.581052)
  85 Cr ( 0.000000,  0.000000, -1.304702)
  86 Ni ( 0.000000,  0.000000,  0.159685)
  87 Fe ( 0.000000,  0.000000,  2.026802)
  88 Ni ( 0.000000,  0.000000,  0.210261)
  89 Cr ( 0.000000,  0.000000, -1.983436)
  90 Fe ( 0.000000,  0.000000,  2.265052)
  91 Ni ( 0.000000,  0.000000,  0.210327)
  92 Co ( 0.000000,  0.000000,  1.111557)
  93 Ni ( 0.000000,  0.000000,  0.320564)
  94 Cr ( 0.000000,  0.000000,  1.550463)
  95 Al ( 0.000000,  0.000000, -0.009434)
  96 Cr ( 0.000000,  0.000000,  1.033287)
  97 Cr ( 0.000000,  0.000000,  0.463543)
  98 Co ( 0.000000,  0.000000, -0.101589)
  99 Co ( 0.000000,  0.000000,  1.004122)
 100 Fe ( 0.000000,  0.000000,  1.963915)
 101 Cr ( 0.000000,  0.000000, -2.231596)
 102 Al ( 0.000000,  0.000000, -0.031113)
 103 Fe ( 0.000000,  0.000000,  2.204631)
 104 Fe ( 0.000000,  0.000000,  2.467592)
 105 Ni ( 0.000000,  0.000000,  0.294233)
 106 Cr ( 0.000000,  0.000000, -1.561097)
 107 Co ( 0.000000,  0.000000,  1.081227)

Energy contributions relative to reference atoms: (reference = -3382523.201499)

Kinetic:       +240.550045
Potential:     -244.921125
External:        +0.000000
XC:            -852.941075
Entropy (-ST):   -4.108479
Local:          +33.236827
--------------------------
Free energy:   -828.183807
Extrapolated:  -826.129568

Spin contamination: 30.353694 electrons
Showing only first 2 kpts
                      Up                     Down
 Kpt  Band  Eigenvalues  Occupancy  Eigenvalues  Occupancy
  0   470      9.12772    0.99623     10.08080    0.01882
  0   471      9.14398    0.99557     10.09043    0.01712
  0   472      9.16471    0.99455     10.10358    0.01505
  0   473      9.17587    0.99391     10.11979    0.01282

  1   470      9.12485    0.99634     10.06392    0.02221
  1   471      9.14026    0.99573     10.08951    0.01728
  1   472      9.17307    0.99408     10.10211    0.01527
  1   473      9.18681    0.99322     10.11661    0.01323


Fermi level: 9.68544

No gap

Forces in eV/Ang:
  0 Co    0.21476   -0.45386    0.28816
  1 Co    0.47839   -0.34157    0.02564
  2 Co    0.01300   -0.19254   -0.50609
  3 Al   -0.03755   -0.48827   -0.24899
  4 Fe    0.17345   -0.06410   -0.76259
  5 Fe    0.18278    0.34478    0.00566
  6 Fe    0.33258    0.26015   -0.86893
  7 Cr   -1.01678   -0.95224   -0.80251
  8 Co   -0.65094    0.40569   -0.48664
  9 Al   -0.35359   -0.65356   -1.24730
 10 Ni   -0.23967   -0.22562   -0.36819
 11 Ni   -0.18547   -0.36728   -0.39308
 12 Ni   -0.30068    0.50589    0.10655
 13 Al    0.80863   -0.11771   -0.30205
 14 Fe    0.51410    0.29244    0.83269
 15 Fe   -0.21103    0.08268   -0.00451
 16 Fe    0.48991    0.04843    0.22945
 17 Co   -0.33318   -0.43865    0.63140
 18 Ni   -0.38892   -0.26040    0.02846
 19 Fe    0.35822   -0.43659    0.51981
 20 Ni   -0.14085   -0.02943   -0.33355
 21 Co    0.03404    0.52745    0.05406
 22 Al    0.47461   -0.26152   -0.67516
 23 Fe   -0.46395    0.86021   -0.39146
 24 Co    0.39347   -0.06538   -0.10048
 25 Co    0.42215   -0.11529   -0.26969
 26 Cr   -0.66359    0.18063    0.08755
 27 Ni    0.69360    0.46408   -0.19966
 28 Al   -0.96744    0.13164    0.30038
 29 Al   -0.60021    0.38472   -0.95547
 30 Ni   -0.12981    0.02148    0.53696
 31 Cr    0.84493    1.28162   -0.52833
 32 Fe    0.56299   -0.40773    0.24185
 33 Cr   -0.13638    0.16496   -0.50314
 34 Cr   -0.40998    0.27391   -0.08705
 35 Fe   -0.24403    0.24998    0.38294
 36 Cr    0.01346   -0.65403   -0.87690
 37 Al   -0.17408   -0.08450   -0.07247
 38 Ni    0.23874   -0.06403    0.11766
 39 Fe    0.42303    0.50871   -0.23071
 40 Al   -0.48363    0.80695   -0.28200
 41 Cr   -0.35835    1.61163    0.12604
 42 Al    0.25752    0.03218    0.73825
 43 Co   -0.25015    0.18621   -0.01624
 44 Al    0.88939   -0.13849    0.06789
 45 Fe    0.27766    0.58389    0.60148
 46 Co   -0.20689   -0.30837    0.05473
 47 Ni   -0.00190   -0.23454    0.01683
 48 Ni    0.53451    0.39544   -0.04991
 49 Ni    0.34856    0.27030   -0.40715
 50 Co    0.62278    0.26010   -0.34672
 51 Fe    1.21715   -0.17358    0.30263
 52 Co   -0.25437   -0.03807    0.17628
 53 Cr   -0.13257   -0.87623   -0.12349
 54 Cr   -0.01418    0.20862    0.24003
 55 Cr    0.00800   -0.28238   -0.26962
 56 Cr   -0.97580    0.63464    1.23957
 57 Co    0.13133    0.24095    0.30578
 58 Fe   -0.80993    0.23477    0.32341
 59 Fe   -0.66418    0.89582    0.69803
 60 Co    0.38510   -0.06156   -0.13584
 61 Co    0.01962   -0.13215    0.10875
 62 Al    0.04689   -0.22110   -0.63060
 63 Fe   -0.31127   -0.23779   -0.11168
 64 Al    0.09192   -1.12795    0.73031
 65 Cr   -0.63762   -0.55235    0.66972
 66 Al    1.19527    0.09608    0.16664
 67 Fe    0.28769   -0.78871   -0.11998
 68 Co   -0.38191   -0.09351    0.24674
 69 Ni    0.02736   -0.57718   -0.06754
 70 Ni   -0.62375   -0.04389   -0.16523
 71 Cr    0.13064   -0.79080   -0.00726
 72 Ni    0.17282   -0.21557    0.05186
 73 Ni   -0.35826   -0.12303    0.03545
 74 Co    0.38359   -0.63321    0.04788
 75 Fe    0.53928    0.10814    0.20446
 76 Ni   -0.00183   -0.16448    0.36773
 77 Ni    0.50958   -0.45381    0.14937
 78 Co    0.13841    0.20678    0.48268
 79 Cr   -0.53692    0.34742    0.23956
 80 Co   -0.08173   -0.06103    0.42835
 81 Al   -0.65883    0.21250    0.35971
 82 Cr    0.21532   -0.82310    0.13036
 83 Ni   -0.62687    0.18600    0.16222
 84 Cr    0.36527    0.04407    0.12608
 85 Cr    0.55384    0.07425    1.06884
 86 Ni    0.20264    0.09594   -0.22976
 87 Fe   -0.28745    0.17387   -0.03814
 88 Ni   -0.13796   -0.11832   -0.30171
 89 Cr   -0.72653   -1.00615   -0.71573
 90 Fe    0.51551   -0.23468    0.11236
 91 Ni    0.70642    0.04796   -0.25468
 92 Co   -0.04032   -0.24514    0.46051
 93 Ni    0.32178   -0.17256   -0.27656
 94 Cr    0.12254    0.13975    0.29799
 95 Al   -1.45386   -0.04283   -0.89618
 96 Cr    0.04166    0.52736    0.73625
 97 Cr    0.60907    0.03382    0.39466
 98 Co    0.10324    0.35929   -0.02844
 99 Co    0.19187   -0.23790    0.32248
100 Fe   -0.43297    0.47773    0.21368
101 Cr   -0.58856    1.01258    0.11830
102 Al    1.23539    0.07080   -1.25904
103 Fe   -0.13952   -0.26936    0.61949
104 Fe   -0.00032   -0.11133   -0.55263
105 Ni   -0.09638    0.29290    0.01536
106 Cr   -0.76478    0.52721    0.28040
107 Co   -0.38234   -0.11189   -0.13227

Timing:                              incl.     excl.
-----------------------------------------------------------
Forces:                             16.723    16.723   0.1% |
Hamiltonian:                         0.564     0.004   0.0% |
 Atomic:                             0.353     0.096   0.0% |
  XC Correction:                     0.257     0.257   0.0% |
 Calculate atomic Hamiltonians:      0.119     0.119   0.0% |
 Communicate:                        0.000     0.000   0.0% |
 Initialize Hamiltonian:             0.000     0.000   0.0% |
 Poisson:                            0.000     0.000   0.0% |
 XC 3D grid:                         0.088     0.088   0.0% |
LCAO initialization:               117.537     1.022   0.0% |
 LCAO eigensolver:                  12.146     0.011   0.0% |
  Calculate projections:             0.458     0.458   0.0% |
  DenseAtomicCorrection:             0.627     0.627   0.0% |
  Distribute overlap matrix:         0.198     0.198   0.0% |
  Orbital Layouts:                   6.373     6.373   0.0% |
  Potential matrix:                  3.921     3.921   0.0% |
  Sum over cells:                    0.558     0.558   0.0% |
 LCAO to grid:                     102.497   102.497   0.7% |
 Set positions (LCAO WFS):           1.873     0.867   0.0% |
  Basic WFS set positions:           0.003     0.003   0.0% |
  Basis functions set positions:     0.001     0.001   0.0% |
  P tci:                             0.605     0.605   0.0% |
  ST tci:                            0.161     0.161   0.0% |
  mktci:                             0.238     0.238   0.0% |
PWDescriptor:                        0.040     0.040   0.0% |
SCF-cycle:                       13606.354     1.216   0.0% |
 Davidson:                       13359.965  3305.044  24.0% |---------|
  Apply H:                         116.796   113.880   0.8% |
   HMM T:                            2.916     2.916   0.0% |
  Subspace diag:                  1277.724     0.111   0.0% |
   calc_h_matrix:                  473.604   324.006   2.4% ||
    Apply H:                       149.598   146.464   1.1% |
     HMM T:                          3.134     3.134   0.0% |
   diagonalize:                    227.439   227.439   1.7% ||
   rotate_psi:                     576.569   576.569   4.2% |-|
  calc. matrices:                 2643.029  2425.010  17.6% |------|
   Apply H:                        218.019   212.335   1.5% ||
    HMM T:                           5.684     5.684   0.0% |
  diagonalize:                    4743.124  4743.124  34.5% |-------------|
  rotate_psi:                     1274.249  1274.249   9.3% |---|
 Density:                          130.491     0.004   0.0% |
  Atomic density matrices:           3.533     3.533   0.0% |
  Mix:                              39.329    39.329   0.3% |
  Multipole moments:                 0.064     0.064   0.0% |
  Pseudo density:                   87.560    87.555   0.6% |
   Symmetrize density:               0.005     0.005   0.0% |
 Hamiltonian:                      105.938     0.630   0.0% |
  Atomic:                           57.715    15.036   0.1% |
   XC Correction:                   42.679    42.679   0.3% |
  Calculate atomic Hamiltonians:    32.291    32.291   0.2% |
  Communicate:                       0.860     0.860   0.0% |
  Poisson:                           0.070     0.070   0.0% |
  XC 3D grid:                       14.372    14.372   0.1% |
 Orthonormalize:                     8.744     0.001   0.0% |
  calc_s_matrix:                     1.215     1.215   0.0% |
  inverse-cholesky:                  0.585     0.585   0.0% |
  projections:                       5.037     5.037   0.0% |
  rotate_psi_s:                      1.906     1.906   0.0% |
Set symmetry:                        0.001     0.001   0.0% |
Other:                               2.649     2.649   0.0% |
-----------------------------------------------------------
Total:                                     13743.868 100.0%

Date: Sat Apr 15 00:15:22 2023
