
  ___ ___ ___ _ _ _  
 |   |   |_  | | | | 
 | | | | | . | | | | 
 |__ |  _|___|_____|  22.8.0
 |___|_|             

User:   c.zeng@d0128
Date:   Mon Apr 17 19:06:51 2023
Arch:   x86_64
Pid:    105161
CWD:    /home/c.zeng/projects/hea-corrosion/hea-mlp/data-curation/surface-md/dft-jobs/74
Python: 3.8.1
gpaw:   /home/c.zeng/usr/installs/gpaw/source/gpaw-22.8.0/gpaw
_gpaw:  /home/c.zeng/usr/installs/gpaw/source/gpaw-22.8.0/
        _gpaw.cpython-38-x86_64-linux-gnu.so
ase:    /home/c.zeng/.local/lib/python3.8/site-packages/ase-3.22.1-py3.8.egg/ase (version 3.22.1)
numpy:  /home/c.zeng/.local/lib/python3.8/site-packages/numpy (version 1.24.2)
scipy:  /home/c.zeng/.local/lib/python3.8/site-packages/scipy (version 1.10.1)
libxc:  4.2.3
units:  Angstrom and eV
cores: 30
OpenMP: False
OMP_NUM_THREADS: 1

Input parameters:
  convergence: {energy: 0.0001}
  kpts: [2 2 1]
  maxiter: 666
  mode: {ecut: 350.0,
         name: pw}
  occupations: {fixmagmom: False,
                name: fermi-dirac,
                width: 0.1}
  poissonsolver: {dipolelayer: xy}
  spinpol: True
  symmetry: {point_group: False}
  xc: PBE

System changes: positions, numbers, cell, pbc, initial_charges, initial_magmoms 

Initialize ...

species:
  Cr:
    name: Chromium
    id: 33f258bda2ca9f93018e70263a35547b
    Z: 24.0
    valence: 6
    core: 18
    charge: 0.0
    file: /home/c.zeng/usr/data/gpaw-setups-0.9.20000/Cr.PBE.gz
    compensation charges: {type: gauss,
                           rc: 0.35,
                           lmax: 2}
    cutoffs: {filter: 2.14,
              core: 3.04}
    valence states:
      #              energy  rcut
      - 4s(1.00)    -4.007   1.164
      - 4p(0.00)    -0.989   1.217
      - 3d(5.00)    -2.913   1.111
      -  s          23.205   1.164
      -  p          26.223   1.217
      -  d          24.299   1.111
  
    # Using partial waves for Cr as LCAO basis

  Al:
    name: Aluminium
    id: 0292cae29f5d6237e50f6abdd43a7bdd
    Z: 13.0
    valence: 3
    core: 10
    charge: 0.0
    file: /home/c.zeng/usr/data/gpaw-setups-0.9.20000/Al.PBE.gz
    compensation charges: {type: gauss,
                           rc: 0.34,
                           lmax: 2}
    cutoffs: {filter: 1.91,
              core: 2.36}
    valence states:
      #              energy  rcut
      - 3s(2.00)    -7.753   1.085
      - 3p(1.00)    -2.712   1.085
      -  s          19.459   1.085
      -  p          24.499   1.085
      -  d           0.000   1.085
  
    # Using partial waves for Al as LCAO basis

  Fe:
    name: Iron
    id: 37abbd8d6c3c35915a9b583b742da910
    Z: 26.0
    valence: 8
    core: 18
    charge: 0.0
    file: /home/c.zeng/usr/data/gpaw-setups-0.9.20000/Fe.PBE.gz
    compensation charges: {type: gauss,
                           rc: 0.33,
                           lmax: 2}
    cutoffs: {filter: 2.06,
              core: 2.67}
    valence states:
      #              energy  rcut
      - 4s(2.00)    -5.291   1.164
      - 4p(0.00)    -1.326   1.058
      - 3d(6.00)    -7.505   1.058
      -  s          21.920   1.164
      -  p          25.885   1.058
      -  d          19.706   1.058
  
    # Using partial waves for Fe as LCAO basis

  Co:
    name: Cobalt
    id: 339d20d5b0b93d2de9531a1bee871d91
    Z: 27.0
    valence: 9
    core: 18
    charge: 0.0
    file: /home/c.zeng/usr/data/gpaw-setups-0.9.20000/Co.PBE.gz
    compensation charges: {type: gauss,
                           rc: 0.32,
                           lmax: 2}
    cutoffs: {filter: 1.87,
              core: 2.55}
    valence states:
      #              energy  rcut
      - 4s(2.00)    -5.469   1.005
      - 4p(0.00)    -1.277   1.058
      - 3d(7.00)    -8.205   1.005
      -  s          21.742   1.005
      -  p          25.934   1.058
      -  d          19.007   1.005
  
    # Using partial waves for Co as LCAO basis

  Ni:
    name: Nickel
    id: 0d9f38a9d6e76a2886f07bb4381f212b
    Z: 28.0
    valence: 16
    core: 12
    charge: 0.0
    file: /home/c.zeng/usr/data/gpaw-setups-0.9.20000/Ni.PBE.gz
    compensation charges: {type: gauss,
                           rc: 0.36,
                           lmax: 2}
    cutoffs: {filter: 2.14,
              core: 1.98}
    valence states:
      #              energy  rcut
      - 4s(2.00)    -5.642   1.164
      - 3p(6.00)   -71.394   1.207
      - 4p(0.00)    -1.226   1.207
      - 3d(8.00)    -8.875   1.138
      -  s          21.570   1.164
      -  d          18.337   1.138
  
    # Using partial waves for Ni as LCAO basis

Reference energy: -3927717.499734  # eV

Spin-polarized calculation.
Magnetic moment: 149.100000

Convergence criteria:
 Maximum [total energy] change in last 3 cyles: 0.0001 eV / electron
 Maximum integral of absolute [dens]ity change: 0.0001 electrons / valence electron
 Maximum integral of absolute [eigenst]ate change: 4e-08 eV^2 / valence electron
 Maximum number of scf [iter]ations: 666
 (Square brackets indicate name in SCF output, whereas a 'c' in
 the SCF output indicates the quantity has converged.)

Symmetries present (total): 1

  ( 1  0  0)
  ( 0  1  0)
  ( 0  0  1)

4 k-points: 2 x 2 x 1 Monkhorst-Pack grid
2 k-points in the irreducible part of the Brillouin zone
       k-points in crystal coordinates                weights
   0:     0.25000000   -0.25000000    0.00000000          2/4
   1:     0.25000000    0.25000000    0.00000000          2/4

Wave functions: Plane wave expansion
  Cutoff energy: 350.000 eV
  Number of coefficients (min, max): 60143, 60161
  Pulay-stress correction: 0.000000 eV/Ang^3 (de/decut=0.000000)
  Using FFTW library
  ScaLapack parameters: grid=1x1, blocksize=None
  Wavefunction extrapolation:
    Improved wavefunction reuse through dual PAW basis 

Occupation numbers: Fermi-Dirac:
  width: 0.1000  # eV
 

Eigensolver
   Davidson(niter=2) 

Densities:
  Coarse grid: 56*56*128 grid
  Fine grid: 112*112*256 grid
  Total Charge: 0.000000 

Density mixing:
  Method: difference
  Backend: pulay
  Linear mixing parameter: 0.05
  old densities: 5
  Damping of long wavelength oscillations: 50 

Hamiltonian:
  XC and Coulomb potentials evaluated on a 112*112*256 grid
  Using the PBE Exchange-Correlation functional
  External potential:
    NoExternalPotential
 

XC parameters: PBE with 2 nearest neighbor stencil

Memory estimate:
  Process memory now: 380.41 MiB
  Calculator: 2209.57 MiB
    Density: 18.91 MiB
      Arrays: 7.39 MiB
      Localized functions: 8.57 MiB
      Mixer: 2.95 MiB
    Hamiltonian: 5.75 MiB
      Arrays: 5.49 MiB
      XC: 0.00 MiB
      Poisson: 0.00 MiB
      vbar: 0.26 MiB
    Wavefunctions: 2184.92 MiB
      Arrays psit_nG: 1382.48 MiB
      Eigensolver: 782.37 MiB
      Projections: 3.31 MiB
      Projectors: 1.16 MiB
      PW-descriptor: 15.59 MiB

Total number of cores used: 30
Parallelization over k-points: 2
Domain decomposition: 1 x 3 x 5

Number of atoms: 125
Number of atomic orbitals: 1116
Number of bands in calculation: 753
Number of valence electrons: 1098
Bands to converge: occupied

... initialized

Initializing position-dependent things.

Density initialized from atomic densities
Creating initial wave functions:
  753 bands from LCAO basis set

                                                                    
                                                                    
                                                                    
                                                                    
                                                                    
                                                                    
                                                                    
                                             Ni                     
                        CoCo   Fe    Nie       Ni  Fe               
                                   Co    Fe      Cr Ni              
                          Crr      Cr CAlNioCo Co                   
                    AlFe     CrNAl   Co        Ni    Ni             
               Fe    Ni    Ni  NiCr  Cr     Ni                      
        Cr             Feo  Ni           Al       Al                
          Cr     Co       Al Cr    Cr    Al     Fe    Ni            
           Co     CoFe  Ni    CoNi  Fe Cr  AlCo                     
                        Fe          Cri Fe       Cr     Cr          
               Cr     Fe    Co Ni Co  Ni    Co   Ni     Cr          
                      Co      Fe    Fe  NFe       Cr                
           Col  NFe  Cr Fe Cr Ni Fe Co  Fe   CAl    Al    Al        
                  Co    Cr  FeCr   FeAl  Co                         
                   Co    Ni    Fe   CrNi    Co Fe    Fe             
                        Ni  Al Al         Cr    Ni                  
              Cr     Al          Cr    Cr                           
                                  Fe                                
                                                                    
                                                                    
                                                                    
                                                                    
                                                                    
                                                                    

Positions:
   0 Cr    12.555724    1.724282   10.282540    ( 0.0000,  0.0000,  0.0000)
   1 Cr     2.771523    1.602611   10.700779    ( 0.0000,  0.0000,  0.0000)
   2 Al     5.304227    1.591361   10.562579    ( 0.0000,  0.0000,  0.0000)
   3 Fe    10.265540    3.675516    8.691783    ( 0.0000,  0.0000,  2.0000)
   4 Cr    10.144282    2.006916   10.576428    ( 0.0000,  0.0000,  0.0000)
   5 Co    14.219040    3.973093   10.924650    ( 0.0000,  0.0000,  2.1000)
   6 Co     4.300912    3.825385   10.847684    ( 0.0000,  0.0000,  2.1000)
   7 Ni     6.603075    3.687098   11.329972    ( 0.0000,  0.0000,  1.5000)
   8 Fe     8.962890    4.106651   10.948852    ( 0.0000,  0.0000,  2.0000)
   9 Ni    11.732137    4.018212   10.899295    ( 0.0000,  0.0000,  1.5000)
  10 Ni    15.449157    5.647428    9.272322    ( 0.0000,  0.0000,  1.5000)
  11 Ni     5.719306    5.889949    9.155409    ( 0.0000,  0.0000,  1.5000)
  12 Al     8.296910    6.000441    8.920543    ( 0.0000,  0.0000,  0.0000)
  13 Cr    10.490656    5.849512    9.823981    ( 0.0000,  0.0000,  0.0000)
  14 Cr    13.026392    5.768431    9.315665    ( 0.0000,  0.0000,  0.0000)
  15 Fe    16.871578    8.010798    9.446766    ( 0.0000,  0.0000,  2.0000)
  16 Fe     6.817664    7.815652   10.085335    ( 0.0000,  0.0000,  2.0000)
  17 Fe     9.515636    8.024370    9.837502    ( 0.0000,  0.0000,  2.0000)
  18 Co    12.019635    7.807248   10.185348    ( 0.0000,  0.0000,  2.1000)
  19 Fe    14.336211    7.933629    9.454588    ( 0.0000,  0.0000,  2.0000)
  20 Al    18.147755   10.619952    9.048581    ( 0.0000,  0.0000,  0.0000)
  21 Ni    10.991210    9.988213   10.263068    ( 0.0000,  0.0000,  1.5000)
  22 Co    12.261960   10.689933   12.447597    ( 0.0000,  0.0000,  2.1000)
  23 Co    13.274749    9.939082   10.001018    ( 0.0000,  0.0000,  2.1000)
  24 Al    15.784482   10.402315    9.606341    ( 0.0000,  0.0000,  0.0000)
  25 Al     8.188647    9.977413    9.968199    ( 0.0000,  0.0000,  0.0000)
  26 Fe     9.444918   10.659484   12.337029    ( 0.0000,  0.0000,  2.0000)
  27 Al     8.600332   -0.150065   12.320023    ( 0.0000,  0.0000,  0.0000)
  28 Ni    14.077108   12.508262   10.492406    ( 0.0000,  0.0000,  1.5000)
  29 Cr    17.626649   10.560953   11.946362    ( 0.0000,  0.0000,  0.0000)
  30 Al     1.674604    2.249576   13.144593    ( 0.0000,  0.0000,  0.0000)
  31 Co     4.189849    2.216927   12.942254    ( 0.0000,  0.0000,  2.1000)
  32 Cr     6.658622    2.029302   13.045698    ( 0.0000,  0.0000,  0.0000)
  33 Cr     9.120479    2.277364   12.756770    ( 0.0000,  0.0000,  0.0000)
  34 Al    11.824580    2.060286   12.497754    ( 0.0000,  0.0000,  0.0000)
  35 Ni     2.868951    4.344581   12.781635    ( 0.0000,  0.0000,  1.5000)
  36 Co     5.292118    4.321618   13.272890    ( 0.0000,  0.0000,  2.1000)
  37 Fe     8.264451    4.842154   13.116342    ( 0.0000,  0.0000,  2.0000)
  38 Fe    10.633167    4.633390   13.262324    ( 0.0000,  0.0000,  2.0000)
  39 Fe    13.013123    4.302609   13.031330    ( 0.0000,  0.0000,  2.0000)
  40 Cr     4.415731    6.030542   11.282826    ( 0.0000,  0.0000,  0.0000)
  41 Cr     6.842414    5.880886   11.624192    ( 0.0000,  0.0000,  0.0000)
  42 Fe     9.290436    6.328130   11.723925    ( 0.0000,  0.0000,  2.0000)
  43 Fe    12.032486    6.107021   11.892224    ( 0.0000,  0.0000,  2.0000)
  44 Al    14.332315    6.321322   11.495802    ( 0.0000,  0.0000,  0.0000)
  45 Cr    18.009141    8.152781   11.949584    ( 0.0000,  0.0000,  0.0000)
  46 Ni     7.995456    8.557506   12.135068    ( 0.0000,  0.0000,  1.5000)
  47 Ni    10.662405    8.598901   12.282996    ( 0.0000,  0.0000,  1.5000)
  48 Co    13.244805    8.609147   12.063918    ( 0.0000,  0.0000,  2.1000)
  49 Cr    15.659011    8.276626   11.458265    ( 0.0000,  0.0000,  0.0000)
  50 Co     1.607852    0.470094   14.798653    ( 0.0000,  0.0000,  2.1000)
  51 Fe     4.234801    0.543555   14.786806    ( 0.0000,  0.0000,  2.0000)
  52 Fe     7.027089    0.422138   14.757010    ( 0.0000,  0.0000,  2.0000)
  53 Ni     9.334891    0.739045   14.693737    ( 0.0000,  0.0000,  1.5000)
  54 Co    11.752992    0.501148   14.390740    ( 0.0000,  0.0000,  2.1000)
  55 Cr     2.953714    2.608873   15.214704    ( 0.0000,  0.0000,  0.0000)
  56 Fe     5.508864    2.785387   15.279321    ( 0.0000,  0.0000,  2.0000)
  57 Co     7.908235    3.057028   15.071484    ( 0.0000,  0.0000,  2.1000)
  58 Co    10.485837    2.739252   14.750083    ( 0.0000,  0.0000,  2.1000)
  59 Fe    12.729046    3.205154   15.144948    ( 0.0000,  0.0000,  2.0000)
  60 Fe     4.156314    5.417422   15.205827    ( 0.0000,  0.0000,  2.0000)
  61 Al     6.504881    5.479760   15.963197    ( 0.0000,  0.0000,  0.0000)
  62 Ni     9.186054    5.068874   15.223784    ( 0.0000,  0.0000,  1.5000)
  63 Cr    11.747470    5.361626   15.398313    ( 0.0000,  0.0000,  0.0000)
  64 Co    14.130369    5.165265   15.058883    ( 0.0000,  0.0000,  2.1000)
  65 Fe     5.398983    6.923934   13.949551    ( 0.0000,  0.0000,  2.0000)
  66 Al     7.760269    6.996421   14.136147    ( 0.0000,  0.0000,  0.0000)
  67 Ni    10.456766    7.006501   14.027882    ( 0.0000,  0.0000,  1.5000)
  68 Al    13.073600    6.998906   14.284580    ( 0.0000,  0.0000,  0.0000)
  69 Cr    15.497595    6.861497   13.392023    ( 0.0000,  0.0000,  0.0000)
  70 Cr     6.727592    9.161853   14.167035    ( 0.0000,  0.0000,  0.0000)
  71 Fe     9.127817    9.203952   14.387670    ( 0.0000,  0.0000,  2.0000)
  72 Al    11.711876    9.249275   14.376818    ( 0.0000,  0.0000,  0.0000)
  73 Fe    14.643509    9.000140   14.549362    ( 0.0000,  0.0000,  2.0000)
  74 Ni    16.913001    9.065547   14.138641    ( 0.0000,  0.0000,  1.5000)
  75 Cr    11.457263    1.289332   16.504358    ( 0.0000,  0.0000,  0.0000)
  76 Co     1.642072    1.555358   17.042885    ( 0.0000,  0.0000,  2.1000)
  77 Co     4.220624    1.520288   17.064790    ( 0.0000,  0.0000,  2.1000)
  78 Ni     6.843831    1.542836   17.245584    ( 0.0000,  0.0000,  1.5000)
  79 Co     9.092917    1.693383   16.874377    ( 0.0000,  0.0000,  2.1000)
  80 Al    12.908260    4.838929   17.368546    ( 0.0000,  0.0000,  0.0000)
  81 Co     3.171434    3.875632   17.200790    ( 0.0000,  0.0000,  2.1000)
  82 Fe     5.587891    3.893922   17.355218    ( 0.0000,  0.0000,  2.0000)
  83 Ni     7.852752    3.774769   17.362738    ( 0.0000,  0.0000,  1.5000)
  84 Cr    10.527294    3.731064   17.335567    ( 0.0000,  0.0000,  0.0000)
  85 Ni    14.842458    5.982242   17.884012    ( 0.0000,  0.0000,  1.5000)
  86 Fe     4.896995    6.331032   17.731628    ( 0.0000,  0.0000,  2.0000)
  87 Ni     8.324622    6.252430   17.881251    ( 0.0000,  0.0000,  1.5000)
  88 Co    10.664692    6.457499   17.860195    ( 0.0000,  0.0000,  2.1000)
  89 Ni    12.572197    6.515729   19.078385    ( 0.0000,  0.0000,  1.5000)
  90 Al    15.648726    7.396807   16.065675    ( 0.0000,  0.0000,  0.0000)
  91 Co     5.295209    7.995300   16.029680    ( 0.0000,  0.0000,  2.1000)
  92 Ni     7.896277    7.959582   16.339413    ( 0.0000,  0.0000,  1.5000)
  93 Cr    10.416459    8.215300   16.315064    ( 0.0000,  0.0000,  0.0000)
  94 Ni    13.200114    7.337653   16.852896    ( 0.0000,  0.0000,  1.5000)
  95 Ni    16.462418   10.128249   16.300888    ( 0.0000,  0.0000,  1.5000)
  96 Cr     6.739131   10.149669   16.454498    ( 0.0000,  0.0000,  0.0000)
  97 Cr     9.141330   10.215890   16.986522    ( 0.0000,  0.0000,  0.0000)
  98 Co    11.810320   10.302024   16.817668    ( 0.0000,  0.0000,  2.1000)
  99 Co    14.226953    9.666106   16.956435    ( 0.0000,  0.0000,  2.1000)
 100 Co     5.237571   10.957611   18.393527    ( 0.0000,  0.0000,  2.1000)
 101 Cr     1.315035   -0.079643   18.814985    ( 0.0000,  0.0000,  0.0000)
 102 Fe    10.310104   10.789163   18.683637    ( 0.0000,  0.0000,  2.0000)
 103 Ni    12.838558   10.919484   19.025201    ( 0.0000,  0.0000,  1.5000)
 104 Fe    15.174498   10.921421   18.471210    ( 0.0000,  0.0000,  2.0000)
 105 Cr     0.315374    2.050605   18.736192    ( 0.0000,  0.0000,  0.0000)
 106 Fe     2.863150    2.087676   19.436809    ( 0.0000,  0.0000,  2.0000)
 107 Ni     5.259230    2.077123   19.195516    ( 0.0000,  0.0000,  1.5000)
 108 Ni     7.663357    2.421289   19.416003    ( 0.0000,  0.0000,  1.5000)
 109 Cr    10.291615    1.914163   19.210051    ( 0.0000,  0.0000,  0.0000)
 110 Al    12.382979    2.380985   21.105340    ( 0.0000,  0.0000,  0.0000)
 111 Al     4.233666    4.395826   19.306516    ( 0.0000,  0.0000,  0.0000)
 112 Cr     6.625765    4.852050   19.318869    ( 0.0000,  0.0000,  0.0000)
 113 Al     9.228827    4.489236   19.374668    ( 0.0000,  0.0000,  0.0000)
 114 Co    11.636809    4.258906   19.720310    ( 0.0000,  0.0000,  2.1000)
 115 Cr    15.527219    6.484334   19.805260    ( 0.0000,  0.0000,  0.0000)
 116 Co     5.286805    6.912697   20.054672    ( 0.0000,  0.0000,  2.1000)
 117 Fe     8.067386    6.990047   20.238672    ( 0.0000,  0.0000,  2.0000)
 118 Ni    10.711128    7.137721   20.146024    ( 0.0000,  0.0000,  1.5000)
 119 Co    14.297806    4.292696   19.546764    ( 0.0000,  0.0000,  2.1000)
 120 Ni    16.502258    8.501535   18.503873    ( 0.0000,  0.0000,  1.5000)
 121 Cr     6.209230    8.330238   18.184464    ( 0.0000,  0.0000,  0.0000)
 122 Co     9.321399    8.605539   18.498165    ( 0.0000,  0.0000,  2.1000)
 123 Fe    11.711803    8.694762   18.684799    ( 0.0000,  0.0000,  2.0000)
 124 Ni    14.090948    8.991491   19.178293    ( 0.0000,  0.0000,  1.5000)

Unit cell:
           periodic     x           y           z      points  spacing
  1. axis:    yes   12.614700    0.000000    0.000000    56     0.1951
  2. axis:    yes    6.308550   10.926700    0.000000    56     0.1951
  3. axis:    no     0.000000    0.000000   29.353100   128     0.2293

  Lengths:  12.614700  12.617075  29.353100
  Angles:   90.000000  90.000000  59.999934

Effective grid spacing dv^(1/3) = 0.2160

     iter     time        total  log10-change:  magmom
                         energy  eigst   dens
iter:   1 19:14:32 -1147.687397                  +149.4302
iter:   2 19:17:09 -1469.257984  +0.33  -1.08    +79.7236
iter:   3 19:19:46 -3615.402057  +1.53  -0.86    +55.4005
iter:   4 19:22:24 -1002.039919  +0.42  -0.49    +32.3316
iter:   5 19:25:02  -947.454117  -0.02  -1.13    +28.1618
iter:   6 19:27:40  -945.340063  -0.51  -1.21    +28.3035
iter:   7 19:30:17  -927.151490  -0.97  -1.22    +30.1661
iter:   8 19:32:55  -949.697409  -0.76  -1.25    +31.3270
iter:   9 19:35:32 -1628.706439  -0.22  -1.19    +33.6801
iter:  10 19:38:10  -915.028830  -0.78  -0.80    +30.8072
iter:  11 19:40:47  -932.052234  -1.45  -1.32    +31.2091
iter:  12 19:43:24  -911.801737  -1.43  -1.26    +33.6311
iter:  13 19:46:02  -914.482442  -1.37  -1.39    +33.9429
iter:  14 19:48:40  -922.399595  -1.54  -1.35    +38.0940
iter:  15 19:51:18  -903.812210  -1.49  -1.35    +39.4379
iter:  16 19:53:56  -993.346391  -1.21  -1.46    +41.4107
iter:  17 19:56:34  -949.062855  -1.18  -1.16    +40.8121
iter:  18 19:59:11  -901.609280  -1.77  -1.29    +38.6799
iter:  19 20:01:49  -892.371934  -1.96  -1.50    +42.2109
iter:  20 20:04:27  -892.194520  -2.40  -1.60    +44.4654
iter:  21 20:07:06  -892.549802  -2.43  -1.59    +48.0603
iter:  22 20:09:44  -899.177151  -2.55  -1.60    +49.7895
iter:  23 20:12:22 -1049.568556  -1.26  -1.52    +53.7920
iter:  24 20:14:59  -894.862956  -1.56  -1.10    +51.5381
iter:  25 20:17:37  -891.541475  -2.39  -1.61    +53.1583
iter:  26 20:20:15  -901.447615  -2.33  -1.71    +56.0994
iter:  27 20:22:53  -897.520173  -2.40  -1.56    +58.9082
iter:  28 20:25:31  -893.156027  -2.49  -1.64    +61.6394
iter:  29 20:28:09  -895.748205  -2.03  -1.74    +63.5579
iter:  30 20:30:46  -893.676940  -2.30  -1.77    +64.2970
iter:  31 20:33:24  -898.088475  -2.53  -1.79    +65.7233
iter:  32 20:36:02  -907.466299  -2.04  -1.71    +68.1520
iter:  33 20:38:41  -895.805469  -2.32  -1.58    +67.6442
iter:  34 20:41:19  -901.014075  -2.34  -1.85    +68.4436
iter:  35 20:43:57  -895.425621  -2.33  -1.72    +69.5120
iter:  36 20:46:35  -895.908984  -2.55  -1.97    +69.8185
iter:  37 20:49:13  -895.391957  -2.87  -1.96    +70.1038
iter:  38 20:51:50  -896.897180  -3.03  -2.07    +70.4210
iter:  39 20:54:24  -900.683245  -2.48  -1.98    +71.6467
iter:  40 20:56:57  -896.964986  -2.73  -1.85    +71.4567
iter:  41 20:59:31  -896.656041  -2.89  -2.06    +71.5778
iter:  42 21:02:05  -897.713887  -2.89  -2.21    +72.1913
iter:  43 21:04:39  -897.178691  -2.98  -2.14    +72.3684
iter:  44 21:07:13  -897.746347  -3.17  -2.20    +72.9670
iter:  45 21:09:47  -898.026233  -3.09  -2.19    +73.0109
iter:  46 21:12:21  -897.639088  -3.14  -2.14    +73.7398
iter:  47 21:14:54  -897.808891  -3.30  -2.27    +74.3610
iter:  48 21:17:28  -897.697348  -3.45  -2.26    +74.5067
iter:  49 21:20:02  -898.418490  -3.25  -2.34    +74.5470
iter:  50 21:22:35  -897.671133  -3.61  -2.21    +74.5800
iter:  51 21:25:09  -898.010004  -3.26  -2.37    +75.0963
iter:  52 21:27:43  -897.964009  -3.46  -2.30    +75.2218
iter:  53 21:30:17  -898.078846  -3.30  -2.35    +75.3206
iter:  54 21:32:51  -897.816409  -3.32  -2.35    +75.4541
iter:  55 21:35:24  -897.766543  -3.60  -2.55    +75.7741
iter:  56 21:37:58  -898.158203  -3.62  -2.71    +75.6819
iter:  57 21:40:32  -897.744472  -4.09  -2.38    +75.6223
iter:  58 21:43:06  -897.767907  -4.16  -2.82    +75.8246
iter:  59 21:45:39  -897.771667c -4.48  -2.79    +75.8548
iter:  60 21:48:13  -897.770585c -4.26  -2.82    +75.8689
iter:  61 21:50:47  -897.765113c -4.30  -2.89    +75.8633
iter:  62 21:53:22  -897.788985c -4.12  -2.94    +75.9688
iter:  63 21:55:56  -897.935595  -4.05  -2.88    +75.9724
iter:  64 21:58:30  -897.768206  -4.33  -2.60    +75.8174
iter:  65 22:01:04  -897.792148  -4.53  -3.14    +75.8586
iter:  66 22:03:38  -897.770603c -5.07  -2.90    +75.9016
iter:  67 22:06:11  -897.769394c -5.09  -3.13    +75.9344
iter:  68 22:08:45  -897.771469c -5.46  -3.20    +75.9217
iter:  69 22:11:18  -897.790894c -4.45  -3.20    +75.8514
iter:  70 22:13:52  -897.775253c -5.21  -3.04    +75.8728
iter:  71 22:16:27  -897.788410c -5.08  -3.21    +75.8572
iter:  72 22:19:01  -897.780753c -5.10  -3.07    +75.8286
iter:  73 22:21:35  -897.785477c -4.97  -3.12    +75.7898
iter:  74 22:24:09  -897.779872c -5.09  -3.15    +75.8366
iter:  75 22:26:42  -897.788476c -5.03  -3.19    +75.8054
iter:  76 22:29:16  -897.793398c -4.71  -3.07    +75.8015
iter:  77 22:31:49  -897.785909c -4.95  -3.12    +75.7914
iter:  78 22:34:23  -897.823484c -4.65  -3.13    +75.8102
iter:  79 22:36:57  -897.780567c -5.02  -2.90    +75.7654
iter:  80 22:39:31  -897.784136c -5.01  -3.50    +75.7510
iter:  81 22:42:05  -897.781088c -5.45  -3.30    +75.7352
iter:  82 22:44:39  -897.782408c -5.61  -3.66    +75.7167
iter:  83 22:47:13  -897.788078c -5.47  -3.52    +75.7025
iter:  84 22:49:47  -897.782129c -5.78  -3.39    +75.6863
iter:  85 22:52:21  -897.783921c -5.97  -3.63    +75.6805
iter:  86 22:54:55  -897.785063c -6.07  -3.72    +75.6654
iter:  87 22:57:29  -897.784147c -6.36  -3.60    +75.6445
iter:  88 23:00:03  -897.784855c -6.07  -3.75    +75.6100
iter:  89 23:02:38  -897.785133c -5.61  -3.75    +75.5496
iter:  90 23:05:12  -897.789485c -5.47  -3.77    +75.5504
iter:  91 23:07:47  -897.785319c -5.74  -3.23    +75.5217
iter:  92 23:10:20  -897.786672c -6.02  -3.76    +75.5116
iter:  93 23:12:54  -897.785813c -6.31  -3.64    +75.5151
iter:  94 23:15:27  -897.789740c -5.69  -3.71    +75.5005
iter:  95 23:18:01  -897.788856c -5.84  -3.44    +75.4982
iter:  96 23:20:35  -897.791568c -5.26  -3.53    +75.4829
iter:  97 23:23:09  -897.786710c -5.60  -3.19    +75.4868
iter:  98 23:25:43  -897.788107c -5.70  -3.73    +75.4898
iter:  99 23:28:17  -897.788453c -6.16  -3.56    +75.4796
iter: 100 23:30:50  -897.785804c -5.91  -3.55    +75.4567
iter: 101 23:33:24  -897.785934c -6.12  -3.81    +75.4591
iter: 102 23:35:58  -897.785507c -5.77  -3.84    +75.4765
iter: 103 23:38:32  -897.787007c -5.87  -3.73    +75.4820
iter: 104 23:41:06  -897.786250c -6.16  -3.76    +75.4675
iter: 105 23:43:40  -897.785562c -6.36  -4.00c   +75.4694
iter: 106 23:46:14  -897.788467c -6.04  -3.90    +75.4793
iter: 107 23:48:48  -897.786929c -6.57  -3.59    +75.4747
iter: 108 23:51:23  -897.786556c -6.69  -3.83    +75.4551
iter: 109 23:53:57  -897.785875c -6.25  -3.98    +75.4570
iter: 110 23:56:31  -897.786135c -6.71  -4.03c   +75.4577
iter: 111 23:59:05  -897.785991c -7.02  -4.24c   +75.4565
iter: 112 00:01:38  -897.785830c -7.21  -4.44c   +75.4604
iter: 113 00:04:12  -897.786066c -7.46c -4.31c   +75.4607

Converged after 113 iterations.

Dipole moment: (49.731603, 55.998839, -0.023954) |e|*Ang

Total magnetic moment: (0.000000, 0.000000, 75.460741)
Local magnetic moments:
   0 Cr ( 0.000000,  0.000000,  2.883877)
   1 Cr ( 0.000000,  0.000000, -3.216685)
   2 Al ( 0.000000,  0.000000, -0.012357)
   3 Fe ( 0.000000,  0.000000,  2.916113)
   4 Cr ( 0.000000,  0.000000, -2.267493)
   5 Co ( 0.000000,  0.000000,  1.382987)
   6 Co ( 0.000000,  0.000000,  1.139202)
   7 Ni ( 0.000000,  0.000000,  0.143566)
   8 Fe ( 0.000000,  0.000000,  2.355581)
   9 Ni ( 0.000000,  0.000000,  0.175095)
  10 Ni ( 0.000000,  0.000000,  0.186908)
  11 Ni ( 0.000000,  0.000000,  0.505961)
  12 Al ( 0.000000,  0.000000, -0.029788)
  13 Cr ( 0.000000,  0.000000, -1.951282)
  14 Cr ( 0.000000,  0.000000, -3.065659)
  15 Fe ( 0.000000,  0.000000,  2.547709)
  16 Fe ( 0.000000,  0.000000,  2.311735)
  17 Fe ( 0.000000,  0.000000,  2.346983)
  18 Co ( 0.000000,  0.000000,  1.315302)
  19 Fe ( 0.000000,  0.000000,  2.461162)
  20 Al ( 0.000000,  0.000000, -0.022635)
  21 Ni ( 0.000000,  0.000000,  0.488245)
  22 Co ( 0.000000,  0.000000,  1.277692)
  23 Co ( 0.000000,  0.000000,  1.659282)
  24 Al ( 0.000000,  0.000000, -0.014749)
  25 Al ( 0.000000,  0.000000, -0.042606)
  26 Fe ( 0.000000,  0.000000,  2.794650)
  27 Al ( 0.000000,  0.000000, -0.019801)
  28 Ni ( 0.000000,  0.000000,  0.023580)
  29 Cr ( 0.000000,  0.000000,  2.923294)
  30 Al ( 0.000000,  0.000000, -0.024392)
  31 Co ( 0.000000,  0.000000,  1.120387)
  32 Cr ( 0.000000,  0.000000, -2.225388)
  33 Cr ( 0.000000,  0.000000,  2.057476)
  34 Al ( 0.000000,  0.000000, -0.033809)
  35 Ni ( 0.000000,  0.000000,  0.306784)
  36 Co ( 0.000000,  0.000000,  1.544357)
  37 Fe ( 0.000000,  0.000000,  1.909026)
  38 Fe ( 0.000000,  0.000000,  2.390667)
  39 Fe ( 0.000000,  0.000000,  2.038911)
  40 Cr ( 0.000000,  0.000000,  1.643504)
  41 Cr ( 0.000000,  0.000000, -1.987643)
  42 Fe ( 0.000000,  0.000000,  2.133073)
  43 Fe ( 0.000000,  0.000000,  2.133591)
  44 Al ( 0.000000,  0.000000, -0.025001)
  45 Cr ( 0.000000,  0.000000, -1.621471)
  46 Ni ( 0.000000,  0.000000,  0.242957)
  47 Ni ( 0.000000,  0.000000,  0.521794)
  48 Co ( 0.000000,  0.000000,  1.481760)
  49 Cr ( 0.000000,  0.000000,  0.237081)
  50 Co ( 0.000000,  0.000000,  0.895344)
  51 Fe ( 0.000000,  0.000000,  2.476904)
  52 Fe ( 0.000000,  0.000000,  2.603352)
  53 Ni ( 0.000000,  0.000000,  0.547046)
  54 Co ( 0.000000,  0.000000,  1.044956)
  55 Cr ( 0.000000,  0.000000, -2.355943)
  56 Fe ( 0.000000,  0.000000,  2.533145)
  57 Co ( 0.000000,  0.000000,  1.614799)
  58 Co ( 0.000000,  0.000000,  1.257942)
  59 Fe ( 0.000000,  0.000000,  2.425962)
  60 Fe ( 0.000000,  0.000000,  2.432557)
  61 Al ( 0.000000,  0.000000, -0.049162)
  62 Ni ( 0.000000,  0.000000,  0.305647)
  63 Cr ( 0.000000,  0.000000, -2.111528)
  64 Co ( 0.000000,  0.000000,  0.568806)
  65 Fe ( 0.000000,  0.000000,  1.836734)
  66 Al ( 0.000000,  0.000000, -0.017647)
  67 Ni ( 0.000000,  0.000000,  0.067790)
  68 Al ( 0.000000,  0.000000, -0.019977)
  69 Cr ( 0.000000,  0.000000, -1.572709)
  70 Cr ( 0.000000,  0.000000, -2.059544)
  71 Fe ( 0.000000,  0.000000,  2.212647)
  72 Al ( 0.000000,  0.000000, -0.044109)
  73 Fe ( 0.000000,  0.000000,  2.356253)
  74 Ni ( 0.000000,  0.000000,  0.337426)
  75 Cr ( 0.000000,  0.000000, -1.791142)
  76 Co ( 0.000000,  0.000000,  0.499961)
  77 Co ( 0.000000,  0.000000,  1.375137)
  78 Ni ( 0.000000,  0.000000,  0.610891)
  79 Co ( 0.000000,  0.000000,  1.281537)
  80 Al ( 0.000000,  0.000000, -0.028666)
  81 Co ( 0.000000,  0.000000,  1.483851)
  82 Fe ( 0.000000,  0.000000,  2.107307)
  83 Ni ( 0.000000,  0.000000,  0.297287)
  84 Cr ( 0.000000,  0.000000,  2.609765)
  85 Ni ( 0.000000,  0.000000,  0.131180)
  86 Fe ( 0.000000,  0.000000,  2.328590)
  87 Ni ( 0.000000,  0.000000,  0.392248)
  88 Co ( 0.000000,  0.000000,  1.399007)
  89 Ni ( 0.000000,  0.000000,  0.514322)
  90 Al ( 0.000000,  0.000000, -0.033800)
  91 Co ( 0.000000,  0.000000,  0.992671)
  92 Ni ( 0.000000,  0.000000,  0.041628)
  93 Cr ( 0.000000,  0.000000, -2.194043)
  94 Ni ( 0.000000,  0.000000,  0.232665)
  95 Ni ( 0.000000,  0.000000,  0.418830)
  96 Cr ( 0.000000,  0.000000,  1.845707)
  97 Cr ( 0.000000,  0.000000, -0.640014)
  98 Co ( 0.000000,  0.000000,  1.481711)
  99 Co ( 0.000000,  0.000000,  1.791111)
 100 Co ( 0.000000,  0.000000,  0.946930)
 101 Cr ( 0.000000,  0.000000, -2.490402)
 102 Fe ( 0.000000,  0.000000,  2.183530)
 103 Ni ( 0.000000,  0.000000,  0.623942)
 104 Fe ( 0.000000,  0.000000,  2.648525)
 105 Cr ( 0.000000,  0.000000,  1.796685)
 106 Fe ( 0.000000,  0.000000,  2.922750)
 107 Ni ( 0.000000,  0.000000,  0.560578)
 108 Ni ( 0.000000,  0.000000,  0.324631)
 109 Cr ( 0.000000,  0.000000, -2.922079)
 110 Al ( 0.000000,  0.000000, -0.001579)
 111 Al ( 0.000000,  0.000000, -0.028479)
 112 Cr ( 0.000000,  0.000000, -2.927530)
 113 Al ( 0.000000,  0.000000, -0.012239)
 114 Co ( 0.000000,  0.000000,  1.149175)
 115 Cr ( 0.000000,  0.000000, -2.912250)
 116 Co ( 0.000000,  0.000000,  1.507330)
 117 Fe ( 0.000000,  0.000000,  3.114541)
 118 Ni ( 0.000000,  0.000000,  0.702158)
 119 Co ( 0.000000,  0.000000,  1.451656)
 120 Ni ( 0.000000,  0.000000,  0.083159)
 121 Cr ( 0.000000,  0.000000, -2.486005)
 122 Co ( 0.000000,  0.000000,  0.927883)
 123 Fe ( 0.000000,  0.000000,  2.670240)
 124 Ni ( 0.000000,  0.000000,  0.668749)

Energy contributions relative to reference atoms: (reference = -3927717.499734)

Kinetic:       +285.055286
Potential:     -295.225481
External:        +0.000000
XC:            -921.694966
Entropy (-ST):   -5.132745
Local:          +36.645466
--------------------------
Free energy:   -900.352439
Extrapolated:  -897.786066

Dipole-layer corrected work functions: 4.351689, 4.383135 eV

Spin contamination: 51.978784 electrons
Showing all kpts
                      Up                     Down
 Kpt  Band  Eigenvalues  Occupancy  Eigenvalues  Occupancy
  0   547      0.18778    0.99860      1.19118    0.03043
  0   548      0.19598    0.99848      1.19624    0.02897
  0   549      0.20998    0.99826      1.21287    0.02464
  0   550      0.21206    0.99822      1.22316    0.02228

  1   547      0.18370    0.99866      1.18659    0.03181
  1   548      0.19637    0.99848      1.19865    0.02830
  1   549      0.20510    0.99834      1.20726    0.02603
  1   550      0.21493    0.99817      1.21163    0.02494


Fermi level: 0.84503

No gap

Forces in eV/Ang:
  0 Cr    1.60019    0.64206   -1.00915
  1 Cr   -0.64352    0.34807    0.04369
  2 Al    0.87687   -0.75981    0.21274
  3 Fe    0.02116    0.57283    1.53031
  4 Cr    0.30009   -0.99724   -0.45018
  5 Co   -0.35886   -0.87801   -1.18840
  6 Co   -0.71615   -0.49446   -0.02289
  7 Ni    0.22735   -1.15362   -0.90565
  8 Fe    0.07787   -0.22313   -0.92998
  9 Ni   -0.56071   -0.60058   -0.70307
 10 Ni    0.77496    0.19784    1.10105
 11 Ni   -0.21659    0.05783    1.02876
 12 Al   -1.51308   -0.34930    0.19933
 13 Cr    1.03719   -0.30267    0.27759
 14 Cr    0.13311   -0.68396    0.07928
 15 Fe    0.58781   -0.14523    0.17682
 16 Fe   -0.03839   -0.03820   -0.57443
 17 Fe    0.55641   -0.48844    0.96512
 18 Co   -0.37512    0.04055   -0.10141
 19 Fe    0.25596    0.06432    0.34318
 20 Al    0.79508   -1.16971    0.07765
 21 Ni   -1.25690    0.77557    0.51368
 22 Co   -0.64381    0.60549   -0.24672
 23 Co    0.56558    0.58863    0.97573
 24 Al   -1.68472   -0.11292    0.49260
 25 Al   -0.47754    1.16913    0.44195
 26 Fe    0.21026    0.55434    0.36665
 27 Al   -0.69981   -0.59677    0.00461
 28 Ni    0.12118   -0.61362    0.69356
 29 Cr   -0.25236   -0.80189   -0.07360
 30 Al    0.28206   -0.89854   -0.93223
 31 Co   -0.13690   -0.39936   -0.35271
 32 Cr    0.33145    0.04343   -0.00748
 33 Cr   -0.01635    0.75098    0.08682
 34 Al   -1.19849    1.21139    2.28474
 35 Ni    0.82534    0.69329    1.42982
 36 Co    0.14782    0.64192    0.36796
 37 Fe   -1.00249   -2.03160    0.40323
 38 Fe   -0.08855   -0.61749   -0.33799
 39 Fe    0.44771    1.01005    0.16254
 40 Cr    0.01861    0.41161    0.38416
 41 Cr   -0.27969    1.44955   -0.04951
 42 Fe    0.48944    1.53980   -0.01571
 43 Fe   -1.59881    1.44014   -0.03472
 44 Al   -0.62253   -1.29362   -1.38192
 45 Cr   -0.17753    0.18211    0.09789
 46 Ni    0.44527   -0.11087   -0.35099
 47 Ni   -0.25900   -0.33257   -0.97640
 48 Co    0.34603   -0.56564    0.69677
 49 Cr    0.83480    2.12009    0.54396
 50 Co    0.49582   -0.08091   -0.08833
 51 Fe   -0.02455   -0.27346   -0.20085
 52 Fe   -0.59533    0.00194    0.66936
 53 Ni   -0.40620   -0.83545   -0.78044
 54 Co    0.73722   -0.46747    0.07483
 55 Cr    0.27697    0.84552    0.17281
 56 Fe   -0.12087    0.09294   -0.52918
 57 Co    0.20420   -0.98806   -0.25773
 58 Co   -0.45808    1.16798    0.40825
 59 Fe    0.51704   -1.30046    0.55414
 60 Fe   -0.60129   -1.81219    0.42834
 61 Al    1.58677    0.65015   -0.89097
 62 Ni   -0.02548    0.73357    1.65084
 63 Cr   -2.29557   -0.92287   -0.26336
 64 Co    1.65438   -0.56978    0.91026
 65 Fe   -0.36540   -0.83520   -1.00663
 66 Al    1.89916   -0.71354   -0.51287
 67 Ni    0.01120   -0.10855    0.11432
 68 Al   -0.11138    1.29024   -1.31925
 69 Cr    1.94865    0.76052    1.54658
 70 Cr   -0.55444    1.69705    0.21055
 71 Fe   -0.10880    0.54930    0.15853
 72 Al    0.82754    0.46134   -0.08631
 73 Fe   -1.37396    1.17205   -0.51632
 74 Ni   -0.40681    0.64159   -1.16461
 75 Cr    0.50732    0.50053    0.57049
 76 Co    0.59804    0.11170   -0.98627
 77 Co   -0.16525    0.67000   -0.18513
 78 Ni   -1.00900   -0.09712   -0.65013
 79 Co    0.59327    0.22900   -0.40297
 80 Al    0.58165   -1.37943    1.33283
 81 Co   -0.63740   -0.38665   -0.30125
 82 Fe   -1.80499   -1.40232    0.44875
 83 Ni    1.54240    0.57310   -0.03621
 84 Cr    0.56424   -0.11827   -0.94194
 85 Ni    0.60587    0.07161   -1.68715
 86 Fe   -0.69999   -0.56724    0.30157
 87 Ni   -0.51655   -0.30228    0.30323
 88 Co   -0.07270   -0.77070   -0.62518
 89 Ni    2.61642   -0.70606    0.75983
 90 Al   -0.84439    0.49442    0.61028
 91 Co    0.86986   -0.08179    0.24426
 92 Ni    0.08028    0.51255   -0.25167
 93 Cr    0.30417   -0.77258    0.18703
 94 Ni   -0.79636    0.63337   -0.82045
 95 Ni    0.72940   -0.55061    0.74358
 96 Cr   -0.49192    0.43083    0.15852
 97 Cr   -0.38063    0.77178   -2.12641
 98 Co    0.09648   -0.12890   -0.69648
 99 Co   -1.38142   -0.45546   -1.52656
100 Co   -0.60086   -1.17221   -0.08632
101 Cr    0.05126   -0.40778    0.79517
102 Fe    0.56061    0.41653    1.35311
103 Ni   -0.64274    0.37386   -0.15475
104 Fe    1.29619    0.91964    0.97570
105 Cr   -0.75486    1.31363   -0.36995
106 Fe   -0.45870    0.30699   -0.96567
107 Ni    0.05855    0.37893   -0.20699
108 Ni    0.40258   -0.19263   -0.78691
109 Cr    0.08766    0.72905   -0.27817
110 Al    0.28738    0.34371   -0.36468
111 Al   -1.15543   -0.61714    1.23161
112 Cr    0.93651    0.64562    0.22060
113 Al   -0.05039    0.28876    0.70914
114 Co    0.62437    0.04957   -0.96737
115 Cr    0.00600    1.48198    1.87818
116 Co    0.39424   -0.28982   -0.87820
117 Fe   -0.18320    0.01354   -1.40874
118 Ni   -1.66616   -0.28538    0.19216
119 Co   -0.63128   -0.60962   -0.30040
120 Ni   -0.65864    0.39205   -0.66910
121 Cr    1.44108    0.11191    0.78591
122 Co   -0.78793   -1.34523    0.56320
123 Fe    0.23521    0.28915   -0.58063
124 Ni    0.11917   -2.01692    0.21645

Timing:                              incl.     excl.
-----------------------------------------------------------
Forces:                             41.308    41.308   0.2% |
Hamiltonian:                         1.898     0.012   0.0% |
 Atomic:                             0.368     0.002   0.0% |
  XC Correction:                     0.367     0.367   0.0% |
 Calculate atomic Hamiltonians:      0.865     0.865   0.0% |
 Communicate:                        0.140     0.140   0.0% |
 Initialize Hamiltonian:             0.000     0.000   0.0% |
 Poisson:                            0.113     0.113   0.0% |
 XC 3D grid:                         0.399     0.399   0.0% |
LCAO initialization:               277.694     0.568   0.0% |
 LCAO eigensolver:                  12.891     0.012   0.0% |
  Calculate projections:             0.000     0.000   0.0% |
  DenseAtomicCorrection:             0.000     0.000   0.0% |
  Distribute overlap matrix:         8.163     8.163   0.0% |
  Orbital Layouts:                   4.596     4.596   0.0% |
  Potential matrix:                  0.004     0.004   0.0% |
  Sum over cells:                    0.116     0.116   0.0% |
 LCAO to grid:                     262.301   262.301   1.5% ||
 Set positions (LCAO WFS):           1.934     1.651   0.0% |
  Basic WFS set positions:           0.004     0.004   0.0% |
  Basis functions set positions:     0.001     0.001   0.0% |
  P tci:                             0.000     0.000   0.0% |
  ST tci:                            0.104     0.104   0.0% |
  mktci:                             0.174     0.174   0.0% |
PWDescriptor:                        0.314     0.314   0.0% |
SCF-cycle:                       17557.519   690.850   3.9% |-|
 Davidson:                       16340.420  5487.919  30.7% |-----------|
  Apply H:                         301.434   296.814   1.7% ||
   HMM T:                            4.620     4.620   0.0% |
  Subspace diag:                  1833.977     0.041   0.0% |
   calc_h_matrix:                  789.847   470.675   2.6% ||
    Apply H:                       319.171   313.881   1.8% ||
     HMM T:                          5.290     5.290   0.0% |
   diagonalize:                    141.666   141.666   0.8% |
   rotate_psi:                     902.424   902.424   5.0% |-|
  calc. matrices:                 4190.419  3652.656  20.4% |-------|
   Apply H:                        537.763   527.915   3.0% ||
    HMM T:                           9.848     9.848   0.1% |
  diagonalize:                    2630.882  2630.882  14.7% |-----|
  rotate_psi:                     1895.789  1895.789  10.6% |---|
 Density:                          290.085     0.004   0.0% |
  Atomic density matrices:           2.725     2.725   0.0% |
  Mix:                             127.065   127.065   0.7% |
  Multipole moments:                 0.077     0.077   0.0% |
  Pseudo density:                  160.214   160.209   0.9% |
   Symmetrize density:               0.005     0.005   0.0% |
 Hamiltonian:                      217.199     1.338   0.0% |
  Atomic:                           42.479     0.166   0.0% |
   XC Correction:                   42.313    42.313   0.2% |
  Calculate atomic Hamiltonians:   108.539   108.539   0.6% |
  Communicate:                      16.420    16.420   0.1% |
  Poisson:                           4.955     4.955   0.0% |
  XC 3D grid:                       43.468    43.468   0.2% |
 Orthonormalize:                    18.964     0.001   0.0% |
  calc_s_matrix:                     2.299     2.299   0.0% |
  inverse-cholesky:                  0.784     0.784   0.0% |
  projections:                      11.796    11.796   0.1% |
  rotate_psi_s:                      4.084     4.084   0.0% |
Set symmetry:                        0.001     0.001   0.0% |
Other:                               7.743     7.743   0.0% |
-----------------------------------------------------------
Total:                                     17886.477 100.0%

Date: Tue Apr 18 00:04:57 2023
