
  ___ ___ ___ _ _ _  
 |   |   |_  | | | | 
 | | | | | . | | | | 
 |__ |  _|___|_____|  22.8.0
 |___|_|             

User:   c.zeng@d0089
Date:   Mon Apr 17 13:28:08 2023
Arch:   x86_64
Pid:    184774
CWD:    /home/c.zeng/projects/hea-corrosion/hea-mlp/data-curation/surface-md/dft-jobs/52
Python: 3.8.1
gpaw:   /home/c.zeng/usr/installs/gpaw/source/gpaw-22.8.0/gpaw
_gpaw:  /home/c.zeng/usr/installs/gpaw/source/gpaw-22.8.0/
        _gpaw.cpython-38-x86_64-linux-gnu.so
ase:    /home/c.zeng/.local/lib/python3.8/site-packages/ase-3.22.1-py3.8.egg/ase (version 3.22.1)
numpy:  /home/c.zeng/.local/lib/python3.8/site-packages/numpy (version 1.24.2)
scipy:  /home/c.zeng/.local/lib/python3.8/site-packages/scipy (version 1.10.1)
libxc:  4.2.3
units:  Angstrom and eV
cores: 30
OpenMP: False
OMP_NUM_THREADS: 1

Input parameters:
  convergence: {energy: 0.0001}
  kpts: [2 2 1]
  maxiter: 666
  mode: {ecut: 350.0,
         name: pw}
  occupations: {fixmagmom: False,
                name: fermi-dirac,
                width: 0.1}
  poissonsolver: {dipolelayer: xy}
  spinpol: True
  symmetry: {point_group: False}
  xc: PBE

System changes: positions, numbers, cell, pbc, initial_charges, initial_magmoms 

Initialize ...

species:
  Al:
    name: Aluminium
    id: 0292cae29f5d6237e50f6abdd43a7bdd
    Z: 13.0
    valence: 3
    core: 10
    charge: 0.0
    file: /home/c.zeng/usr/data/gpaw-setups-0.9.20000/Al.PBE.gz
    compensation charges: {type: gauss,
                           rc: 0.34,
                           lmax: 2}
    cutoffs: {filter: 1.91,
              core: 2.36}
    valence states:
      #              energy  rcut
      - 3s(2.00)    -7.753   1.085
      - 3p(1.00)    -2.712   1.085
      -  s          19.459   1.085
      -  p          24.499   1.085
      -  d           0.000   1.085
  
    # Using partial waves for Al as LCAO basis

  Ni:
    name: Nickel
    id: 0d9f38a9d6e76a2886f07bb4381f212b
    Z: 28.0
    valence: 16
    core: 12
    charge: 0.0
    file: /home/c.zeng/usr/data/gpaw-setups-0.9.20000/Ni.PBE.gz
    compensation charges: {type: gauss,
                           rc: 0.36,
                           lmax: 2}
    cutoffs: {filter: 2.14,
              core: 1.98}
    valence states:
      #              energy  rcut
      - 4s(2.00)    -5.642   1.164
      - 3p(6.00)   -71.394   1.207
      - 4p(0.00)    -1.226   1.207
      - 3d(8.00)    -8.875   1.138
      -  s          21.570   1.164
      -  d          18.337   1.138
  
    # Using partial waves for Ni as LCAO basis

  Fe:
    name: Iron
    id: 37abbd8d6c3c35915a9b583b742da910
    Z: 26.0
    valence: 8
    core: 18
    charge: 0.0
    file: /home/c.zeng/usr/data/gpaw-setups-0.9.20000/Fe.PBE.gz
    compensation charges: {type: gauss,
                           rc: 0.33,
                           lmax: 2}
    cutoffs: {filter: 2.06,
              core: 2.67}
    valence states:
      #              energy  rcut
      - 4s(2.00)    -5.291   1.164
      - 4p(0.00)    -1.326   1.058
      - 3d(6.00)    -7.505   1.058
      -  s          21.920   1.164
      -  p          25.885   1.058
      -  d          19.706   1.058
  
    # Using partial waves for Fe as LCAO basis

  Cr:
    name: Chromium
    id: 33f258bda2ca9f93018e70263a35547b
    Z: 24.0
    valence: 6
    core: 18
    charge: 0.0
    file: /home/c.zeng/usr/data/gpaw-setups-0.9.20000/Cr.PBE.gz
    compensation charges: {type: gauss,
                           rc: 0.35,
                           lmax: 2}
    cutoffs: {filter: 2.14,
              core: 3.04}
    valence states:
      #              energy  rcut
      - 4s(1.00)    -4.007   1.164
      - 4p(0.00)    -0.989   1.217
      - 3d(5.00)    -2.913   1.111
      -  s          23.205   1.164
      -  p          26.223   1.217
      -  d          24.299   1.111
  
    # Using partial waves for Cr as LCAO basis

  Co:
    name: Cobalt
    id: 339d20d5b0b93d2de9531a1bee871d91
    Z: 27.0
    valence: 9
    core: 18
    charge: 0.0
    file: /home/c.zeng/usr/data/gpaw-setups-0.9.20000/Co.PBE.gz
    compensation charges: {type: gauss,
                           rc: 0.32,
                           lmax: 2}
    cutoffs: {filter: 1.87,
              core: 2.55}
    valence states:
      #              energy  rcut
      - 4s(2.00)    -5.469   1.005
      - 4p(0.00)    -1.277   1.058
      - 3d(7.00)    -8.205   1.005
      -  s          21.742   1.005
      -  p          25.934   1.058
      -  d          19.007   1.005
  
    # Using partial waves for Co as LCAO basis

Reference energy: -4103091.665053  # eV

Spin-polarized calculation.
Magnetic moment: 158.800000

Convergence criteria:
 Maximum [total energy] change in last 3 cyles: 0.0001 eV / electron
 Maximum integral of absolute [dens]ity change: 0.0001 electrons / valence electron
 Maximum integral of absolute [eigenst]ate change: 4e-08 eV^2 / valence electron
 Maximum number of scf [iter]ations: 666
 (Square brackets indicate name in SCF output, whereas a 'c' in
 the SCF output indicates the quantity has converged.)

Symmetries present (total): 1

  ( 1  0  0)
  ( 0  1  0)
  ( 0  0  1)

4 k-points: 2 x 2 x 1 Monkhorst-Pack grid
2 k-points in the irreducible part of the Brillouin zone
       k-points in crystal coordinates                weights
   0:     0.25000000   -0.25000000    0.00000000          2/4
   1:     0.25000000    0.25000000    0.00000000          2/4

Wave functions: Plane wave expansion
  Cutoff energy: 350.000 eV
  Number of coefficients (min, max): 59263, 59339
  Pulay-stress correction: 0.000000 eV/Ang^3 (de/decut=0.000000)
  Using FFTW library
  ScaLapack parameters: grid=1x1, blocksize=None
  Wavefunction extrapolation:
    Improved wavefunction reuse through dual PAW basis 

Occupation numbers: Fermi-Dirac:
  width: 0.1000  # eV
 

Eigensolver
   Davidson(niter=2) 

Densities:
  Coarse grid: 56*56*128 grid
  Fine grid: 112*112*256 grid
  Total Charge: 0.000000 

Density mixing:
  Method: difference
  Backend: pulay
  Linear mixing parameter: 0.05
  old densities: 5
  Damping of long wavelength oscillations: 50 

Hamiltonian:
  XC and Coulomb potentials evaluated on a 112*112*256 grid
  Using the PBE Exchange-Correlation functional
  External potential:
    NoExternalPotential
 

XC parameters: PBE with 2 nearest neighbor stencil

Memory estimate:
  Process memory now: 379.35 MiB
  Calculator: 2263.81 MiB
    Density: 18.78 MiB
      Arrays: 7.39 MiB
      Localized functions: 8.44 MiB
      Mixer: 2.95 MiB
    Hamiltonian: 5.74 MiB
      Arrays: 5.49 MiB
      XC: 0.00 MiB
      Poisson: 0.00 MiB
      vbar: 0.26 MiB
    Wavefunctions: 2239.28 MiB
      Arrays psit_nG: 1414.30 MiB
      Eigensolver: 804.77 MiB
      Projections: 3.48 MiB
      Projectors: 1.15 MiB
      PW-descriptor: 15.58 MiB

Total number of cores used: 30
Parallelization over k-points: 2
Domain decomposition: 1 x 3 x 5

Number of atoms: 125
Number of atomic orbitals: 1149
Number of bands in calculation: 781
Number of valence electrons: 1136
Bands to converge: occupied

... initialized

Initializing position-dependent things.

Density initialized from atomic densities
Creating initial wave functions:
  781 bands from LCAO basis set

                                                                   
                                                                   
                                                                   
                                                                   
                                                                   
                                                     Ni            
                        Fe      Co   Ni         Co                 
                          Ni     Ni        Cr   Co Fe              
                      Cr    CCr NiCo   Co    Cr    Co    Ni        
                FeFe    Co    Al  Fe    Co  Fe      Fe             
           Fe           Al   Cr    CFe Al     NiNi                 
       Co     Co   CCr   NNi CFe   Cr     Co         Al            
                      Cr        Fe    Ni Al CoCr                   
                Fe Cr    Cr      Cr Co Fe  Ni    Co   Fe           
                          ACoo  Co    Cr    Cr  Cr                 
               Ni Ni  Ni    Cr  FeNi FeNFe  CCo   Al               
           Co          Al   Co   Fe Ni         Fe  Ni    Cr        
                  Cr    Cr  CrCo  Ni  CoFe  Al                     
                        Cr    Al Al CFe    Fe FeNiNiNi             
        Fe    Fe    Fe  Cr    Co          Cr                       
                    Fe   Co          Ni      Cr                    
               Ni              FeNi    Al                          
                     Fe    Cr                                      
                                                                   
                                                                   
                                                                   
                                                                   
                                                                   

Positions:
   0 Al    12.633554    1.056793   10.268055    ( 0.0000,  0.0000,  0.0000)
   1 Ni     2.902876    1.116095   10.621565    ( 0.0000,  0.0000,  1.5000)
   2 Fe     4.903169    1.589851    9.567270    ( 0.0000,  0.0000,  2.0000)
   3 Cr     7.574814    1.050199    9.340811    ( 0.0000,  0.0000,  0.0000)
   4 Ni    10.195964    0.756817   10.515568    ( 0.0000,  0.0000,  1.5000)
   5 Cr    14.467967    3.053142   10.545958    ( 0.0000,  0.0000,  0.0000)
   6 Fe     4.103399    3.456461   11.180111    ( 0.0000,  0.0000,  2.0000)
   7 Co     6.435423    3.475374   10.267325    ( 0.0000,  0.0000,  2.1000)
   8 Fe     8.800416    3.019288    9.577720    ( 0.0000,  0.0000,  2.0000)
   9 Ni    11.065499    3.188446   10.231066    ( 0.0000,  0.0000,  1.5000)
  10 Ni    14.897211    5.618566   10.460534    ( 0.0000,  0.0000,  1.5000)
  11 Cr     5.175410    5.540448   10.698265    ( 0.0000,  0.0000,  0.0000)
  12 Co     7.935949    5.245700   10.289374    ( 0.0000,  0.0000,  2.1000)
  13 Cr    10.299607    5.737500   10.408655    ( 0.0000,  0.0000,  0.0000)
  14 Cr    12.509221    5.533177   10.102011    ( 0.0000,  0.0000,  0.0000)
  15 Ni    16.164715    7.557453    9.889544    ( 0.0000,  0.0000,  1.5000)
  16 Co     6.670445    7.434766   11.273918    ( 0.0000,  0.0000,  2.1000)
  17 Al     8.677700    7.745231    9.710911    ( 0.0000,  0.0000,  0.0000)
  18 Co    11.306308    7.841643   10.171779    ( 0.0000,  0.0000,  2.1000)
  19 Fe    13.793420    7.776337    9.636617    ( 0.0000,  0.0000,  2.0000)
  20 Cr    17.730427    9.468684   10.372444    ( 0.0000,  0.0000,  0.0000)
  21 Fe     7.768033    9.802368   10.810870    ( 0.0000,  0.0000,  2.0000)
  22 Co    10.127681   10.104243    9.800960    ( 0.0000,  0.0000,  2.1000)
  23 Al    12.345897    9.972437    9.134525    ( 0.0000,  0.0000,  0.0000)
  24 Ni    15.073607    9.854787    9.003271    ( 0.0000,  0.0000,  1.5000)
  25 Fe     0.068246    0.003623   12.640174    ( 0.0000,  0.0000,  2.0000)
  26 Fe     2.635947   -0.054240   12.765477    ( 0.0000,  0.0000,  2.0000)
  27 Fe     4.883737   -0.090796   11.702693    ( 0.0000,  0.0000,  2.0000)
  28 Cr    13.874482   10.931532   11.558693    ( 0.0000,  0.0000,  0.0000)
  29 Fe    16.433490   10.387685   12.573641    ( 0.0000,  0.0000,  2.0000)
  30 Fe    13.799050    2.144751   12.809558    ( 0.0000,  0.0000,  2.0000)
  31 Cr     3.899365    1.930258   13.259421    ( 0.0000,  0.0000,  0.0000)
  32 Cr     6.014190    1.993517   12.074864    ( 0.0000,  0.0000,  0.0000)
  33 Al     8.666622    2.239903   12.104304    ( 0.0000,  0.0000,  0.0000)
  34 Fe    11.244783    2.066405   12.446878    ( 0.0000,  0.0000,  2.0000)
  35 Fe    14.820125    4.484989   12.703222    ( 0.0000,  0.0000,  2.0000)
  36 Al     5.047836    4.340726   13.151276    ( 0.0000,  0.0000,  0.0000)
  37 Cr     7.298781    4.520950   12.293604    ( 0.0000,  0.0000,  0.0000)
  38 Ni     9.926847    4.121130   12.014466    ( 0.0000,  0.0000,  1.5000)
  39 Fe    12.296869    4.337462   12.012616    ( 0.0000,  0.0000,  2.0000)
  40 Ni    16.205792    6.577104   12.136626    ( 0.0000,  0.0000,  1.5000)
  41 Co     6.644849    6.172106   13.553345    ( 0.0000,  0.0000,  2.1000)
  42 Fe     8.859292    6.482293   12.077313    ( 0.0000,  0.0000,  2.0000)
  43 Ni    11.134547    6.431103   12.455042    ( 0.0000,  0.0000,  1.5000)
  44 Co    13.574920    6.622665   12.424843    ( 0.0000,  0.0000,  2.1000)
  45 Al     5.329685    8.638743   12.815733    ( 0.0000,  0.0000,  0.0000)
  46 Ni     7.815884    8.502431   12.873536    ( 0.0000,  0.0000,  1.5000)
  47 Fe     9.893769    8.660538   11.939574    ( 0.0000,  0.0000,  2.0000)
  48 Co    12.545151    8.843495   11.862688    ( 0.0000,  0.0000,  2.1000)
  49 Al    15.098207    8.833603   11.652833    ( 0.0000,  0.0000,  0.0000)
  50 Co     1.299256    0.820866   14.835097    ( 0.0000,  0.0000,  2.1000)
  51 Ni     4.114476    0.732871   15.454160    ( 0.0000,  0.0000,  1.5000)
  52 Cr     6.408011    0.641920   14.242241    ( 0.0000,  0.0000,  0.0000)
  53 Co     8.965903    0.735397   14.033373    ( 0.0000,  0.0000,  2.1000)
  54 Ni    11.215559    0.877537   14.719072    ( 0.0000,  0.0000,  1.5000)
  55 Ni     2.420105    2.902463   14.832600    ( 0.0000,  0.0000,  1.5000)
  56 Ni     5.332442    2.711080   15.057219    ( 0.0000,  0.0000,  1.5000)
  57 Cr     7.676053    3.247501   14.535907    ( 0.0000,  0.0000,  0.0000)
  58 Ni     9.865487    2.876200   14.272524    ( 0.0000,  0.0000,  1.5000)
  59 Fe    12.319549    2.973720   14.352640    ( 0.0000,  0.0000,  2.0000)
  60 Cr     3.610910    5.134013   14.935609    ( 0.0000,  0.0000,  0.0000)
  61 Cr     6.136910    4.713018   15.494611    ( 0.0000,  0.0000,  0.0000)
  62 Co     8.707177    5.295007   14.331831    ( 0.0000,  0.0000,  2.1000)
  63 Cr    11.219618    5.009250   14.569112    ( 0.0000,  0.0000,  0.0000)
  64 Cr    13.575962    5.147964   14.553199    ( 0.0000,  0.0000,  0.0000)
  65 Ni     5.232418    7.306216   15.381118    ( 0.0000,  0.0000,  1.5000)
  66 Fe     7.619467    7.012788   15.532387    ( 0.0000,  0.0000,  2.0000)
  67 Co     9.798838    7.377343   14.233946    ( 0.0000,  0.0000,  2.1000)
  68 Ni    12.748117    7.128268   14.515699    ( 0.0000,  0.0000,  1.5000)
  69 Co    15.310408    7.110296   14.194182    ( 0.0000,  0.0000,  2.1000)
  70 Co     6.475871    9.317307   15.002891    ( 0.0000,  0.0000,  2.1000)
  71 Cr     9.085019    9.435425   15.351110    ( 0.0000,  0.0000,  0.0000)
  72 Al    11.239479    9.473930   14.004163    ( 0.0000,  0.0000,  0.0000)
  73 Cr    13.491438    9.350824   14.152585    ( 0.0000,  0.0000,  0.0000)
  74 Al    16.151878    9.561606   14.811354    ( 0.0000,  0.0000,  0.0000)
  75 Fe    12.471683    1.689214   16.518540    ( 0.0000,  0.0000,  2.0000)
  76 Fe     3.028577    1.427762   17.262882    ( 0.0000,  0.0000,  2.0000)
  77 Cr     5.314193    1.500905   17.613354    ( 0.0000,  0.0000,  0.0000)
  78 Co     7.379931    1.648206   16.408267    ( 0.0000,  0.0000,  2.1000)
  79 Cr    10.003500    1.511396   16.890875    ( 0.0000,  0.0000,  0.0000)
  80 Co    13.732642    3.601185   16.708866    ( 0.0000,  0.0000,  2.1000)
  81 Cr     3.742094    4.008451   17.163233    ( 0.0000,  0.0000,  0.0000)
  82 Ni     6.434024    3.703956   17.729142    ( 0.0000,  0.0000,  1.5000)
  83 Fe     9.059747    3.565883   16.387669    ( 0.0000,  0.0000,  2.0000)
  84 Ni    11.378689    3.675191   16.675931    ( 0.0000,  0.0000,  1.5000)
  85 Ni    15.109894    6.111365   16.957812    ( 0.0000,  0.0000,  1.5000)
  86 Al     5.169805    6.196645   17.434849    ( 0.0000,  0.0000,  0.0000)
  87 Cr     7.585584    5.530010   17.318167    ( 0.0000,  0.0000,  0.0000)
  88 Cr     9.811420    5.863560   16.569635    ( 0.0000,  0.0000,  0.0000)
  89 Co    12.670331    5.765596   16.801921    ( 0.0000,  0.0000,  2.1000)
  90 Fe    16.000438    8.090744   17.099044    ( 0.0000,  0.0000,  2.0000)
  91 Co     6.402401    8.453978   17.319731    ( 0.0000,  0.0000,  2.1000)
  92 Co     9.002129    7.978171   17.555780    ( 0.0000,  0.0000,  2.1000)
  93 Al    11.020269    7.930852   16.280515    ( 0.0000,  0.0000,  0.0000)
  94 Ni    13.721249    8.030007   16.450805    ( 0.0000,  0.0000,  1.5000)
  95 Ni    17.480032   10.188260   16.802213    ( 0.0000,  0.0000,  1.5000)
  96 Ni     7.577482   10.361159   16.932225    ( 0.0000,  0.0000,  1.5000)
  97 Ni    10.301835   10.058346   17.256852    ( 0.0000,  0.0000,  1.5000)
  98 Fe    12.499441   10.151038   16.382648    ( 0.0000,  0.0000,  2.0000)
  99 Co    15.054544   10.157017   16.937843    ( 0.0000,  0.0000,  2.1000)
 100 Co    -0.154612    0.385833   18.814453    ( 0.0000,  0.0000,  2.1000)
 101 Co     2.552040    0.170703   19.373839    ( 0.0000,  0.0000,  2.1000)
 102 Cr     5.073219   -0.109634   19.425747    ( 0.0000,  0.0000,  0.0000)
 103 Co    13.616229   10.938870   18.447232    ( 0.0000,  0.0000,  2.1000)
 104 Ni    15.874262   11.305607   19.143892    ( 0.0000,  0.0000,  1.5000)
 105 Fe     0.974550    2.586446   19.001655    ( 0.0000,  0.0000,  2.0000)
 106 Fe     3.862333    2.361118   19.519892    ( 0.0000,  0.0000,  2.0000)
 107 Co     6.213394    2.076782   20.024297    ( 0.0000,  0.0000,  2.1000)
 108 Al     8.488241    2.634127   19.464334    ( 0.0000,  0.0000,  0.0000)
 109 Fe    11.012589    2.417845   18.781993    ( 0.0000,  0.0000,  2.0000)
 110 Fe     2.191291    4.411441   18.962634    ( 0.0000,  0.0000,  2.0000)
 111 Cr     4.932206    4.465533   19.362534    ( 0.0000,  0.0000,  0.0000)
 112 Cr     7.464097    4.928199   19.668401    ( 0.0000,  0.0000,  0.0000)
 113 Fe     9.626542    4.564823   18.673856    ( 0.0000,  0.0000,  2.0000)
 114 Co    12.259122    4.545123   18.786115    ( 0.0000,  0.0000,  2.1000)
 115 Fe    16.109226    6.413832   19.146227    ( 0.0000,  0.0000,  2.0000)
 116 Ni     5.954058    7.271947   19.426058    ( 0.0000,  0.0000,  1.5000)
 117 Ni     8.676520    6.878395   19.598081    ( 0.0000,  0.0000,  1.5000)
 118 Co    11.093462    6.592118   18.513596    ( 0.0000,  0.0000,  2.1000)
 119 Cr    13.685579    6.563825   18.829875    ( 0.0000,  0.0000,  0.0000)
 120 Fe     4.650489    9.182528   19.138864    ( 0.0000,  0.0000,  2.0000)
 121 Co     7.578137    9.196813   19.384002    ( 0.0000,  0.0000,  2.1000)
 122 Ni    10.020607    8.819413   19.459347    ( 0.0000,  0.0000,  1.5000)
 123 Cr    12.208259    8.573920   18.499558    ( 0.0000,  0.0000,  0.0000)
 124 Co    14.429649    8.800457   18.622966    ( 0.0000,  0.0000,  2.1000)

Unit cell:
           periodic     x           y           z      points  spacing
  1. axis:    yes   12.530300    0.000000    0.000000    56     0.1938
  2. axis:    yes    6.259130   10.841100    0.000000    56     0.1936
  3. axis:    no     0.000000    0.000000   29.353100   128     0.2293

  Lengths:  12.530300  12.518233  29.353100
  Angles:   90.000000  90.000000  59.999929

Effective grid spacing dv^(1/3) = 0.2150

     iter     time        total  log10-change:  magmom
                         energy  eigst   dens
iter:   1 13:35:21 -1179.362735                  +159.1296
iter:   2 13:37:43 -1488.762260  +0.18  -1.09    +86.7659
iter:   3 13:40:06 -3640.499861  +1.45  -0.86    +59.8800
iter:   4 13:42:28  -989.435159  +0.45  -0.51    +32.5582
iter:   5 13:44:50  -983.167274  +0.16  -1.19    +27.9052
iter:   6 13:47:12  -982.041571  -0.24  -1.21    +25.6906
iter:   7 13:49:33  -962.581180  -0.91  -1.22    +25.0180
iter:   8 13:51:55  -947.789614  -1.11  -1.24    +25.9656
iter:   9 13:54:16 -1350.707514  -0.75  -1.28    +27.6223
iter:  10 13:56:38  -985.755238  -0.87  -0.92    +25.7360
iter:  11 13:59:01  -949.256149  -1.55  -1.20    +23.4374
iter:  12 14:01:22  -940.086341  -1.61  -1.33    +25.3585
iter:  13 14:03:44  -941.901029  -1.60  -1.36    +26.5768
iter:  14 14:06:06  -928.609792  -1.71  -1.36    +29.1685
iter:  15 14:08:29  -931.486413  -1.37  -1.42    +31.3483
iter:  16 14:10:51  -949.718677  -1.66  -1.42    +33.2247
iter:  17 14:13:13  -996.137035  -1.52  -1.35    +34.9270
iter:  18 14:15:35  -926.103789  -1.71  -1.21    +33.9365
iter:  19 14:17:57  -929.489922  -1.91  -1.50    +35.4490
iter:  20 14:20:15  -921.188363  -2.09  -1.48    +38.2404
iter:  21 14:22:31  -915.505650  -2.49  -1.54    +42.0658
iter:  22 14:24:47  -919.119261  -2.21  -1.63    +46.9492
iter:  23 14:27:03  -919.823735  -2.26  -1.61    +49.1617
iter:  24 14:29:19  -929.888041  -1.89  -1.63    +53.2067
iter:  25 14:31:35  -946.668807  -1.90  -1.60    +54.1096
iter:  26 14:33:51  -951.402057  -1.51  -1.43    +55.9544
iter:  27 14:36:07  -919.203162  -2.02  -1.45    +54.6931
iter:  28 14:38:24  -919.114440  -2.42  -1.81    +56.9049
iter:  29 14:40:40  -918.796132  -2.35  -1.88    +59.1484
iter:  30 14:42:56  -920.353723  -2.59  -1.88    +61.4833
iter:  31 14:45:13  -918.734113  -2.73  -1.86    +64.0800
iter:  32 14:47:29  -919.647575  -2.85  -2.03    +66.3895
iter:  33 14:49:45  -920.245435  -2.78  -2.05    +69.0738
iter:  34 14:52:02  -924.221414  -2.67  -2.11    +70.9213
iter:  35 14:54:18  -922.080925  -2.61  -1.89    +71.5067
iter:  36 14:56:34  -921.972796  -2.69  -2.06    +72.3735
iter:  37 14:58:50  -921.723348  -2.98  -2.10    +73.5583
iter:  38 15:01:06  -921.634823  -3.01  -2.18    +75.0328
iter:  39 15:03:22  -921.706960c -3.48  -2.22    +75.3972
iter:  40 15:05:38  -922.162252  -3.23  -2.27    +76.3642
iter:  41 15:07:53  -921.816640  -3.60  -2.20    +76.7437
iter:  42 15:10:09  -922.070631  -3.37  -2.32    +77.4023
iter:  43 15:12:25  -922.110702  -3.42  -2.32    +77.7890
iter:  44 15:14:40  -922.227041  -3.15  -2.38    +78.6447
iter:  45 15:16:57  -922.604738  -3.26  -2.47    +78.8679
iter:  46 15:19:12  -922.672363  -3.19  -2.33    +79.2816
iter:  47 15:21:28  -922.469211  -3.44  -2.38    +79.5119
iter:  48 15:23:44  -922.526111  -3.67  -2.52    +80.3074
iter:  49 15:26:00  -922.574311c -3.71  -2.54    +80.9702
iter:  50 15:28:16  -922.584821c -4.06  -2.59    +81.2698
iter:  51 15:30:32  -922.724522  -3.80  -2.65    +82.0409
iter:  52 15:32:48  -927.274914  -2.78  -2.62    +83.4571
iter:  53 15:35:03  -922.862155  -3.17  -1.91    +82.6866
iter:  54 15:37:19  -922.898430  -3.91  -2.61    +83.4620
iter:  55 15:39:35  -922.955018c -3.85  -2.69    +83.6876
iter:  56 15:41:50  -923.231529  -3.57  -2.67    +83.9378
iter:  57 15:44:05  -923.152414  -4.09  -2.40    +84.1346
iter:  58 15:46:21  -923.796571  -3.24  -2.47    +84.2079
iter:  59 15:48:37  -923.119607  -3.54  -2.25    +84.1663
iter:  60 15:50:53  -923.142871  -4.20  -2.51    +84.1714
iter:  61 15:53:09  -923.042671c -4.04  -2.52    +84.4115
iter:  62 15:55:25  -922.971829  -4.20  -2.63    +84.4443
iter:  63 15:57:40  -923.021120c -4.47  -2.80    +84.4269
iter:  64 15:59:56  -923.123023  -3.80  -2.70    +84.5508
iter:  65 16:02:12  -923.077355c -4.02  -2.57    +84.5592
iter:  66 16:04:28  -922.993313  -4.54  -2.64    +84.6583
iter:  67 16:06:44  -922.971077c -4.65  -2.85    +84.7174
iter:  68 16:09:00  -922.983708c -4.66  -3.00    +84.7241
iter:  69 16:11:16  -922.992836c -4.72  -2.98    +84.8170
iter:  70 16:13:31  -923.013143c -4.45  -3.05    +84.9689
iter:  71 16:15:47  -923.033381c -4.48  -3.03    +84.9885
iter:  72 16:18:03  -923.052296c -4.89  -2.95    +85.0358
iter:  73 16:20:18  -923.079772c -5.00  -2.88    +85.0916
iter:  74 16:22:34  -923.056231c -4.69  -2.78    +85.1232
iter:  75 16:24:50  -923.056416c -4.74  -2.94    +85.1399
iter:  76 16:27:06  -923.040110c -4.85  -2.94    +85.1863
iter:  77 16:29:21  -923.066433c -4.18  -3.09    +85.2046
iter:  78 16:31:36  -923.050444c -4.54  -2.91    +85.1770
iter:  79 16:33:51  -923.046058c -4.68  -3.00    +85.1711
iter:  80 16:36:07  -923.034774c -4.98  -3.05    +85.1762
iter:  81 16:38:23  -923.042682c -4.88  -3.26    +85.2300
iter:  82 16:40:38  -923.050004c -5.02  -3.22    +85.2309
iter:  83 16:42:54  -923.038943c -5.13  -3.10    +85.2377
iter:  84 16:45:10  -923.042048c -5.27  -3.43    +85.2994
iter:  85 16:47:25  -923.040045c -5.55  -3.34    +85.3176
iter:  86 16:49:40  -923.042724c -5.63  -3.49    +85.3506
iter:  87 16:51:56  -923.042098c -5.77  -3.40    +85.3921
iter:  88 16:54:11  -923.042169c -5.62  -3.51    +85.4296
iter:  89 16:56:27  -923.043268c -5.62  -3.55    +85.4592
iter:  90 16:58:43  -923.044935c -5.70  -3.61    +85.4993
iter:  91 17:00:59  -923.043625c -6.04  -3.45    +85.5147
iter:  92 17:03:15  -923.044492c -5.88  -3.64    +85.5393
iter:  93 17:05:30  -923.044646c -5.87  -3.63    +85.5569
iter:  94 17:07:46  -923.044908c -5.69  -3.69    +85.5715
iter:  95 17:10:01  -923.044780c -5.83  -3.70    +85.5907
iter:  96 17:12:16  -923.045026c -6.03  -3.84    +85.6120
iter:  97 17:14:32  -923.045742c -6.16  -3.98    +85.6388
iter:  98 17:16:51  -923.045934c -6.32  -3.85    +85.6514
iter:  99 17:19:10  -923.046298c -6.46  -3.97    +85.6702
iter: 100 17:21:29  -923.047710c -5.77  -3.96    +85.7266
iter: 101 17:23:48  -923.046427c -6.04  -3.86    +85.6660
iter: 102 17:26:09  -923.048772c -5.59  -3.87    +85.7648
iter: 103 17:28:28  -923.047733c -6.18  -3.75    +85.7364
iter: 104 17:30:48  -923.049662c -5.96  -3.79    +85.7748
iter: 105 17:33:11  -923.049298c -6.23  -3.59    +85.7768
iter: 106 17:35:32  -923.049097c -6.22  -3.70    +85.7969
iter: 107 17:37:54  -923.050097c -5.70  -3.80    +85.8186
iter: 108 17:40:15  -923.049109c -6.22  -3.61    +85.8226
iter: 109 17:42:34  -923.063028c -5.32  -3.77    +85.8338
iter: 110 17:44:52  -923.054037c -5.24  -3.14    +85.8326
iter: 111 17:47:10  -923.050325c -5.50  -3.38    +85.8305
iter: 112 17:49:28  -923.049996c -6.12  -3.71    +85.8327
iter: 113 17:51:47  -923.050486c -6.28  -3.81    +85.8521
iter: 114 17:54:05  -923.050457c -6.36  -3.78    +85.8532
iter: 115 17:56:24  -923.050620c -6.63  -3.87    +85.8577
iter: 116 17:58:44  -923.052311c -6.05  -3.87    +85.8671
iter: 117 18:01:03  -923.051347c -6.12  -3.56    +85.8732
iter: 118 18:03:22  -923.051077c -6.39  -3.67    +85.8769
iter: 119 18:05:40  -923.051084c -6.29  -3.83    +85.8747
iter: 120 18:07:58  -923.051176c -6.48  -3.90    +85.8826
iter: 121 18:10:15  -923.051398c -6.50  -3.89    +85.8904
iter: 122 18:12:33  -923.052991c -6.20  -3.82    +85.8894
iter: 123 18:14:52  -923.052908c -5.92  -3.57    +85.8906
iter: 124 18:17:11  -923.051706c -6.48  -3.61    +85.8991
iter: 125 18:19:30  -923.051947c -6.31  -3.86    +85.9246
iter: 126 18:21:50  -923.052159c -6.26  -3.96    +85.9118
iter: 127 18:24:08  -923.052608c -6.52  -3.85    +85.9153
iter: 128 18:26:26  -923.052651c -6.25  -3.80    +85.9320
iter: 129 18:28:45  -923.065576c -5.32  -3.83    +85.9348
iter: 130 18:31:04  -923.052323c -5.75  -3.15    +85.9332
iter: 131 18:33:24  -923.052272c -6.28  -4.03c   +85.9271
iter: 132 18:35:44  -923.052357c -6.49  -4.08c   +85.9415
iter: 133 18:38:05  -923.052243c -6.93  -4.16c   +85.9443
iter: 134 18:40:25  -923.052307c -7.26  -4.20c   +85.9404
iter: 135 18:42:47  -923.052865c -6.52  -4.26c   +85.9367
iter: 136 18:45:06  -923.052295c -7.15  -3.91    +85.9392
iter: 137 18:47:24  -923.052341c -7.14  -4.35c   +85.9365
iter: 138 18:49:42  -923.052384c -7.24  -4.24c   +85.9372
iter: 139 18:52:01  -923.052621c -6.87  -4.40c   +85.9372
iter: 140 18:54:19  -923.052524c -6.98  -4.24c   +85.9364
iter: 141 18:56:37  -923.052893c -6.67  -4.32c   +85.9363
iter: 142 18:58:55  -923.053151c -6.48  -3.88    +85.9346
iter: 143 19:01:15  -923.052635c -7.07  -3.89    +85.9416
iter: 144 19:03:36  -923.052574c -7.24  -4.46c   +85.9367
iter: 145 19:05:56  -923.052583c -7.63c -4.50c   +85.9397

Converged after 145 iterations.

Dipole moment: (77.648222, -4.099169, -0.144249) |e|*Ang

Total magnetic moment: (0.000000, 0.000000, 85.939703)
Local magnetic moments:
   0 Al ( 0.000000,  0.000000, -0.013450)
   1 Ni ( 0.000000,  0.000000,  0.290183)
   2 Fe ( 0.000000,  0.000000,  2.927853)
   3 Cr ( 0.000000,  0.000000, -2.755961)
   4 Ni ( 0.000000,  0.000000,  0.228383)
   5 Cr ( 0.000000,  0.000000, -2.696152)
   6 Fe ( 0.000000,  0.000000,  1.922715)
   7 Co ( 0.000000,  0.000000,  0.970589)
   8 Fe ( 0.000000,  0.000000,  2.775674)
   9 Ni ( 0.000000,  0.000000,  0.358218)
  10 Ni ( 0.000000,  0.000000,  0.289697)
  11 Cr ( 0.000000,  0.000000, -2.786621)
  12 Co ( 0.000000,  0.000000,  0.886312)
  13 Cr ( 0.000000,  0.000000,  0.999452)
  14 Cr ( 0.000000,  0.000000, -2.369310)
  15 Ni ( 0.000000,  0.000000,  0.228983)
  16 Co ( 0.000000,  0.000000,  1.226279)
  17 Al ( 0.000000,  0.000000, -0.048440)
  18 Co ( 0.000000,  0.000000,  1.106927)
  19 Fe ( 0.000000,  0.000000,  2.842909)
  20 Cr ( 0.000000,  0.000000, -3.053880)
  21 Fe ( 0.000000,  0.000000,  2.353026)
  22 Co ( 0.000000,  0.000000,  1.429080)
  23 Al ( 0.000000,  0.000000, -0.032441)
  24 Ni ( 0.000000,  0.000000,  0.188822)
  25 Fe ( 0.000000,  0.000000,  2.351837)
  26 Fe ( 0.000000,  0.000000,  2.365307)
  27 Fe ( 0.000000,  0.000000,  2.269734)
  28 Cr ( 0.000000,  0.000000,  2.162911)
  29 Fe ( 0.000000,  0.000000,  1.734036)
  30 Fe ( 0.000000,  0.000000,  2.282542)
  31 Cr ( 0.000000,  0.000000, -1.613028)
  32 Cr ( 0.000000,  0.000000, -0.934832)
  33 Al ( 0.000000,  0.000000, -0.013018)
  34 Fe ( 0.000000,  0.000000,  2.367262)
  35 Fe ( 0.000000,  0.000000,  2.239629)
  36 Al ( 0.000000,  0.000000, -0.001172)
  37 Cr ( 0.000000,  0.000000,  0.727154)
  38 Ni ( 0.000000,  0.000000,  0.252753)
  39 Fe ( 0.000000,  0.000000,  2.411863)
  40 Ni ( 0.000000,  0.000000,  0.172631)
  41 Co ( 0.000000,  0.000000,  0.438157)
  42 Fe ( 0.000000,  0.000000,  1.788035)
  43 Ni ( 0.000000,  0.000000,  0.410853)
  44 Co ( 0.000000,  0.000000,  1.564540)
  45 Al ( 0.000000,  0.000000, -0.030738)
  46 Ni ( 0.000000,  0.000000,  0.558940)
  47 Fe ( 0.000000,  0.000000,  2.373997)
  48 Co ( 0.000000,  0.000000,  1.305985)
  49 Al ( 0.000000,  0.000000, -0.042899)
  50 Co ( 0.000000,  0.000000,  1.639872)
  51 Ni ( 0.000000,  0.000000,  0.142968)
  52 Cr ( 0.000000,  0.000000, -1.708391)
  53 Co ( 0.000000,  0.000000,  1.277596)
  54 Ni ( 0.000000,  0.000000,  0.443355)
  55 Ni ( 0.000000,  0.000000,  0.320390)
  56 Ni ( 0.000000,  0.000000, -0.031953)
  57 Cr ( 0.000000,  0.000000, -1.404897)
  58 Ni ( 0.000000,  0.000000,  0.203463)
  59 Fe ( 0.000000,  0.000000,  1.989620)
  60 Cr ( 0.000000,  0.000000, -2.197421)
  61 Cr ( 0.000000,  0.000000,  1.479752)
  62 Co ( 0.000000,  0.000000,  0.813378)
  63 Cr ( 0.000000,  0.000000, -1.970219)
  64 Cr ( 0.000000,  0.000000,  0.886157)
  65 Ni ( 0.000000,  0.000000,  0.304587)
  66 Fe ( 0.000000,  0.000000,  2.193988)
  67 Co ( 0.000000,  0.000000,  0.677861)
  68 Ni ( 0.000000,  0.000000,  0.166403)
  69 Co ( 0.000000,  0.000000,  1.286224)
  70 Co ( 0.000000,  0.000000,  1.530981)
  71 Cr ( 0.000000,  0.000000, -2.347721)
  72 Al ( 0.000000,  0.000000, -0.018590)
  73 Cr ( 0.000000,  0.000000,  2.022899)
  74 Al ( 0.000000,  0.000000, -0.043991)
  75 Fe ( 0.000000,  0.000000,  2.498624)
  76 Fe ( 0.000000,  0.000000,  2.565423)
  77 Cr ( 0.000000,  0.000000, -2.133037)
  78 Co ( 0.000000,  0.000000,  1.103938)
  79 Cr ( 0.000000,  0.000000, -2.245699)
  80 Co ( 0.000000,  0.000000,  1.506554)
  81 Cr ( 0.000000,  0.000000,  2.138076)
  82 Ni ( 0.000000,  0.000000,  0.027975)
  83 Fe ( 0.000000,  0.000000,  1.986546)
  84 Ni ( 0.000000,  0.000000,  0.525173)
  85 Ni ( 0.000000,  0.000000,  0.334928)
  86 Al ( 0.000000,  0.000000, -0.029987)
  87 Cr ( 0.000000,  0.000000, -1.829297)
  88 Cr ( 0.000000,  0.000000,  0.965560)
  89 Co ( 0.000000,  0.000000,  1.381535)
  90 Fe ( 0.000000,  0.000000,  2.403973)
  91 Co ( 0.000000,  0.000000,  1.685161)
  92 Co ( 0.000000,  0.000000,  1.254940)
  93 Al ( 0.000000,  0.000000, -0.015025)
  94 Ni ( 0.000000,  0.000000,  0.315620)
  95 Ni ( 0.000000,  0.000000,  0.451862)
  96 Ni ( 0.000000,  0.000000,  0.499889)
  97 Ni ( 0.000000,  0.000000,  0.278134)
  98 Fe ( 0.000000,  0.000000,  2.471716)
  99 Co ( 0.000000,  0.000000,  1.336526)
 100 Co ( 0.000000,  0.000000,  1.813749)
 101 Co ( 0.000000,  0.000000,  1.698870)
 102 Cr ( 0.000000,  0.000000,  2.372348)
 103 Co ( 0.000000,  0.000000,  1.484954)
 104 Ni ( 0.000000,  0.000000,  0.465124)
 105 Fe ( 0.000000,  0.000000,  2.763623)
 106 Fe ( 0.000000,  0.000000,  2.654511)
 107 Co ( 0.000000,  0.000000,  1.422948)
 108 Al ( 0.000000,  0.000000, -0.051260)
 109 Fe ( 0.000000,  0.000000,  2.453474)
 110 Fe ( 0.000000,  0.000000,  2.164629)
 111 Cr ( 0.000000,  0.000000, -2.540457)
 112 Cr ( 0.000000,  0.000000,  2.430148)
 113 Fe ( 0.000000,  0.000000,  1.922303)
 114 Co ( 0.000000,  0.000000,  1.609239)
 115 Fe ( 0.000000,  0.000000,  2.435350)
 116 Ni ( 0.000000,  0.000000,  0.467559)
 117 Ni ( 0.000000,  0.000000,  0.464066)
 118 Co ( 0.000000,  0.000000,  0.960087)
 119 Cr ( 0.000000,  0.000000, -2.446920)
 120 Fe ( 0.000000,  0.000000,  3.019781)
 121 Co ( 0.000000,  0.000000,  1.810771)
 122 Ni ( 0.000000,  0.000000,  0.212372)
 123 Cr ( 0.000000,  0.000000, -2.063593)
 124 Co ( 0.000000,  0.000000,  1.001189)

Energy contributions relative to reference atoms: (reference = -4103091.665053)

Kinetic:       +386.690189
Potential:     -384.833175
External:        +0.000000
XC:            -961.631021
Entropy (-ST):   -5.231315
Local:          +39.337082
--------------------------
Free energy:   -925.668241
Extrapolated:  -923.052583

Dipole-layer corrected work functions: 4.551635, 4.743785 eV

Spin contamination: 47.268488 electrons
Showing all kpts
                      Up                     Down
 Kpt  Band  Eigenvalues  Occupancy  Eigenvalues  Occupancy
  0   566      0.07025    0.99854      1.10543    0.02139
  0   567      0.08014    0.99839      1.12188    0.01820
  0   568      0.09099    0.99821      1.13713    0.01567
  0   569      0.10795    0.99787      1.14390    0.01466

  1   566      0.05128    0.99879      1.11641    0.01921
  1   567      0.06011    0.99868      1.12492    0.01767
  1   568      0.07763    0.99843      1.14002    0.01523
  1   569      0.08933    0.99823      1.14325    0.01475


Fermi level: 0.72310

No gap

Forces in eV/Ang:
  0 Al    0.08542    0.51555    0.31359
  1 Ni   -0.96147   -0.44512    1.21630
  2 Fe    0.97911   -0.36408    0.48642
  3 Cr    0.52945    1.23481    0.97372
  4 Ni   -0.82474    0.47226   -0.56512
  5 Cr   -1.40580    2.26753    0.02537
  6 Fe   -0.23463   -0.62114   -1.04709
  7 Co   -0.02401   -0.87393   -0.02285
  8 Fe    0.11177    0.85486    0.68548
  9 Ni    0.96366   -0.43474   -0.48133
 10 Ni   -0.09047   -0.59590   -0.07360
 11 Cr    0.77707   -0.02462   -0.63833
 12 Co    0.13428    0.41376   -0.69399
 13 Cr   -0.07873   -0.35052   -1.61002
 14 Cr    0.08218    0.03967   -0.12940
 15 Ni    0.49766    0.41885    0.03720
 16 Co   -0.25700   -0.89711   -1.71886
 17 Al    0.33031   -0.14379    0.33829
 18 Co   -0.06595    0.26575   -0.47314
 19 Fe   -0.30592   -0.01207    0.72043
 20 Cr   -0.25915   -0.07518   -0.10246
 21 Fe   -0.19236    0.25271   -0.05186
 22 Co   -0.78960   -1.68679   -0.39654
 23 Al    0.38490   -1.07270    0.39059
 24 Ni   -0.37395   -0.43067    1.42970
 25 Fe    0.63429   -0.12695    0.58872
 26 Fe   -0.08942   -0.17041    0.89065
 27 Fe    0.83375    0.87665    0.45329
 28 Cr   -1.01385    0.00692   -0.10575
 29 Fe    0.28807    2.82861   -0.30916
 30 Fe    0.37746   -0.10388   -1.41377
 31 Cr   -0.23620   -0.49349   -0.92574
 32 Cr    0.48467    0.57498   -0.23899
 33 Al   -0.35525   -0.36076   -0.07856
 34 Fe    0.08043   -0.65146   -0.41547
 35 Fe    0.88674   -0.40335   -0.07714
 36 Al   -0.29040   -0.08984    0.06517
 37 Cr    1.00699   -0.54010   -0.45620
 38 Ni   -0.90555    1.31065    1.39980
 39 Fe    1.43007   -0.32463    1.01877
 40 Ni    0.40251    0.22689    0.84163
 41 Co   -0.90627    1.29449   -0.75568
 42 Fe   -1.25258   -0.07386    1.09563
 43 Ni    1.25050    0.59151    0.52311
 44 Co    1.06297   -0.20889   -1.24269
 45 Al   -0.00765   -2.51119    1.16950
 46 Ni   -0.40577    0.49582    2.61198
 47 Fe    0.80443   -0.09763   -0.37015
 48 Co    0.21218   -0.56808    0.32577
 49 Al   -0.32837   -2.20603   -0.38312
 50 Co    0.54503   -1.10240   -0.15153
 51 Ni    0.02435   -0.76619   -1.74299
 52 Cr    0.82622    0.49040   -0.28634
 53 Co   -2.16693    0.21359    0.46204
 54 Ni    0.54730   -0.97848   -0.49011
 55 Ni    0.53855    0.49704    0.31503
 56 Ni   -0.88264   -0.54990    0.38762
 57 Cr   -1.89672   -0.76738   -0.91707
 58 Ni    1.31367    0.37303   -0.09639
 59 Fe    0.88071    0.23356    0.69391
 60 Cr    0.20916   -0.07130    1.24222
 61 Cr    0.83932    1.62104   -0.05089
 62 Co    0.30841   -0.99214    0.16225
 63 Cr   -0.35915    0.85113   -0.48644
 64 Cr    0.89706   -1.34487    0.44771
 65 Ni   -1.13679    0.06836   -1.00954
 66 Fe    0.58219    1.25104    0.15667
 67 Co    0.16632    0.51721    0.15209
 68 Ni   -2.25287    1.37471    0.23520
 69 Co   -0.71338    0.77452    0.76197
 70 Co    0.40865    0.71748   -0.27829
 71 Cr   -1.85484   -0.31741   -1.18936
 72 Al   -2.45114   -0.28394   -0.64007
 73 Cr    3.70288    0.57296   -0.47639
 74 Al    0.58403   -1.48709    0.76772
 75 Fe    0.83772   -1.46546    1.54381
 76 Fe   -2.16085    0.95994    0.90472
 77 Cr    0.16724   -0.28906    0.30291
 78 Co    0.29602   -0.35110   -0.34708
 79 Cr   -0.55565   -0.25973   -0.16289
 80 Co    0.78338    0.78061    0.69694
 81 Cr    1.20782   -1.15523   -0.62678
 82 Ni   -0.28754   -1.93889   -0.16485
 83 Fe   -1.46226    0.39148    0.74982
 84 Ni   -0.76639    0.98654    0.07942
 85 Ni   -0.98419   -1.71582   -0.81851
 86 Al    0.03730   -0.07252   -0.71161
 87 Cr    1.91164    1.91802    0.39912
 88 Cr   -0.11635   -0.58449   -0.34735
 89 Co   -0.73829    0.45904   -0.85885
 90 Fe    2.13444    0.84159   -0.36938
 91 Co    0.18613   -1.41252    0.44408
 92 Co   -1.24629   -0.06792   -0.54457
 93 Al    1.71371    0.03089   -0.45336
 94 Ni   -0.38550    0.29811   -0.19031
 95 Ni    0.24537    0.53325   -0.08116
 96 Ni    0.25204    0.85353    0.93366
 97 Ni   -0.42217   -0.27871    1.20647
 98 Fe    0.22810    0.73738    0.39397
 99 Co   -0.13614    1.22834   -1.45304
100 Co    0.06709   -0.28270   -0.14709
101 Co    0.04225    1.24925   -1.10320
102 Cr    0.44477    0.94803    0.27065
103 Co   -1.07816    1.36833    0.82866
104 Ni    0.34842   -0.45843   -0.74193
105 Fe    0.38978   -2.17033   -0.37357
106 Fe   -0.53295   -0.12583   -0.22529
107 Co   -0.48462    0.30275   -1.09275
108 Al   -0.05324   -1.28754   -0.66544
109 Fe   -0.32820   -0.10713    0.14586
110 Fe    0.76543    0.60004    0.16239
111 Cr   -0.25868   -0.20462    0.43634
112 Cr   -1.34339    0.08391    0.52604
113 Fe    1.18803    0.84050   -0.46863
114 Co   -0.39972   -0.02764   -0.26167
115 Fe   -0.27527    1.15874    0.88000
116 Ni    0.74147   -1.02055    0.12239
117 Ni   -0.01016   -0.10821   -0.53569
118 Co   -0.93437    0.04129    0.34352
119 Cr   -0.22612   -0.34837    0.34279
120 Fe   -0.02147    0.03398   -0.53510
121 Co   -0.98181   -1.02662   -0.81444
122 Ni   -0.27817   -0.18132    0.38174
123 Cr   -0.23564    1.60203   -0.33653
124 Co    1.08272   -0.17860    1.60801

Timing:                              incl.     excl.
-----------------------------------------------------------
Forces:                             36.717    36.717   0.2% |
Hamiltonian:                         1.500     0.011   0.0% |
 Atomic:                             0.365     0.001   0.0% |
  XC Correction:                     0.364     0.364   0.0% |
 Calculate atomic Hamiltonians:      0.416     0.416   0.0% |
 Communicate:                        0.297     0.297   0.0% |
 Initialize Hamiltonian:             0.000     0.000   0.0% |
 Poisson:                            0.085     0.085   0.0% |
 XC 3D grid:                         0.325     0.325   0.0% |
LCAO initialization:               252.028     0.545   0.0% |
 LCAO eigensolver:                  12.428     0.010   0.0% |
  Calculate projections:             0.000     0.000   0.0% |
  DenseAtomicCorrection:             0.000     0.000   0.0% |
  Distribute overlap matrix:         7.892     7.892   0.0% |
  Orbital Layouts:                   4.477     4.477   0.0% |
  Potential matrix:                  0.007     0.007   0.0% |
  Sum over cells:                    0.043     0.043   0.0% |
 LCAO to grid:                     237.182   237.182   1.2% |
 Set positions (LCAO WFS):           1.873     1.594   0.0% |
  Basic WFS set positions:           0.004     0.004   0.0% |
  Basis functions set positions:     0.001     0.001   0.0% |
  P tci:                             0.000     0.000   0.0% |
  ST tci:                            0.107     0.107   0.0% |
  mktci:                             0.167     0.167   0.0% |
PWDescriptor:                        0.093     0.093   0.0% |
SCF-cycle:                       20011.689   755.760   3.7% ||
 Davidson:                       18792.024  6136.744  30.2% |-----------|
  Apply H:                         341.558   336.300   1.7% ||
   HMM T:                            5.258     5.258   0.0% |
  Subspace diag:                  2103.880     0.046   0.0% |
   calc_h_matrix:                  877.724   544.588   2.7% ||
    Apply H:                       333.136   327.405   1.6% ||
     HMM T:                          5.731     5.731   0.0% |
   diagonalize:                    179.588   179.588   0.9% |
   rotate_psi:                    1046.522  1046.522   5.2% |-|
  calc. matrices:                 4805.308  4241.816  20.9% |-------|
   Apply H:                        563.491   552.421   2.7% ||
    HMM T:                          11.071    11.071   0.1% |
  diagonalize:                    3192.866  3192.866  15.7% |-----|
  rotate_psi:                     2211.668  2211.668  10.9% |---|
 Density:                          256.863     0.004   0.0% |
  Atomic density matrices:           3.447     3.447   0.0% |
  Mix:                              82.805    82.805   0.4% |
  Multipole moments:                 0.088     0.088   0.0% |
  Pseudo density:                  170.518   170.513   0.8% |
   Symmetrize density:               0.006     0.006   0.0% |
 Hamiltonian:                      190.144     1.446   0.0% |
  Atomic:                           53.256     0.181   0.0% |
   XC Correction:                   53.075    53.075   0.3% |
  Calculate atomic Hamiltonians:    63.697    63.697   0.3% |
  Communicate:                      20.082    20.082   0.1% |
  Poisson:                           4.909     4.909   0.0% |
  XC 3D grid:                       46.754    46.754   0.2% |
 Orthonormalize:                    16.899     0.001   0.0% |
  calc_s_matrix:                     2.075     2.075   0.0% |
  inverse-cholesky:                  0.731     0.731   0.0% |
  projections:                      10.428    10.428   0.1% |
  rotate_psi_s:                      3.664     3.664   0.0% |
Set symmetry:                        0.001     0.001   0.0% |
Other:                               6.874     6.874   0.0% |
-----------------------------------------------------------
Total:                                     20308.901 100.0%

Date: Mon Apr 17 19:06:37 2023
