
  ___ ___ ___ _ _ _  
 |   |   |_  | | | | 
 | | | | | . | | | | 
 |__ |  _|___|_____|  22.8.0
 |___|_|             

User:   c.zeng@d0014
Date:   Thu Apr 13 20:08:07 2023
Arch:   x86_64
Pid:    141016
CWD:    /home/c.zeng/projects/hea-corrosion/hea-mlp/data-curation/bulk-md/dft-jobs/35
Python: 3.8.1
gpaw:   /home/c.zeng/usr/installs/gpaw/source/gpaw-22.8.0/gpaw
_gpaw:  /home/c.zeng/usr/installs/gpaw/source/gpaw-22.8.0/
        _gpaw.cpython-38-x86_64-linux-gnu.so
ase:    /home/c.zeng/.local/lib/python3.8/site-packages/ase-3.22.1-py3.8.egg/ase (version 3.22.1)
numpy:  /shared/centos7/python/3.8.1/lib/python3.8/site-packages/numpy (version 1.17.4)
scipy:  /shared/centos7/python/3.8.1/lib/python3.8/site-packages/scipy (version 1.4.1)
libxc:  4.2.3
units:  Angstrom and eV
cores: 30
OpenMP: False
OMP_NUM_THREADS: 1

Input parameters:
  convergence: {energy: 0.0001}
  kpts: [2 2 2]
  maxiter: 666
  mode: {ecut: 350.0,
         name: pw}
  occupations: {fixmagmom: False,
                name: fermi-dirac,
                width: 0.1}
  spinpol: True
  xc: PBE

System changes: positions, numbers, cell, pbc, initial_charges, initial_magmoms 

Initialize ...

species:
  Cr:
    name: Chromium
    id: 33f258bda2ca9f93018e70263a35547b
    Z: 24.0
    valence: 6
    core: 18
    charge: 0.0
    file: /home/c.zeng/usr/data/gpaw-setups-0.9.20000/Cr.PBE.gz
    compensation charges: {type: gauss,
                           rc: 0.35,
                           lmax: 2}
    cutoffs: {filter: 2.14,
              core: 3.04}
    valence states:
      #              energy  rcut
      - 4s(1.00)    -4.007   1.164
      - 4p(0.00)    -0.989   1.217
      - 3d(5.00)    -2.913   1.111
      -  s          23.205   1.164
      -  p          26.223   1.217
      -  d          24.299   1.111
  
    # Using partial waves for Cr as LCAO basis

  Al:
    name: Aluminium
    id: 0292cae29f5d6237e50f6abdd43a7bdd
    Z: 13.0
    valence: 3
    core: 10
    charge: 0.0
    file: /home/c.zeng/usr/data/gpaw-setups-0.9.20000/Al.PBE.gz
    compensation charges: {type: gauss,
                           rc: 0.34,
                           lmax: 2}
    cutoffs: {filter: 1.91,
              core: 2.36}
    valence states:
      #              energy  rcut
      - 3s(2.00)    -7.753   1.085
      - 3p(1.00)    -2.712   1.085
      -  s          19.459   1.085
      -  p          24.499   1.085
      -  d           0.000   1.085
  
    # Using partial waves for Al as LCAO basis

  Co:
    name: Cobalt
    id: 339d20d5b0b93d2de9531a1bee871d91
    Z: 27.0
    valence: 9
    core: 18
    charge: 0.0
    file: /home/c.zeng/usr/data/gpaw-setups-0.9.20000/Co.PBE.gz
    compensation charges: {type: gauss,
                           rc: 0.32,
                           lmax: 2}
    cutoffs: {filter: 1.87,
              core: 2.55}
    valence states:
      #              energy  rcut
      - 4s(2.00)    -5.469   1.005
      - 4p(0.00)    -1.277   1.058
      - 3d(7.00)    -8.205   1.005
      -  s          21.742   1.005
      -  p          25.934   1.058
      -  d          19.007   1.005
  
    # Using partial waves for Co as LCAO basis

  Fe:
    name: Iron
    id: 37abbd8d6c3c35915a9b583b742da910
    Z: 26.0
    valence: 8
    core: 18
    charge: 0.0
    file: /home/c.zeng/usr/data/gpaw-setups-0.9.20000/Fe.PBE.gz
    compensation charges: {type: gauss,
                           rc: 0.33,
                           lmax: 2}
    cutoffs: {filter: 2.06,
              core: 2.67}
    valence states:
      #              energy  rcut
      - 4s(2.00)    -5.291   1.164
      - 4p(0.00)    -1.326   1.058
      - 3d(6.00)    -7.505   1.058
      -  s          21.920   1.164
      -  p          25.885   1.058
      -  d          19.706   1.058
  
    # Using partial waves for Fe as LCAO basis

  Ni:
    name: Nickel
    id: 0d9f38a9d6e76a2886f07bb4381f212b
    Z: 28.0
    valence: 16
    core: 12
    charge: 0.0
    file: /home/c.zeng/usr/data/gpaw-setups-0.9.20000/Ni.PBE.gz
    compensation charges: {type: gauss,
                           rc: 0.36,
                           lmax: 2}
    cutoffs: {filter: 2.14,
              core: 1.98}
    valence states:
      #              energy  rcut
      - 4s(2.00)    -5.642   1.164
      - 3p(6.00)   -71.394   1.207
      - 4p(0.00)    -1.226   1.207
      - 3d(8.00)    -8.875   1.138
      -  s          21.570   1.164
      -  d          18.337   1.138
  
    # Using partial waves for Ni as LCAO basis

Reference energy: -3699400.456887  # eV

Spin-polarized calculation.
Magnetic moment: 143.500000

Convergence criteria:
 Maximum [total energy] change in last 3 cyles: 0.0001 eV / electron
 Maximum integral of absolute [dens]ity change: 0.0001 electrons / valence electron
 Maximum integral of absolute [eigenst]ate change: 4e-08 eV^2 / valence electron
 Maximum number of scf [iter]ations: 666
 (Square brackets indicate name in SCF output, whereas a 'c' in
 the SCF output indicates the quantity has converged.)

Symmetries present (total): 1

  ( 1  0  0)
  ( 0  1  0)
  ( 0  0  1)

8 k-points: 2 x 2 x 2 Monkhorst-Pack grid
4 k-points in the irreducible part of the Brillouin zone
       k-points in crystal coordinates                weights
   0:     0.25000000   -0.25000000   -0.25000000          2/8
   1:     0.25000000   -0.25000000    0.25000000          2/8
   2:     0.25000000    0.25000000   -0.25000000          2/8
   3:     0.25000000    0.25000000    0.25000000          2/8

Wave functions: Plane wave expansion
  Cutoff energy: 350.000 eV
  Number of coefficients (min, max): 18052, 18052
  Pulay-stress correction: 0.000000 eV/Ang^3 (de/decut=0.000000)
  Using FFTW library
  ScaLapack parameters: grid=1x1, blocksize=None
  Wavefunction extrapolation:
    Improved wavefunction reuse through dual PAW basis 

Occupation numbers: Fermi-Dirac:
  width: 0.1000  # eV
 

Eigensolver
   Davidson(niter=2) 

Densities:
  Coarse grid: 48*48*48 grid
  Fine grid: 96*96*96 grid
  Total Charge: 0.000000 

Density mixing:
  Method: difference
  Backend: pulay
  Linear mixing parameter: 0.05
  old densities: 5
  Damping of long wavelength oscillations: 50 

Hamiltonian:
  XC and Coulomb potentials evaluated on a 96*96*96 grid
  Using the PBE Exchange-Correlation functional
  External potential:
    NoExternalPotential
 

XC parameters: PBE with 2 nearest neighbor stencil

Memory estimate:
  Process memory now: 238.71 MiB
  Calculator: 1062.64 MiB
    Density: 5.44 MiB
      Arrays: 2.05 MiB
      Localized functions: 2.57 MiB
      Mixer: 0.82 MiB
    Hamiltonian: 1.60 MiB
      Arrays: 1.52 MiB
      XC: 0.00 MiB
      Poisson: 0.00 MiB
      vbar: 0.08 MiB
    Wavefunctions: 1055.59 MiB
      Arrays psit_nG: 774.57 MiB
      Eigensolver: 270.45 MiB
      Projections: 5.49 MiB
      Projectors: 0.70 MiB
      PW-descriptor: 4.38 MiB

Total number of cores used: 30
Parallelization over k-points: 2
Domain decomposition: 5 x 3 x 1

Number of atoms: 108
Number of atomic orbitals: 1025
Number of bands in calculation: 703
Number of valence electrons: 1020
Bands to converge: occupied

... initialized

Initializing position-dependent things.

Density initialized from atomic densities
Creating initial wave functions:
  703 bands from LCAO basis set

        Cr------------------------.  
       /|           Cr       Cr   |  
      / |      Co      Al    Co   |  
     / Ni       Cr      Fe        |  
    /   |        Co      Cr       Cr 
   /    | NiFe    CrCFe    CrCo   |  
  / Ni Co   CCo      Ni Fe  Ni    |  
 *     FCo    NiNi    CoCo   Fe   |  
 |      |CCr   CoNiCo  Al CrFe    |  
 |   Fe | FeCoAl  Ni Ni  FeNiNi   |  
 |   FeCr Ni CoCo   FeFeCr        |  
 |      Ni  CrCoFe     NiNi    Cr |  
 |Co    |NCri  Co CrCo  CrFe     Ni  
 |      .-FeCrNi---CoCo----CrFe---.  
 |     /   NiFe       Ni         /   
 Fe   Fee      Alr      Ni    Cor    
 |   /   FCo             Cor   /     
 |Al/      Cre      Co        /      
 | /          Ni       Ni    /       
 |/            Fe           /        
 *-------Fe--------Cr------*         

Positions:
   0 Cr     0.234160   -0.118051   10.576564    ( 0.0000,  0.0000,  0.0000)
   1 Al    10.757981    1.787472    1.548534    ( 0.0000,  0.0000,  0.0000)
   2 Cr     1.751686   10.573039    1.989663    ( 0.0000,  0.0000,  0.0000)
   3 Co     1.748701    1.930258   10.371026    ( 0.0000,  0.0000,  2.1000)
   4 Fe     3.234210    0.310861    0.053742    ( 0.0000,  0.0000,  2.0000)
   5 Cr     3.613695    1.732807    1.754620    ( 0.0000,  0.0000,  0.0000)
   6 Ni     5.284374   10.691901    1.739712    ( 0.0000,  0.0000,  1.5000)
   7 Fe     5.465512    1.762136    0.069341    ( 0.0000,  0.0000,  2.0000)
   8 Cr     7.242103    0.212871    0.015915    ( 0.0000,  0.0000,  0.0000)
   9 Co     7.220911    1.720549    1.841982    ( 0.0000,  0.0000,  2.1000)
  10 Ni     8.941441   10.698110    1.937588    ( 0.0000,  0.0000,  1.5000)
  11 Fe     8.959944    1.771418   10.572800    ( 0.0000,  0.0000,  2.0000)
  12 Co    -0.141911    3.589782   10.499768    ( 0.0000,  0.0000,  2.1000)
  13 Co    -0.009779    5.111112    1.697194    ( 0.0000,  0.0000,  2.1000)
  14 Fe     1.669603    3.571591    1.791273    ( 0.0000,  0.0000,  2.0000)
  15 Fe     1.719156    5.275174    0.101652    ( 0.0000,  0.0000,  2.0000)
  16 Fe     3.663707    3.415231    0.213578    ( 0.0000,  0.0000,  2.0000)
  17 Fe     3.352675    5.288793    1.742015    ( 0.0000,  0.0000,  2.0000)
  18 Cr     5.348955    3.595247    1.892440    ( 0.0000,  0.0000,  0.0000)
  19 Co     5.091636    5.281304   -0.120385    ( 0.0000,  0.0000,  2.1000)
  20 Fe     7.267535    3.525867   10.634018    ( 0.0000,  0.0000,  2.0000)
  21 Ni     7.117727    5.250202    1.731530    ( 0.0000,  0.0000,  1.5000)
  22 Co     8.918396    3.456934    1.739829    ( 0.0000,  0.0000,  2.1000)
  23 Cr     8.900242    5.565416    0.025003    ( 0.0000,  0.0000,  0.0000)
  24 Cr    -0.118710    7.174221    0.279436    ( 0.0000,  0.0000,  0.0000)
  25 Ni    -0.015192    8.935301    1.829460    ( 0.0000,  0.0000,  1.5000)
  26 Fe     1.802074    7.162451    1.630886    ( 0.0000,  0.0000,  2.0000)
  27 Ni     1.774301    9.050876   10.735629    ( 0.0000,  0.0000,  1.5000)
  28 Co     3.703506    7.028102   -0.041238    ( 0.0000,  0.0000,  2.1000)
  29 Co     3.296762    9.016943    1.697767    ( 0.0000,  0.0000,  2.1000)
  30 Co     5.359268    7.049619    1.559655    ( 0.0000,  0.0000,  2.1000)
  31 Cr     5.344871    9.040180   -0.062911    ( 0.0000,  0.0000,  0.0000)
  32 Al     6.947796    7.219345   10.524620    ( 0.0000,  0.0000,  0.0000)
  33 Cr     7.233001    8.913249    1.728987    ( 0.0000,  0.0000,  0.0000)
  34 Cr     8.891201    7.302104    1.811347    ( 0.0000,  0.0000,  0.0000)
  35 Cr     9.037031    8.780689   10.661846    ( 0.0000,  0.0000,  0.0000)
  36 Fe    10.704856   10.698793    3.733789    ( 0.0000,  0.0000,  2.0000)
  37 Co    10.707878    1.638764    5.675817    ( 0.0000,  0.0000,  2.1000)
  38 Cr     1.618461   10.301218    5.598611    ( 0.0000,  0.0000,  0.0000)
  39 Fe     1.792694    1.694262    3.588735    ( 0.0000,  0.0000,  2.0000)
  40 Co     3.531352   10.707774    3.631611    ( 0.0000,  0.0000,  2.1000)
  41 Ni     3.478084    1.853265    5.351397    ( 0.0000,  0.0000,  1.5000)
  42 Ni     5.425158    0.010311    5.474345    ( 0.0000,  0.0000,  1.5000)
  43 Al     5.238643    1.766570    3.475545    ( 0.0000,  0.0000,  0.0000)
  44 Fe     7.069623   10.613395    3.537372    ( 0.0000,  0.0000,  2.0000)
  45 Co     7.125112    1.758818    5.445860    ( 0.0000,  0.0000,  2.1000)
  46 Fe     8.833580   10.620232    5.360692    ( 0.0000,  0.0000,  2.0000)
  47 Ni     8.910108    1.671814    3.506149    ( 0.0000,  0.0000,  1.5000)
  48 Fe    -0.123500    3.325357    3.606419    ( 0.0000,  0.0000,  2.0000)
  49 Fe    10.733209    5.568279    5.250240    ( 0.0000,  0.0000,  2.0000)
  50 Ni     1.832083    3.426527    5.351093    ( 0.0000,  0.0000,  1.5000)
  51 Ni     1.681146    5.390781    3.415729    ( 0.0000,  0.0000,  1.5000)
  52 Cr     3.416943    3.759339    3.644253    ( 0.0000,  0.0000,  0.0000)
  53 Co     3.372890    5.500370    5.244407    ( 0.0000,  0.0000,  2.1000)
  54 Fe     5.305744    3.514735    5.309658    ( 0.0000,  0.0000,  2.0000)
  55 Cr     5.397142    5.326498    3.704818    ( 0.0000,  0.0000,  0.0000)
  56 Co     7.159450    3.596753    3.446416    ( 0.0000,  0.0000,  2.1000)
  57 Fe     7.190652    5.461170    5.356234    ( 0.0000,  0.0000,  2.0000)
  58 Ni     8.863354    3.415764    5.202065    ( 0.0000,  0.0000,  1.5000)
  59 Fe     8.800484    5.306369    3.545269    ( 0.0000,  0.0000,  2.0000)
  60 Cr    -0.071085    7.084864    3.481068    ( 0.0000,  0.0000,  0.0000)
  61 Ni     0.007407    8.926279    5.559218    ( 0.0000,  0.0000,  1.5000)
  62 Fe     1.787992    7.232981    5.186859    ( 0.0000,  0.0000,  2.0000)
  63 Ni     1.444124    8.980703    3.642092    ( 0.0000,  0.0000,  1.5000)
  64 Co     3.591113    7.173763    3.520047    ( 0.0000,  0.0000,  2.1000)
  65 Co     3.416078    8.906794    5.017210    ( 0.0000,  0.0000,  2.1000)
  66 Ni     5.183798    6.965197    5.153831    ( 0.0000,  0.0000,  1.5000)
  67 Fe     5.320507    8.881183    3.454499    ( 0.0000,  0.0000,  2.0000)
  68 Ni     7.088078    7.043607    3.297660    ( 0.0000,  0.0000,  1.5000)
  69 Al     6.901528    8.616275    5.375746    ( 0.0000,  0.0000,  0.0000)
  70 Ni     8.877054    7.226834    5.494048    ( 0.0000,  0.0000,  1.5000)
  71 Fe     9.082149    9.141292    3.751214    ( 0.0000,  0.0000,  2.0000)
  72 Cr    -0.047768   10.364701    7.347463    ( 0.0000,  0.0000,  0.0000)
  73 Fe    10.534975    1.607326    8.935231    ( 0.0000,  0.0000,  2.0000)
  74 Fe     1.738307   10.757585    8.919120    ( 0.0000,  0.0000,  2.0000)
  75 Cr     1.854953    1.558251    7.002882    ( 0.0000,  0.0000,  0.0000)
  76 Cr     3.763797   10.702832    6.777789    ( 0.0000,  0.0000,  0.0000)
  77 Cr     3.365923    1.799989    8.727918    ( 0.0000,  0.0000,  0.0000)
  78 Al     5.250646    0.155139    8.871190    ( 0.0000,  0.0000,  0.0000)
  79 Co     5.328756    1.961299    7.133050    ( 0.0000,  0.0000,  2.1000)
  80 Cr     7.189235   -0.134061    7.242654    ( 0.0000,  0.0000,  0.0000)
  81 Co     7.055717    1.840008    9.011457    ( 0.0000,  0.0000,  2.1000)
  82 Co     8.719738   -0.255291    8.856581    ( 0.0000,  0.0000,  2.1000)
  83 Cr     8.815319    1.844432    6.988303    ( 0.0000,  0.0000,  0.0000)
  84 Ni    -0.015873    3.534971    7.115360    ( 0.0000,  0.0000,  1.5000)
  85 Ni     0.003047    5.288825    8.790535    ( 0.0000,  0.0000,  1.5000)
  86 Co     1.673435    3.740097    8.673668    ( 0.0000,  0.0000,  2.1000)
  87 Co     1.624050    5.463890    7.040138    ( 0.0000,  0.0000,  2.1000)
  88 Co     3.504189    3.647176    7.145084    ( 0.0000,  0.0000,  2.1000)
  89 Co     3.637929    5.311890    8.730987    ( 0.0000,  0.0000,  2.1000)
  90 Ni     5.116175    3.385554    9.016025    ( 0.0000,  0.0000,  1.5000)
  91 Ni     5.255684    5.230330    6.999419    ( 0.0000,  0.0000,  1.5000)
  92 Ni     7.175688    3.501942    6.994157    ( 0.0000,  0.0000,  1.5000)
  93 Ni     6.986716    5.252612    8.777020    ( 0.0000,  0.0000,  1.5000)
  94 Co     8.547717    3.626873    8.780649    ( 0.0000,  0.0000,  2.1000)
  95 Cr     8.958596    5.323090    6.959196    ( 0.0000,  0.0000,  0.0000)
  96 Fe     0.321787    7.234174    7.172755    ( 0.0000,  0.0000,  2.0000)
  97 Ni     0.123767    8.561225    9.182205    ( 0.0000,  0.0000,  1.5000)
  98 Ni     1.918018    6.733873    8.994581    ( 0.0000,  0.0000,  1.5000)
  99 Fe     1.970707    8.897323    7.279907    ( 0.0000,  0.0000,  2.0000)
 100 Ni     3.511463    7.232757    6.797285    ( 0.0000,  0.0000,  1.5000)
 101 Cr     3.570133    8.997088    9.229080    ( 0.0000,  0.0000,  0.0000)
 102 Cr     5.178421    7.337022    8.720673    ( 0.0000,  0.0000,  0.0000)
 103 Cr     5.201377    9.035144    7.107983    ( 0.0000,  0.0000,  0.0000)
 104 Co     6.828088    6.911793    7.226916    ( 0.0000,  0.0000,  2.1000)
 105 Fe     7.004860    8.916533    9.039959    ( 0.0000,  0.0000,  2.0000)
 106 Cr     8.814931    6.781166    8.840087    ( 0.0000,  0.0000,  0.0000)
 107 Ni     8.853771    8.636552    7.197505    ( 0.0000,  0.0000,  1.5000)

Unit cell:
           periodic     x           y           z      points  spacing
  1. axis:    yes   10.671700    0.000000    0.000000    48     0.2223
  2. axis:    yes    0.000000   10.671700    0.000000    48     0.2223
  3. axis:    yes    0.000000    0.000000   10.671700    48     0.2223

  Lengths:  10.671700  10.671700  10.671700
  Angles:   90.000000  90.000000  90.000000

Effective grid spacing dv^(1/3) = 0.2223

     iter     time        total  log10-change:  magmom
                         energy  eigst   dens
iter:   1 20:13:58 -1029.153520                  +143.7778
iter:   2 20:16:34  -917.240905  -0.26  -1.21    +83.5289
iter:   3 20:19:08  -896.651760  -0.95  -1.24    +72.0889
iter:   4 20:21:43  -885.481579  -1.34  -1.31    +68.2852
iter:   5 20:24:18  -871.918760  -1.62  -1.32    +65.7442
iter:   6 20:27:00  -873.951548  -1.26  -1.39    +65.8356
iter:   7 20:30:25  -870.602591  -1.25  -1.46    +64.8259
iter:   8 20:33:01  -855.009124  -1.67  -1.56    +63.5687
iter:   9 20:35:37  -854.240346  -2.14  -1.77    +64.7803
iter:  10 20:38:12  -854.431681  -2.48  -1.82    +65.8648
iter:  11 20:40:48  -854.388329  -2.58  -1.84    +67.1170
iter:  12 20:43:23  -855.831237  -2.40  -1.88    +68.3555
iter:  13 20:45:58  -855.581788  -2.38  -1.91    +68.6194
iter:  14 20:48:33  -855.563912  -2.47  -1.99    +68.9968
iter:  15 20:51:09  -854.776334  -2.68  -2.03    +69.6648
iter:  16 20:53:44  -854.574795  -3.01  -2.12    +69.9659
iter:  17 20:56:20  -854.827241  -3.10  -2.19    +70.2096
iter:  18 20:58:56  -854.933260  -3.00  -2.20    +70.3723
iter:  19 21:02:19  -854.706263  -3.18  -2.21    +70.7624
iter:  20 21:05:06  -854.893723  -3.04  -2.28    +70.6507
iter:  21 21:07:42  -854.636245  -3.15  -2.31    +70.6274
iter:  22 21:10:19  -854.582698  -3.34  -2.41    +70.8075
iter:  23 21:12:55  -854.600973c -3.43  -2.47    +70.8160
iter:  24 21:15:30  -854.480472  -3.51  -2.49    +70.7018
iter:  25 21:18:07  -854.591627  -3.50  -2.63    +70.7440
iter:  26 21:20:49  -854.489862  -3.82  -2.57    +70.8460
iter:  27 21:24:16  -854.531879c -3.89  -2.69    +70.8125
iter:  28 21:26:53  -854.472509c -3.93  -2.66    +70.7977
iter:  29 21:29:29  -854.492078c -4.10  -2.82    +70.8718
iter:  30 21:32:06  -854.521164c -4.12  -2.83    +70.8778
iter:  31 21:34:42  -854.493583c -4.34  -2.79    +70.8221
iter:  32 21:37:17  -854.500281c -4.50  -2.89    +70.7869
iter:  33 21:39:54  -854.512227c -4.50  -2.91    +70.8122
iter:  34 21:43:25  -854.510331c -4.57  -2.94    +70.7802
iter:  35 21:46:03  -854.511572c -4.77  -2.94    +70.7229
iter:  36 21:48:39  -854.518615c -4.58  -3.02    +70.7109
iter:  37 21:51:16  -854.526125c -4.57  -3.04    +70.7029
iter:  38 21:53:52  -854.528651c -4.60  -3.05    +70.6536
iter:  39 21:56:28  -854.523428c -4.86  -3.07    +70.5657
iter:  40 21:59:04  -854.530414c -4.84  -3.15    +70.5470
iter:  41 22:02:35  -854.529223c -5.02  -3.16    +70.5369
iter:  42 22:05:12  -854.531457c -5.12  -3.19    +70.4665
iter:  43 22:07:48  -854.534215c -5.29  -3.23    +70.4227
iter:  44 22:10:24  -854.537166c -5.19  -3.24    +70.3986
iter:  45 22:13:00  -854.539080c -5.24  -3.25    +70.3764
iter:  46 22:15:37  -854.541026c -5.22  -3.26    +70.3096
iter:  47 22:18:12  -854.547870c -5.09  -3.33    +70.2533
iter:  48 22:21:13  -854.547352c -5.00  -3.29    +70.2398
iter:  49 22:24:18  -854.549329c -5.06  -3.30    +70.2155
iter:  50 22:26:55  -854.549788c -5.13  -3.35    +70.1559
iter:  51 22:29:32  -854.550287c -5.15  -3.40    +70.1142
iter:  52 22:32:08  -854.549973c -5.63  -3.39    +70.1060
iter:  53 22:34:44  -854.550694c -5.61  -3.54    +70.0752
iter:  54 22:37:21  -854.552488c -5.80  -3.53    +70.0428
iter:  55 22:40:16  -854.553425c -6.03  -3.55    +70.0180
iter:  56 22:43:00  -854.555469c -5.80  -3.60    +69.9820
iter:  57 22:45:31  -854.559030c -5.39  -3.60    +69.9593
iter:  58 22:48:04  -854.557481c -5.55  -3.49    +69.9248
iter:  59 22:50:40  -854.561387c -5.45  -3.65    +69.8940
iter:  60 22:53:15  -854.560617c -5.48  -3.58    +69.8878
iter:  61 22:55:54  -854.560398c -5.60  -3.64    +69.8582
iter:  62 22:58:27  -854.560570c -5.99  -3.74    +69.8236
iter:  63 23:00:58  -854.561618c -6.23  -3.86    +69.7978
iter:  64 23:03:32  -854.563601c -5.86  -3.90    +69.7539
iter:  65 23:06:04  -854.566634c -5.57  -3.89    +69.6842
iter:  66 23:08:41  -854.568535c -5.72  -3.80    +69.6449
iter:  67 23:11:13  -854.568264c -6.28  -3.76    +69.6350
iter:  68 23:13:46  -854.568983c -6.18  -3.81    +69.6076
iter:  69 23:16:23  -854.570038c -5.97  -3.85    +69.5894
iter:  70 23:18:54  -854.570054c -5.64  -3.87    +69.5782
iter:  71 23:21:32  -854.570485c -6.03  -3.88    +69.5575
iter:  72 23:24:08  -854.570485c -6.46  -4.08c   +69.5354
iter:  73 23:26:50  -854.571418c -6.24  -4.41c   +69.5023
iter:  74 23:29:28  -854.572930c -5.80  -4.22c   +69.4545
iter:  75 23:32:03  -854.573864c -6.10  -4.19c   +69.4268
iter:  76 23:34:38  -854.573334c -6.91  -4.06c   +69.4440
iter:  77 23:37:23  -854.574531c -6.06  -4.07c   +69.3948
iter:  78 23:40:02  -854.577949c -5.03  -4.03c   +69.2448
iter:  79 23:42:41  -854.577095c -6.40  -3.74    +69.2842
iter:  80 23:45:13  -854.578131c -6.00  -3.79    +69.2520
iter:  81 23:47:49  -854.577973c -6.04  -3.64    +69.2612
iter:  82 23:50:35  -854.577294c -6.13  -3.68    +69.2276
iter:  83 23:53:08  -854.578328c -5.47  -3.67    +69.2218
iter:  84 23:55:39  -854.576829c -5.55  -3.61    +69.2190
iter:  85 23:58:11  -854.578399c -5.64  -3.73    +69.2358
iter:  86 00:00:53  -854.576518c -6.03  -3.73    +69.2342
iter:  87 00:03:36  -854.576713c -6.40  -3.85    +69.2274
iter:  88 00:06:10  -854.577013c -6.31  -4.00    +69.2278
iter:  89 00:08:55  -854.577128c -5.87  -3.86    +69.2293
iter:  90 00:11:26  -854.576969c -6.11  -3.79    +69.2278
iter:  91 00:14:12  -854.576644c -6.39  -3.96    +69.2182
iter:  92 00:16:49  -854.577934c -6.12  -4.11c   +69.2193
iter:  93 00:19:34  -854.576589c -6.34  -3.91    +69.2230
iter:  94 00:22:08  -854.576726c -6.94  -4.15c   +69.2219
iter:  95 00:24:34  -854.576916c -7.01  -4.29c   +69.2208
iter:  96 00:27:22  -854.576797c -7.17  -4.27c   +69.2205
iter:  97 00:30:01  -854.576820c -7.50c -4.34c   +69.2202

Converged after 97 iterations.

Dipole moment: (-2.638304, 19.549601, 16.240516) |e|*Ang

Total magnetic moment: (0.000000, 0.000000, 69.220167)
Local magnetic moments:
   0 Cr ( 0.000000,  0.000000,  0.273431)
   1 Al ( 0.000000,  0.000000, -0.041714)
   2 Cr ( 0.000000,  0.000000, -0.779711)
   3 Co ( 0.000000,  0.000000,  0.935770)
   4 Fe ( 0.000000,  0.000000,  1.622114)
   5 Cr ( 0.000000,  0.000000, -0.987134)
   6 Ni ( 0.000000,  0.000000,  0.211357)
   7 Fe ( 0.000000,  0.000000,  1.980953)
   8 Cr ( 0.000000,  0.000000, -0.865619)
   9 Co ( 0.000000,  0.000000,  1.130418)
  10 Ni ( 0.000000,  0.000000,  0.283433)
  11 Fe ( 0.000000,  0.000000,  1.916974)
  12 Co ( 0.000000,  0.000000,  1.467757)
  13 Co ( 0.000000,  0.000000,  1.135294)
  14 Fe ( 0.000000,  0.000000,  1.916155)
  15 Fe ( 0.000000,  0.000000,  2.275600)
  16 Fe ( 0.000000,  0.000000,  1.852979)
  17 Fe ( 0.000000,  0.000000,  1.720132)
  18 Cr ( 0.000000,  0.000000, -0.942436)
  19 Co ( 0.000000,  0.000000,  1.436567)
  20 Fe ( 0.000000,  0.000000,  2.405106)
  21 Ni ( 0.000000,  0.000000,  0.297567)
  22 Co ( 0.000000,  0.000000,  1.374833)
  23 Cr ( 0.000000,  0.000000, -0.831346)
  24 Cr ( 0.000000,  0.000000, -0.330875)
  25 Ni ( 0.000000,  0.000000,  0.072928)
  26 Fe ( 0.000000,  0.000000,  2.138391)
  27 Ni ( 0.000000,  0.000000,  0.107895)
  28 Co ( 0.000000,  0.000000,  1.206178)
  29 Co ( 0.000000,  0.000000,  0.934506)
  30 Co ( 0.000000,  0.000000,  1.211108)
  31 Cr ( 0.000000,  0.000000,  0.852286)
  32 Al ( 0.000000,  0.000000, -0.009577)
  33 Cr ( 0.000000,  0.000000, -1.505998)
  34 Cr ( 0.000000,  0.000000,  0.636478)
  35 Cr ( 0.000000,  0.000000,  0.313781)
  36 Fe ( 0.000000,  0.000000,  1.905378)
  37 Co ( 0.000000,  0.000000,  0.644013)
  38 Cr ( 0.000000,  0.000000, -0.358434)
  39 Fe ( 0.000000,  0.000000,  2.127770)
  40 Co ( 0.000000,  0.000000,  1.153007)
  41 Ni ( 0.000000,  0.000000,  0.181939)
  42 Ni ( 0.000000,  0.000000,  0.187081)
  43 Al ( 0.000000,  0.000000, -0.020570)
  44 Fe ( 0.000000,  0.000000,  2.331253)
  45 Co ( 0.000000,  0.000000,  1.070590)
  46 Fe ( 0.000000,  0.000000,  2.014507)
  47 Ni ( 0.000000,  0.000000,  0.531455)
  48 Fe ( 0.000000,  0.000000,  2.595897)
  49 Fe ( 0.000000,  0.000000,  2.285158)
  50 Ni ( 0.000000,  0.000000,  0.337589)
  51 Ni ( 0.000000,  0.000000,  0.401309)
  52 Cr ( 0.000000,  0.000000, -1.339035)
  53 Co ( 0.000000,  0.000000,  1.272518)
  54 Fe ( 0.000000,  0.000000,  2.234031)
  55 Cr ( 0.000000,  0.000000, -1.322572)
  56 Co ( 0.000000,  0.000000,  1.224631)
  57 Fe ( 0.000000,  0.000000,  2.208600)
  58 Ni ( 0.000000,  0.000000,  0.374319)
  59 Fe ( 0.000000,  0.000000,  2.402972)
  60 Cr ( 0.000000,  0.000000, -1.802844)
  61 Ni ( 0.000000,  0.000000,  0.163202)
  62 Fe ( 0.000000,  0.000000,  2.208084)
  63 Ni ( 0.000000,  0.000000,  0.265747)
  64 Co ( 0.000000,  0.000000,  1.456975)
  65 Co ( 0.000000,  0.000000,  1.160666)
  66 Ni ( 0.000000,  0.000000,  0.309061)
  67 Fe ( 0.000000,  0.000000,  2.437342)
  68 Ni ( 0.000000,  0.000000,  0.136749)
  69 Al ( 0.000000,  0.000000, -0.029314)
  70 Ni ( 0.000000,  0.000000,  0.230076)
  71 Fe ( 0.000000,  0.000000,  2.001394)
  72 Cr ( 0.000000,  0.000000, -0.936233)
  73 Fe ( 0.000000,  0.000000,  1.828817)
  74 Fe ( 0.000000,  0.000000,  0.137456)
  75 Cr ( 0.000000,  0.000000,  0.336027)
  76 Cr ( 0.000000,  0.000000, -0.278490)
  77 Cr ( 0.000000,  0.000000, -0.657655)
  78 Al ( 0.000000,  0.000000, -0.012823)
  79 Co ( 0.000000,  0.000000,  1.135154)
  80 Cr ( 0.000000,  0.000000, -0.935842)
  81 Co ( 0.000000,  0.000000,  1.024046)
  82 Co ( 0.000000,  0.000000,  0.140336)
  83 Cr ( 0.000000,  0.000000, -1.265811)
  84 Ni ( 0.000000,  0.000000,  0.346648)
  85 Ni ( 0.000000,  0.000000,  0.411445)
  86 Co ( 0.000000,  0.000000,  1.457242)
  87 Co ( 0.000000,  0.000000,  1.522836)
  88 Co ( 0.000000,  0.000000,  1.276354)
  89 Co ( 0.000000,  0.000000,  1.534442)
  90 Ni ( 0.000000,  0.000000,  0.447131)
  91 Ni ( 0.000000,  0.000000,  0.530470)
  92 Ni ( 0.000000,  0.000000,  0.324219)
  93 Ni ( 0.000000,  0.000000,  0.346552)
  94 Co ( 0.000000,  0.000000,  1.292016)
  95 Cr ( 0.000000,  0.000000, -1.920076)
  96 Fe ( 0.000000,  0.000000,  2.264930)
  97 Ni ( 0.000000,  0.000000,  0.093668)
  98 Ni ( 0.000000,  0.000000,  0.559274)
  99 Fe ( 0.000000,  0.000000,  1.682657)
 100 Ni ( 0.000000,  0.000000,  0.484155)
 101 Cr ( 0.000000,  0.000000, -0.808622)
 102 Cr ( 0.000000,  0.000000, -0.334512)
 103 Cr ( 0.000000,  0.000000,  0.856249)
 104 Co ( 0.000000,  0.000000,  0.674320)
 105 Fe ( 0.000000,  0.000000, -0.955950)
 106 Cr ( 0.000000,  0.000000,  1.153586)
 107 Ni ( 0.000000,  0.000000,  0.113977)

Energy contributions relative to reference atoms: (reference = -3699400.456887)

Kinetic:       +402.981523
Potential:     -403.127852
External:        +0.000000
XC:            -889.818667
Entropy (-ST):   -4.514419
Local:          +37.645385
--------------------------
Free energy:   -856.834029
Extrapolated:  -854.576820

Spin contamination: 23.511562 electrons
Showing only first 2 kpts
                      Up                     Down
 Kpt  Band  Eigenvalues  Occupancy  Eigenvalues  Occupancy
  0   508      9.63955    0.99631     10.60979    0.01626
  0   509      9.64833    0.99598     10.61661    0.01521
  0   510      9.66639    0.99519     10.63002    0.01332
  0   511      9.68539    0.99418     10.63760    0.01236

  1   508      9.65747    0.99560     10.61108    0.01606
  1   509      9.66196    0.99539     10.61853    0.01492
  1   510      9.66668    0.99517     10.62702    0.01372
  1   511      9.68596    0.99415     10.64465    0.01153


Fermi level: 10.19953

No gap

Forces in eV/Ang:
  0 Cr   -2.34065    1.15739   -0.12832
  1 Al   -0.41263   -0.32728    1.10163
  2 Cr   -0.08665    1.20129   -0.98516
  3 Co   -0.71388    1.32129    1.29591
  4 Fe    2.22017   -1.23239    0.32845
  5 Cr   -1.89281    0.69315   -0.42899
  6 Ni    0.20864   -0.51646    0.07730
  7 Fe   -0.62226   -0.02635    0.48262
  8 Cr   -0.06710   -1.04956    0.47200
  9 Co   -0.59422    0.21093   -0.30498
 10 Ni    0.31528   -0.57735   -1.91386
 11 Fe   -0.57423   -0.62134    0.08314
 12 Co    0.05853    0.29154   -0.28449
 13 Co   -0.75252    1.06044    0.96971
 14 Fe    1.08092   -0.69643    0.00502
 15 Fe    0.21635   -0.60826   -1.15029
 16 Fe   -1.05306    0.46432   -0.79739
 17 Fe    1.80313   -0.01754    0.49578
 18 Cr   -0.27947    0.70355   -1.22202
 19 Co    1.54503   -0.57030    0.71147
 20 Fe   -1.23082    0.75420    0.98312
 21 Ni   -0.05061    0.56424   -0.57208
 22 Co   -0.13830    0.52116    0.13750
 23 Cr    0.14737   -1.38361   -0.25251
 24 Cr    0.88298   -1.45540   -0.76078
 25 Ni    0.03509    0.85775   -0.05495
 26 Fe    0.02522   -0.02909    1.19636
 27 Ni    0.35474   -2.07115   -0.33727
 28 Co   -1.18839    0.89218    0.25461
 29 Co    2.41440   -0.59014    1.32840
 30 Co   -0.58248    0.19301    1.54378
 31 Cr   -1.15638    0.30427    1.22717
 32 Al    0.61770   -2.66008    0.90757
 33 Cr   -0.62841    0.61905    0.59282
 34 Cr   -0.80369   -1.63725    0.83634
 35 Cr   -1.31728    1.46088   -0.40301
 36 Fe   -0.26511    1.69786   -0.29620
 37 Co   -0.63214   -0.12158   -1.25386
 38 Cr    2.06771    2.92146   -0.75984
 39 Fe    0.05433    0.67318    0.13831
 40 Co   -0.07273   -0.22622   -0.37649
 41 Ni    1.30652   -0.38975   -0.61721
 42 Ni    1.23805    0.72164   -2.66801
 43 Al    1.35698   -0.51410    1.86094
 44 Fe    0.28654    0.04871    0.00604
 45 Co   -0.31082   -0.47163   -1.26160
 46 Fe   -0.21975    0.32760    1.61878
 47 Ni   -0.41118    0.41890    1.20631
 48 Fe    1.23750    1.13901    0.10531
 49 Fe   -0.70681   -1.62086    0.43504
 50 Ni   -1.64518    1.58080    0.32907
 51 Ni    0.02267   -0.02442    0.67247
 52 Cr    0.28149   -0.99481   -1.01636
 53 Co   -0.12702   -1.75270    0.06578
 54 Fe    0.11546    0.52814   -0.26507
 55 Cr   -0.19157   -0.72563   -1.73053
 56 Co   -0.26986   -0.70890    1.02612
 57 Fe   -0.55836   -0.62030   -0.25836
 58 Ni    0.29998    0.80932    0.72674
 59 Fe    0.78179    0.12672   -0.30745
 60 Cr   -0.35470    0.16733   -0.17292
 61 Ni   -1.84415   -1.57489   -0.95589
 62 Fe   -0.34710   -0.31970    0.03203
 63 Ni    2.03860   -1.35687   -0.70418
 64 Co   -0.80144   -0.54292   -1.77905
 65 Co    1.42747    0.06951    1.35839
 66 Ni    1.21748    1.54929    1.52220
 67 Fe   -0.54147   -0.02999   -0.62055
 68 Ni   -0.23423    0.65004    1.68840
 69 Al    1.44016    0.40173   -0.61480
 70 Ni    0.25618   -1.05847   -1.76761
 71 Fe   -1.41734   -2.13624   -1.20648
 72 Cr   -0.34418    0.94953    0.77018
 73 Fe    0.00436    0.98157   -1.22255
 74 Fe    0.14155   -1.16693   -1.19290
 75 Cr   -0.43812    0.94901    0.73027
 76 Cr   -2.34203   -0.61908    2.81250
 77 Cr   -0.23940    0.50757   -0.02889
 78 Al    0.22520    0.42713    0.19029
 79 Co   -0.11759   -0.88377   -0.34592
 80 Cr   -0.32725    0.48073   -0.91505
 81 Co    0.52240   -0.67722   -1.74984
 82 Co    1.70847    1.56858    0.56692
 83 Cr    0.63737   -0.60232    1.28962
 84 Ni   -0.45894   -0.12583   -0.35057
 85 Ni   -0.88438    0.57749    0.72297
 86 Co    1.08166   -1.45736    1.28149
 87 Co    1.49998   -1.23375   -0.87351
 88 Co   -0.18411   -0.82073   -0.86046
 89 Co   -0.00215   -0.03592    0.47538
 90 Ni    1.22726    0.84421   -0.67450
 91 Ni   -0.14495    0.15189   -0.01567
 92 Ni   -0.99566    0.94449   -0.18376
 93 Ni   -1.17073    0.01942    1.02782
 94 Co    3.29989   -0.33326    0.44240
 95 Cr   -0.14580   -0.15956    0.43252
 96 Fe   -1.87054   -0.23819    0.17232
 97 Ni    0.03555    0.60607   -2.39771
 98 Ni   -0.56569    2.42092   -0.02475
 99 Fe    0.11084    0.41423    0.55570
100 Ni    0.42506   -0.71584    2.30285
101 Cr   -0.29951   -0.44093   -1.20681
102 Cr   -0.81494   -1.14125   -0.66858
103 Cr   -0.47279   -1.70735    0.68374
104 Co    1.28885    1.81798   -0.74246
105 Fe   -0.16748    0.26979   -1.15278
106 Cr    0.11265    1.44207   -0.55566
107 Ni   -0.25423    1.12378    1.11082

Timing:                              incl.     excl.
-----------------------------------------------------------
Forces:                             22.834    22.834   0.1% |
Hamiltonian:                         0.764     0.005   0.0% |
 Atomic:                             0.367     0.113   0.0% |
  XC Correction:                     0.254     0.254   0.0% |
 Calculate atomic Hamiltonians:      0.281     0.281   0.0% |
 Communicate:                        0.001     0.001   0.0% |
 Initialize Hamiltonian:             0.000     0.000   0.0% |
 Poisson:                            0.001     0.001   0.0% |
 XC 3D grid:                         0.109     0.109   0.0% |
LCAO initialization:               183.821     1.140   0.0% |
 LCAO eigensolver:                  26.765     0.052   0.0% |
  Calculate projections:             0.523     0.523   0.0% |
  DenseAtomicCorrection:             0.665     0.665   0.0% |
  Distribute overlap matrix:         2.099     2.099   0.0% |
  Orbital Layouts:                  15.272    15.272   0.1% |
  Potential matrix:                  6.176     6.176   0.0% |
  Sum over cells:                    1.978     1.978   0.0% |
 LCAO to grid:                     153.575   153.575   1.0% |
 Set positions (LCAO WFS):           2.340     1.200   0.0% |
  Basic WFS set positions:           0.003     0.003   0.0% |
  Basis functions set positions:     0.001     0.001   0.0% |
  P tci:                             0.619     0.619   0.0% |
  ST tci:                            0.240     0.240   0.0% |
  mktci:                             0.278     0.278   0.0% |
PWDescriptor:                        0.225     0.225   0.0% |
SCF-cycle:                       15527.352     1.726   0.0% |
 Davidson:                       15305.814  2650.561  16.8% |------|
  Apply H:                         104.711   100.677   0.6% |
   HMM T:                            4.033     4.033   0.0% |
  Subspace diag:                  1024.703     0.220   0.0% |
   calc_h_matrix:                  360.478   246.494   1.6% ||
    Apply H:                       113.984   109.101   0.7% |
     HMM T:                          4.883     4.883   0.0% |
   diagonalize:                    224.194   224.194   1.4% ||
   rotate_psi:                     439.811   439.811   2.8% ||
  calc. matrices:                 2087.440  1880.989  12.0% |----|
   Apply H:                        206.451   195.845   1.2% |
    HMM T:                          10.606    10.606   0.1% |
  diagonalize:                    8465.135  8465.135  53.8% |---------------------|
  rotate_psi:                      973.264   973.264   6.2% |-|
 Density:                          115.221     0.006   0.0% |
  Atomic density matrices:           2.991     2.991   0.0% |
  Mix:                              56.070    56.070   0.4% |
  Multipole moments:                 0.062     0.062   0.0% |
  Pseudo density:                   56.092    56.084   0.4% |
   Symmetrize density:               0.008     0.008   0.0% |
 Hamiltonian:                       93.247     0.966   0.0% |
  Atomic:                           35.713     8.823   0.1% |
   XC Correction:                   26.889    26.889   0.2% |
  Calculate atomic Hamiltonians:    41.974    41.974   0.3% |
  Communicate:                       0.569     0.569   0.0% |
  Poisson:                           0.125     0.125   0.0% |
  XC 3D grid:                       13.901    13.901   0.1% |
 Orthonormalize:                    11.344     0.004   0.0% |
  calc_s_matrix:                     1.545     1.545   0.0% |
  inverse-cholesky:                  0.922     0.922   0.0% |
  projections:                       6.505     6.505   0.0% |
  rotate_psi_s:                      2.367     2.367   0.0% |
Set symmetry:                        0.001     0.001   0.0% |
Other:                               3.677     3.677   0.0% |
-----------------------------------------------------------
Total:                                     15738.674 100.0%

Date: Fri Apr 14 00:30:26 2023
