
  ___ ___ ___ _ _ _  
 |   |   |_  | | | | 
 | | | | | . | | | | 
 |__ |  _|___|_____|  22.8.0
 |___|_|             

User:   c.zeng@d0120
Date:   Thu Apr 20 04:33:10 2023
Arch:   x86_64
Pid:    31182
CWD:    /home/c.zeng/projects/hea-corrosion/hea-mlp/data-curation/surface-mcmc/dft-jobs/47
Python: 3.8.1
gpaw:   /home/c.zeng/usr/installs/gpaw/source/gpaw-22.8.0/gpaw
_gpaw:  /home/c.zeng/usr/installs/gpaw/source/gpaw-22.8.0/
        _gpaw.cpython-38-x86_64-linux-gnu.so
ase:    /home/c.zeng/.local/lib/python3.8/site-packages/ase-3.22.1-py3.8.egg/ase (version 3.22.1)
numpy:  /home/c.zeng/.local/lib/python3.8/site-packages/numpy (version 1.24.2)
scipy:  /home/c.zeng/.local/lib/python3.8/site-packages/scipy (version 1.10.1)
libxc:  4.2.3
units:  Angstrom and eV
cores: 30
OpenMP: False
OMP_NUM_THREADS: 1

Input parameters:
  convergence: {energy: 0.0001}
  kpts: [2 2 1]
  maxiter: 666
  mode: {ecut: 350.0,
         name: pw}
  occupations: {fixmagmom: False,
                name: fermi-dirac,
                width: 0.1}
  poissonsolver: {dipolelayer: xy}
  spinpol: True
  symmetry: {point_group: False}
  xc: PBE

System changes: positions, numbers, cell, pbc, initial_charges, initial_magmoms 

Initialize ...

species:
  Cr:
    name: Chromium
    id: 33f258bda2ca9f93018e70263a35547b
    Z: 24.0
    valence: 6
    core: 18
    charge: 0.0
    file: /home/c.zeng/usr/data/gpaw-setups-0.9.20000/Cr.PBE.gz
    compensation charges: {type: gauss,
                           rc: 0.35,
                           lmax: 2}
    cutoffs: {filter: 2.14,
              core: 3.04}
    valence states:
      #              energy  rcut
      - 4s(1.00)    -4.007   1.164
      - 4p(0.00)    -0.989   1.217
      - 3d(5.00)    -2.913   1.111
      -  s          23.205   1.164
      -  p          26.223   1.217
      -  d          24.299   1.111
  
    # Using partial waves for Cr as LCAO basis

  Fe:
    name: Iron
    id: 37abbd8d6c3c35915a9b583b742da910
    Z: 26.0
    valence: 8
    core: 18
    charge: 0.0
    file: /home/c.zeng/usr/data/gpaw-setups-0.9.20000/Fe.PBE.gz
    compensation charges: {type: gauss,
                           rc: 0.33,
                           lmax: 2}
    cutoffs: {filter: 2.06,
              core: 2.67}
    valence states:
      #              energy  rcut
      - 4s(2.00)    -5.291   1.164
      - 4p(0.00)    -1.326   1.058
      - 3d(6.00)    -7.505   1.058
      -  s          21.920   1.164
      -  p          25.885   1.058
      -  d          19.706   1.058
  
    # Using partial waves for Fe as LCAO basis

  Co:
    name: Cobalt
    id: 339d20d5b0b93d2de9531a1bee871d91
    Z: 27.0
    valence: 9
    core: 18
    charge: 0.0
    file: /home/c.zeng/usr/data/gpaw-setups-0.9.20000/Co.PBE.gz
    compensation charges: {type: gauss,
                           rc: 0.32,
                           lmax: 2}
    cutoffs: {filter: 1.87,
              core: 2.55}
    valence states:
      #              energy  rcut
      - 4s(2.00)    -5.469   1.005
      - 4p(0.00)    -1.277   1.058
      - 3d(7.00)    -8.205   1.005
      -  s          21.742   1.005
      -  p          25.934   1.058
      -  d          19.007   1.005
  
    # Using partial waves for Co as LCAO basis

  Ni:
    name: Nickel
    id: 0d9f38a9d6e76a2886f07bb4381f212b
    Z: 28.0
    valence: 16
    core: 12
    charge: 0.0
    file: /home/c.zeng/usr/data/gpaw-setups-0.9.20000/Ni.PBE.gz
    compensation charges: {type: gauss,
                           rc: 0.36,
                           lmax: 2}
    cutoffs: {filter: 2.14,
              core: 1.98}
    valence states:
      #              energy  rcut
      - 4s(2.00)    -5.642   1.164
      - 3p(6.00)   -71.394   1.207
      - 4p(0.00)    -1.226   1.207
      - 3d(8.00)    -8.875   1.138
      -  s          21.570   1.164
      -  d          18.337   1.138
  
    # Using partial waves for Ni as LCAO basis

Reference energy: -4451268.207082  # eV

Spin-polarized calculation.
Magnetic moment: 175.600000

Convergence criteria:
 Maximum [total energy] change in last 3 cyles: 0.0001 eV / electron
 Maximum integral of absolute [dens]ity change: 0.0001 electrons / valence electron
 Maximum integral of absolute [eigenst]ate change: 4e-08 eV^2 / valence electron
 Maximum number of scf [iter]ations: 666
 (Square brackets indicate name in SCF output, whereas a 'c' in
 the SCF output indicates the quantity has converged.)

Symmetries present (total): 1

  ( 1  0  0)
  ( 0  1  0)
  ( 0  0  1)

4 k-points: 2 x 2 x 1 Monkhorst-Pack grid
2 k-points in the irreducible part of the Brillouin zone
       k-points in crystal coordinates                weights
   0:     0.25000000   -0.25000000    0.00000000          2/4
   1:     0.25000000    0.25000000    0.00000000          2/4

Wave functions: Plane wave expansion
  Cutoff energy: 350.000 eV
  Number of coefficients (min, max): 58495, 58567
  Pulay-stress correction: 0.000000 eV/Ang^3 (de/decut=0.000000)
  Using FFTW library
  ScaLapack parameters: grid=1x1, blocksize=None
  Wavefunction extrapolation:
    Improved wavefunction reuse through dual PAW basis 

Occupation numbers: Fermi-Dirac:
  width: 0.1000  # eV
 

Eigensolver
   Davidson(niter=2) 

Densities:
  Coarse grid: 54*54*128 grid
  Fine grid: 108*108*256 grid
  Total Charge: 0.000000 

Density mixing:
  Method: difference
  Backend: pulay
  Linear mixing parameter: 0.05
  old densities: 5
  Damping of long wavelength oscillations: 50 

Hamiltonian:
  XC and Coulomb potentials evaluated on a 108*108*256 grid
  Using the PBE Exchange-Correlation functional
  External potential:
    NoExternalPotential
 

XC parameters: PBE with 2 nearest neighbor stencil

Memory estimate:
  Process memory now: 368.67 MiB
  Calculator: 2405.48 MiB
    Density: 16.73 MiB
      Arrays: 6.75 MiB
      Localized functions: 7.29 MiB
      Mixer: 2.70 MiB
    Hamiltonian: 5.22 MiB
      Arrays: 5.01 MiB
      XC: 0.00 MiB
      Poisson: 0.00 MiB
      vbar: 0.21 MiB
    Wavefunctions: 2383.52 MiB
      Arrays psit_nG: 1501.35 MiB
      Eigensolver: 862.84 MiB
      Projections: 3.85 MiB
      Projectors: 0.98 MiB
      PW-descriptor: 14.51 MiB

Total number of cores used: 30
Parallelization over k-points: 2
Domain decomposition: 1 x 3 x 5

Number of atoms: 125
Number of atomic orbitals: 1218
Number of bands in calculation: 840
Number of valence electrons: 1217
Bands to converge: occupied

... initialized

Initializing position-dependent things.

Density initialized from atomic densities
Creating initial wave functions:
  840 bands from LCAO basis set

                                                                  
                                                                  
                                                                  
                                                                  
                                   Co    Fe           Ni          
                         Ni    Ni    Co    Co    Cr               
                    Co    Cr     Cr    Ni    Co                   
                                Co    Ni    Ni    Cr    Fe        
                Cr    Ni   NCr   FCo    NCo   Fe    Fe            
            Fe    Ni   FFe   NCo   FNi   Fe     Ni                
       Ni                 CoCr    Cr     Cr    Fe    Co           
                   Fe   CCo   FFe   CNi   CCo   Cr    Cr          
              Ni   CFe    CNi   FFe   CFe   Ni                    
                               Ni    Ni    Cr    Fe    Cr         
               Cr   CFe   FCr   NFNi  CCNi  FFe   Fe    Cr        
           Cr   CNi   FCo  FNCr   NFe   CCo         Co            
            Fe    Co          Co    Cr        Ni                  
                       CNi   Co    Cr    Ni     Cr                
             Fe    Cr    CFe   Co    CCo   Ni                     
              Fe    Co    Cr     Ni    Cr                         
                                                                  
                                                                  
                                                                  
                                                                  
                                                                  

Positions:
   0 Cr    12.462288    1.423821   10.629080    ( 0.0000,  0.0000,  0.0000)
   1 Fe     2.499576    1.440301   10.626527    ( 0.0000,  0.0000,  2.0000)
   2 Co     4.968611    1.438835   10.615079    ( 0.0000,  0.0000,  1.5000)
   3 Cr     7.462726    1.421460   10.639178    ( 0.0000,  0.0000,  2.1000)
   4 Ni     9.958813    1.440808   10.614286    ( 0.0000,  0.0000,  1.5000)
   5 Ni    13.701699    3.595687   10.631928    ( 0.0000,  0.0000,  0.0000)
   6 Co     3.731720    3.588498   10.658463    ( 0.0000,  0.0000,  2.0000)
   7 Cr     6.206181    3.578862   10.616048    ( 0.0000,  0.0000,  0.0000)
   8 Co     8.708678    3.588487   10.610441    ( 0.0000,  0.0000,  0.0000)
   9 Co    11.213254    3.596560   10.610265    ( 0.0000,  0.0000,  0.0000)
  10 Cr    14.928341    5.748260   10.633307    ( 0.0000,  0.0000,  1.5000)
  11 Co     4.975718    5.742741   10.620568    ( 0.0000,  0.0000,  0.0000)
  12 Co     7.478433    5.755029   10.612261    ( 0.0000,  0.0000,  0.0000)
  13 Cr     9.958968    5.766540   10.606596    ( 0.0000,  0.0000,  0.0000)
  14 Ni    12.428955    5.759114   10.623679    ( 0.0000,  0.0000,  2.0000)
  15 Co    16.172575    7.907763   10.614962    ( 0.0000,  0.0000,  0.0000)
  16 Fe     6.230875    7.897556   10.631399    ( 0.0000,  0.0000,  1.5000)
  17 Co     8.712063    7.918800   10.624912    ( 0.0000,  0.0000,  1.5000)
  18 Cr    11.196407    7.900649   10.627583    ( 0.0000,  0.0000,  2.0000)
  19 Ni    13.685743    7.894915   10.608768    ( 0.0000,  0.0000,  0.0000)
  20 Cr    17.413095   10.061737   10.609531    ( 0.0000,  0.0000,  0.0000)
  21 Ni     7.473454   10.060875   10.626761    ( 0.0000,  0.0000,  1.5000)
  22 Co     9.959304   10.058201   10.606068    ( 0.0000,  0.0000,  0.0000)
  23 Fe    12.452485   10.052985   10.619834    ( 0.0000,  0.0000,  1.5000)
  24 Fe    14.933506   10.061047   10.614433    ( 0.0000,  0.0000,  2.0000)
  25 Co    12.449050   -0.000629   12.627234    ( 0.0000,  0.0000,  2.1000)
  26 Fe     2.492433    0.000558   12.634954    ( 0.0000,  0.0000,  2.1000)
  27 Cr     4.974333    0.000141   12.611941    ( 0.0000,  0.0000,  2.1000)
  28 Fe     7.468637   -0.006559   12.638564    ( 0.0000,  0.0000,  0.0000)
  29 Cr    16.167928   10.788301   12.619514    ( 0.0000,  0.0000,  2.0000)
  30 Fe     1.266555    2.151225   12.633662    ( 0.0000,  0.0000,  2.0000)
  31 Co     3.735748    2.148121   12.651127    ( 0.0000,  0.0000,  2.1000)
  32 Ni     6.204229    2.151322   12.625297    ( 0.0000,  0.0000,  2.0000)
  33 Co     8.713864    2.159169   12.632341    ( 0.0000,  0.0000,  0.0000)
  34 Cr    11.209280    2.157261   12.630668    ( 0.0000,  0.0000,  2.0000)
  35 Cr     2.491537    4.311041   12.649513    ( 0.0000,  0.0000,  1.5000)
  36 Fe     4.975141    4.309004   12.661988    ( 0.0000,  0.0000,  1.5000)
  37 Ni     7.471546    4.302515   12.629612    ( 0.0000,  0.0000,  0.0000)
  38 Ni     9.959331    4.321389   12.624211    ( 0.0000,  0.0000,  2.0000)
  39 Co    12.447216    4.322736   12.648779    ( 0.0000,  0.0000,  0.0000)
  40 Cr     3.727002    6.455713   12.638564    ( 0.0000,  0.0000,  2.0000)
  41 Fe     6.230130    6.458548   12.645726    ( 0.0000,  0.0000,  1.5000)
  42 Fe     8.722502    6.475815   12.624504    ( 0.0000,  0.0000,  2.1000)
  43 Co    11.197735    6.469758   12.643995    ( 0.0000,  0.0000,  1.5000)
  44 Fe    13.683348    6.470059   12.640003    ( 0.0000,  0.0000,  2.1000)
  45 Cr    17.413993    8.621565   12.620189    ( 0.0000,  0.0000,  0.0000)
  46 Ni     7.471608    8.621834   12.638564    ( 0.0000,  0.0000,  1.5000)
  47 Ni     9.955597    8.628593   12.628115    ( 0.0000,  0.0000,  2.1000)
  48 Cr    12.449432    8.615173   12.619279    ( 0.0000,  0.0000,  1.5000)
  49 Fe    14.929575    8.617340   12.626089    ( 0.0000,  0.0000,  2.0000)
  50 Cr     1.254097    0.717223   14.680102    ( 0.0000,  0.0000,  2.1000)
  51 Ni     3.731090    0.711950   14.670063    ( 0.0000,  0.0000,  2.0000)
  52 Co     6.214925    0.718289   14.674818    ( 0.0000,  0.0000,  0.0000)
  53 Cr     8.714063    0.718519   14.689084    ( 0.0000,  0.0000,  2.0000)
  54 Fe    11.204771    0.717512   14.682421    ( 0.0000,  0.0000,  0.0000)
  55 Cr     2.496837    2.862958   14.687264    ( 0.0000,  0.0000,  2.0000)
  56 Fe     4.979214    2.867151   14.683800    ( 0.0000,  0.0000,  2.1000)
  57 Cr     7.478991    2.885690   14.679133    ( 0.0000,  0.0000,  2.1000)
  58 Ni     9.958294    2.881486   14.688056    ( 0.0000,  0.0000,  2.1000)
  59 Ni    12.441997    2.882424   14.688409    ( 0.0000,  0.0000,  0.0000)
  60 Co     3.731806    5.017201   14.686589    ( 0.0000,  0.0000,  2.1000)
  61 Cr     6.225452    5.035536   14.687205    ( 0.0000,  0.0000,  0.0000)
  62 Fe     8.715945    5.032324   14.674525    ( 0.0000,  0.0000,  2.1000)
  63 Cr    11.195745    5.039006   14.696011    ( 0.0000,  0.0000,  2.0000)
  64 Ni    13.700079    5.031203   14.681012    ( 0.0000,  0.0000,  2.1000)
  65 Co     4.981869    7.184260   14.692048    ( 0.0000,  0.0000,  2.0000)
  66 Fe     7.477161    7.188130   14.678135    ( 0.0000,  0.0000,  1.5000)
  67 Co     9.952805    7.179334   14.674554    ( 0.0000,  0.0000,  0.0000)
  68 Cr    12.443073    7.188992   14.681100    ( 0.0000,  0.0000,  2.0000)
  69 Cr    14.930068    7.191493   14.686618    ( 0.0000,  0.0000,  0.0000)
  70 Cr     6.231394    9.346900   14.677343    ( 0.0000,  0.0000,  0.0000)
  71 Cr     8.712453    9.336671   14.666629    ( 0.0000,  0.0000,  1.5000)
  72 Cr    11.193692    9.342761   14.657881    ( 0.0000,  0.0000,  1.5000)
  73 Fe    13.688080    9.336294   14.678986    ( 0.0000,  0.0000,  2.1000)
  74 Co    16.181709    9.338601   14.679603    ( 0.0000,  0.0000,  2.0000)
  75 Fe    12.451515    1.431333   16.739956    ( 0.0000,  0.0000,  2.0000)
  76 Ni     2.493173    1.440441   16.729476    ( 0.0000,  0.0000,  1.5000)
  77 Fe     4.973378    1.437348   16.717295    ( 0.0000,  0.0000,  1.5000)
  78 Ni     7.475017    1.438609   16.711571    ( 0.0000,  0.0000,  2.0000)
  79 Fe     9.955789    1.433845   16.723048    ( 0.0000,  0.0000,  2.1000)
  80 Co    13.696559    3.594351   16.715270    ( 0.0000,  0.0000,  2.1000)
  81 Fe     3.730077    3.579487   16.736903    ( 0.0000,  0.0000,  2.0000)
  82 Co     6.225541    3.599416   16.704614    ( 0.0000,  0.0000,  1.5000)
  83 Fe     8.709257    3.594792   16.716150    ( 0.0000,  0.0000,  2.1000)
  84 Ni    11.199463    3.603674   16.739691    ( 0.0000,  0.0000,  2.0000)
  85 Ni    14.943900    5.737718   16.712745    ( 0.0000,  0.0000,  1.5000)
  86 Fe     4.972339    5.736543   16.726893    ( 0.0000,  0.0000,  1.5000)
  87 Ni     7.458804    5.749316   16.714624    ( 0.0000,  0.0000,  2.1000)
  88 Fe     9.954095    5.748637   16.721228    ( 0.0000,  0.0000,  2.0000)
  89 Fe    12.462014    5.747344   16.728743    ( 0.0000,  0.0000,  2.0000)
  90 Fe    16.183410    7.912818   16.742715    ( 0.0000,  0.0000,  2.0000)
  91 Ni     6.219087    7.908313   16.727040    ( 0.0000,  0.0000,  2.1000)
  92 Fe     8.705037    7.899237   16.717853    ( 0.0000,  0.0000,  1.5000)
  93 Ni    11.200247    7.900293   16.707726    ( 0.0000,  0.0000,  2.0000)
  94 Fe    13.685904    7.915049   16.733058    ( 0.0000,  0.0000,  2.0000)
  95 Fe    17.435836   10.053955   16.714183    ( 0.0000,  0.0000,  2.1000)
  96 Co     7.479895   10.064335   16.723694    ( 0.0000,  0.0000,  2.1000)
  97 Ni     9.948438   10.062297   16.717999    ( 0.0000,  0.0000,  2.0000)
  98 Ni    12.430846   10.066016   16.706229    ( 0.0000,  0.0000,  2.1000)
  99 Cr    14.931465   10.060206   16.719819    ( 0.0000,  0.0000,  2.0000)
 100 Ni     0.001393   -0.001477   18.721348    ( 0.0000,  0.0000,  2.1000)
 101 Co     8.706806   10.779893   18.727160    ( 0.0000,  0.0000,  2.1000)
 102 Fe    11.204107   10.781618   18.717855    ( 0.0000,  0.0000,  1.5000)
 103 Co     7.469960    0.013195   18.707875    ( 0.0000,  0.0000,  2.0000)
 104 Ni    16.181919   10.775754   18.709108    ( 0.0000,  0.0000,  2.1000)
 105 Fe     1.248004    2.161303   18.718354    ( 0.0000,  0.0000,  2.1000)
 106 Ni     3.733315    2.155634   18.745800    ( 0.0000,  0.0000,  1.5000)
 107 Fe     6.228574    2.157186   18.698042    ( 0.0000,  0.0000,  2.0000)
 108 Co     8.707430    2.146688   18.721378    ( 0.0000,  0.0000,  1.5000)
 109 Ni    11.204420    2.145825   18.737698    ( 0.0000,  0.0000,  0.0000)
 110 Cr     2.490030    4.312410   18.723374    ( 0.0000,  0.0000,  2.1000)
 111 Ni     4.985099    4.302214   18.737992    ( 0.0000,  0.0000,  1.5000)
 112 Cr     7.468273    4.307150   18.718736    ( 0.0000,  0.0000,  1.5000)
 113 Co     9.951365    4.318112   18.731387    ( 0.0000,  0.0000,  1.5000)
 114 Co    12.445275    4.305296   18.744537    ( 0.0000,  0.0000,  0.0000)
 115 Co     3.740863    6.459076   18.741044    ( 0.0000,  0.0000,  0.0000)
 116 Cr     6.217689    6.472786   18.736054    ( 0.0000,  0.0000,  1.5000)
 117 Cr     8.709004    6.465931   18.718354    ( 0.0000,  0.0000,  0.0000)
 118 Ni    11.207929    6.465576   18.705468    ( 0.0000,  0.0000,  2.1000)
 119 Co    13.697451    6.465489   18.739900    ( 0.0000,  0.0000,  0.0000)
 120 Ni     4.983428    8.632721   18.739518    ( 0.0000,  0.0000,  1.5000)
 121 Ni     7.469224    8.629196   18.723022    ( 0.0000,  0.0000,  1.5000)
 122 Co     9.951770    8.622740   18.693815    ( 0.0000,  0.0000,  2.1000)
 123 Co    12.435945    8.632257   18.713130    ( 0.0000,  0.0000,  0.0000)
 124 Cr    14.940770    8.642831   18.751406    ( 0.0000,  0.0000,  0.0000)

Unit cell:
           periodic     x           y           z      points  spacing
  1. axis:    yes   12.446800    0.000000    0.000000    54     0.1996
  2. axis:    yes    6.223010   10.778600    0.000000    54     0.1996
  3. axis:    no     0.000000    0.000000   29.353100   128     0.2293

  Lengths:  12.446800  12.446046  29.353100
  Angles:   90.000000  90.000000  60.000070

Effective grid spacing dv^(1/3) = 0.2193

     iter     time        total  log10-change:  magmom
                         energy  eigst   dens
iter:   1 04:41:00 -1141.159354                  +175.5308
iter:   2 04:43:37 -2123.287077  +0.54  -1.18    +141.0861
iter:   3 04:46:14 -1978.756576  +0.98  -0.84    +113.3594
iter:   4 04:48:50 -1169.793483  -0.42  -0.85    +77.7923
iter:   5 04:51:28 -1042.562837  -1.26  -1.20    +59.8665
iter:   6 04:54:04 -1031.538066  -1.81  -1.33    +47.4674
iter:   7 04:56:41 -1017.483385  -1.72  -1.35    +44.4098
iter:   8 04:59:18 -1160.912475  -0.98  -1.38    +45.9569
iter:   9 05:01:55 -1116.803443  -1.07  -1.13    +43.7583
iter:  10 05:04:31 -1007.862564  -1.66  -1.17    +36.8002
iter:  11 05:07:08  -998.594026  -1.93  -1.45    +37.0669
iter:  12 05:09:45  -997.811875  -1.66  -1.48    +38.2886
iter:  13 05:12:21 -1013.695973  -1.61  -1.56    +40.1329
iter:  14 05:14:58  -989.850673  -1.56  -1.45    +40.9890
iter:  15 05:17:35 -1042.971727  -1.56  -1.75    +44.3108
iter:  16 05:20:11 -1051.783909  -1.59  -1.39    +43.2095
iter:  17 05:22:48  -992.651182  -1.91  -1.33    +41.0949
iter:  18 05:25:25  -989.130293  -2.53  -1.75    +42.9796
iter:  19 05:28:01  -996.863379  -2.07  -1.82    +44.4873
iter:  20 05:30:38  -988.720898  -2.34  -1.73    +46.3031
iter:  21 05:33:15  -989.376575  -2.81  -1.86    +48.6494
iter:  22 05:35:52  -997.250016  -2.55  -1.90    +49.5640
iter:  23 05:38:28  -990.401098  -2.54  -1.71    +50.9719
iter:  24 05:41:06  -989.719928  -2.65  -1.93    +51.5316
iter:  25 05:43:42  -990.814255  -2.76  -1.96    +54.2247
iter:  26 05:46:19  -999.049389  -2.19  -1.98    +56.6062
iter:  27 05:48:55  -990.560791  -2.45  -1.78    +58.1739
iter:  28 05:51:32  -993.995808  -2.82  -2.05    +59.0817
iter:  29 05:54:09  -990.686185  -2.90  -1.90    +60.0743
iter:  30 05:56:46  -990.882039  -2.88  -2.14    +62.6547
iter:  31 05:59:23  -990.815841  -3.44  -2.16    +63.3926
iter:  32 06:01:59  -991.264434  -3.22  -2.22    +64.6222
iter:  33 06:04:36  -993.902978  -2.69  -2.33    +66.0703
iter:  34 06:07:13 -1009.013527  -2.38  -2.08    +66.3926
iter:  35 06:09:49  -991.832804  -2.72  -1.65    +66.9007
iter:  36 06:12:26  -992.128107  -3.05  -2.40    +67.2087
iter:  37 06:15:02  -992.176524  -3.19  -2.39    +68.4849
iter:  38 06:17:39  -992.015951  -3.68  -2.37    +70.1160
iter:  39 06:20:16  -992.103502  -3.54  -2.52    +71.8251
iter:  40 06:22:53  -992.513294  -3.73  -2.55    +72.1654
iter:  41 06:25:29  -992.338845  -3.80  -2.40    +72.5152
iter:  42 06:28:06  -992.306814  -3.86  -2.50    +73.2239
iter:  43 06:30:43  -992.480544  -3.88  -2.61    +73.5434
iter:  44 06:33:19  -992.416870  -3.81  -2.55    +73.8198
iter:  45 06:35:56  -992.452842c -3.72  -2.64    +74.5148
iter:  46 06:38:33  -992.487678c -3.88  -2.80    +74.9935
iter:  47 06:41:09  -992.566080c -4.17  -2.84    +75.0816
iter:  48 06:43:46  -992.549701c -4.07  -2.72    +75.2473
iter:  49 06:46:22  -992.560426c -4.22  -2.85    +75.4642
iter:  50 06:48:59  -992.631761c -4.47  -2.95    +75.6068
iter:  51 06:51:36  -992.602870c -4.64  -2.81    +75.9029
iter:  52 06:54:12  -992.661261c -4.41  -2.90    +76.4155
iter:  53 06:56:49  -992.680619c -5.22  -2.86    +76.2045
iter:  54 06:59:27  -992.709753c -4.29  -2.81    +76.7858
iter:  55 07:02:03  -992.761695c -3.95  -2.83    +76.9366
iter:  56 07:04:40  -992.804946c -4.31  -2.84    +77.0651
iter:  57 07:07:16  -992.849386c -4.35  -2.81    +77.0411
iter:  58 07:09:53  -992.900606c -4.71  -2.77    +77.0601
iter:  59 07:12:30  -992.944116c -4.26  -2.72    +77.2292
iter:  60 07:15:06  -992.951555c -4.36  -2.66    +77.1022
iter:  61 07:17:43  -992.886540c -3.83  -2.68    +76.7431
iter:  62 07:20:20  -992.913146c -4.00  -2.78    +77.2053
iter:  63 07:22:57  -996.313618  -3.05  -2.76    +77.3684
iter:  64 07:25:34  -992.849125  -3.39  -2.01    +77.4677
iter:  65 07:28:10  -992.845491  -4.39  -2.97    +77.6234
iter:  66 07:30:47  -992.850135c -4.87  -3.07    +77.7811
iter:  67 07:33:24  -992.893677c -4.49  -3.11    +78.1746
iter:  68 07:36:01  -992.870269c -4.95  -2.99    +78.0896
iter:  69 07:38:38  -992.896375c -4.77  -3.17    +78.1917
iter:  70 07:41:14  -992.900318c -4.87  -3.04    +78.1948
iter:  71 07:43:51  -992.885514c -5.01  -3.04    +78.2799
iter:  72 07:46:28  -992.887582c -5.23  -3.28    +78.2500
iter:  73 07:49:05  -992.894994c -5.23  -3.29    +78.3168
iter:  74 07:51:42  -992.905543c -4.86  -3.26    +78.4518
iter:  75 07:54:19  -992.905103c -5.40  -3.29    +78.4228
iter:  76 07:56:55  -992.956300c -4.86  -3.34    +78.3953
iter:  77 07:59:33  -992.916107c -5.01  -2.94    +78.3947
iter:  78 08:02:09  -992.929096c -5.10  -3.26    +78.3628
iter:  79 08:04:46  -992.930573c -5.13  -3.19    +78.3524
iter:  80 08:07:23  -992.923442c -5.10  -3.08    +78.5463
iter:  81 08:10:00  -992.932602c -5.25  -3.26    +78.5090
iter:  82 08:12:36  -993.221788  -4.12  -3.16    +78.4828
iter:  83 08:15:13  -992.932000  -4.48  -2.55    +78.4727
iter:  84 08:17:50  -992.941192  -5.16  -3.33    +78.4466
iter:  85 08:20:26  -992.930586c -5.03  -3.33    +78.4684
iter:  86 08:23:03  -992.924844c -5.27  -3.26    +78.6069
iter:  87 08:25:40  -992.940990c -5.14  -3.36    +78.5007
iter:  88 08:28:17  -992.991075c -4.63  -3.30    +78.7889
iter:  89 08:30:54  -992.962004c -4.38  -2.85    +78.2906
iter:  90 08:33:31  -992.959574c -4.92  -3.20    +78.2490
iter:  91 08:36:08  -992.974290c -5.01  -3.26    +78.1607
iter:  92 08:38:44  -993.020433c -4.71  -3.20    +78.1588
iter:  93 08:41:21  -992.990793c -4.74  -2.89    +78.1705
iter:  94 08:43:58  -993.341505  -4.05  -3.17    +78.1517
iter:  95 08:46:34  -992.998140  -4.40  -2.51    +78.0620
iter:  96 08:49:12  -993.023829  -4.67  -3.25    +78.0149
iter:  97 08:51:48  -993.008300c -5.46  -3.17    +78.0386
iter:  98 08:54:25  -993.035374c -4.67  -3.32    +77.9540
iter:  99 08:57:01  -993.028810c -4.90  -3.08    +77.8924
iter: 100 08:59:38  -993.044512c -5.19  -3.33    +77.8206
iter: 101 09:02:15  -993.027531c -5.16  -3.32    +77.7995
iter: 102 09:04:52  -993.086860c -4.32  -3.25    +77.6069
iter: 103 09:07:29  -993.082526c -5.43  -3.08    +77.6256
iter: 104 09:10:06  -993.179787c -4.60  -3.13    +77.6208
iter: 105 09:12:43  -993.134393c -4.80  -2.79    +77.5623
iter: 106 09:15:20  -993.113421c -4.70  -2.91    +77.4382
iter: 107 09:17:57  -993.228337c -4.22  -3.13    +77.4432
iter: 108 09:20:34  -993.120104c -4.67  -2.74    +77.3994
iter: 109 09:23:11  -993.131641c -4.88  -3.19    +77.4023
iter: 110 09:25:48  -993.181893c -4.77  -3.23    +77.3117
iter: 111 09:28:25  -993.152822c -5.15  -2.92    +77.3407
iter: 112 09:31:03  -993.186174c -4.93  -3.06    +77.0027
iter: 113 09:33:40  -993.160137c -4.91  -2.92    +76.8995
iter: 114 09:36:17  -993.176528c -4.54  -3.11    +76.8557
iter: 115 09:38:53  -993.151055c -4.47  -2.99    +76.8554
iter: 116 09:41:31  -993.171532c -4.39  -3.22    +76.9479
iter: 117 09:44:08  -993.163533c -4.68  -2.99    +76.9999
iter: 118 09:46:45  -993.139633c -5.01  -3.09    +76.8394
iter: 119 09:49:22  -993.141678c -5.31  -3.37    +76.9005
iter: 120 09:51:59  -993.139589c -5.60  -3.38    +76.9120
iter: 121 09:54:36  -993.140801c -5.80  -3.62    +76.9045
iter: 122 09:57:13  -993.140928c -5.60  -3.49    +76.8900
iter: 123 09:59:50  -993.140014c -5.63  -3.53    +76.9031
iter: 124 10:02:27  -993.142429c -5.77  -3.49    +76.9532
iter: 125 10:05:04  -993.141557c -5.59  -3.47    +76.9178
iter: 126 10:07:41  -993.140499c -5.70  -3.53    +76.9173
iter: 127 10:10:17  -993.139697c -5.82  -3.55    +76.9440
iter: 128 10:12:54  -993.140054c -6.02  -3.67    +76.9548
iter: 129 10:15:31  -993.142893c -5.77  -3.72    +76.9331
iter: 130 10:18:12  -993.139507c -6.03  -3.51    +76.9210
iter: 131 10:21:07  -993.140136c -6.06  -3.67    +76.9460
iter: 132 10:24:00  -993.141514c -5.87  -3.71    +76.9559
iter: 133 10:26:52  -993.141693c -5.74  -3.65    +76.9522
iter: 134 10:29:45  -993.139721c -6.11  -3.59    +76.9492
iter: 135 10:32:37  -993.144092c -5.57  -3.82    +76.9752
iter: 136 10:35:31  -993.146118c -5.52  -3.40    +76.9870
iter: 137 10:38:22  -993.140293c -6.07  -3.40    +76.9370
iter: 138 10:41:14  -993.139955c -6.27  -3.94    +76.9310
iter: 139 10:44:08  -993.140117c -6.09  -3.84    +76.9319
iter: 140 10:46:56  -993.139553c -6.67  -3.85    +76.9316
iter: 141 10:49:33  -993.140286c -6.54  -4.19c   +76.9226
iter: 142 10:52:10  -993.142784c -5.89  -3.90    +76.9244
iter: 143 10:54:47  -993.139331c -6.31  -3.46    +76.9377
iter: 144 10:57:24  -993.139646c -6.88  -4.30c   +76.9318
iter: 145 11:00:01  -993.139631c -6.91  -4.21c   +76.9399
iter: 146 11:02:38  -993.139485c -7.26  -4.22c   +76.9374
iter: 147 11:05:17  -993.139477c -7.71c -4.39c   +76.9398

Converged after 147 iterations.

Dipole moment: (52.179330, 28.911879, -0.009509) |e|*Ang

Total magnetic moment: (0.000000, 0.000000, 76.939761)
Local magnetic moments:
   0 Cr ( 0.000000,  0.000000, -2.147989)
   1 Fe ( 0.000000,  0.000000,  2.535683)
   2 Co ( 0.000000,  0.000000,  1.153074)
   3 Cr ( 0.000000,  0.000000, -2.192236)
   4 Ni ( 0.000000,  0.000000,  0.112182)
   5 Ni ( 0.000000,  0.000000,  0.318981)
   6 Co ( 0.000000,  0.000000,  1.232036)
   7 Cr ( 0.000000,  0.000000, -2.350725)
   8 Co ( 0.000000,  0.000000,  1.355591)
   9 Co ( 0.000000,  0.000000,  1.309994)
  10 Cr ( 0.000000,  0.000000, -2.060259)
  11 Co ( 0.000000,  0.000000,  1.175172)
  12 Co ( 0.000000,  0.000000,  1.481554)
  13 Cr ( 0.000000,  0.000000, -2.434324)
  14 Ni ( 0.000000,  0.000000,  0.233910)
  15 Co ( 0.000000,  0.000000,  0.945600)
  16 Fe ( 0.000000,  0.000000,  2.435115)
  17 Co ( 0.000000,  0.000000,  1.362902)
  18 Cr ( 0.000000,  0.000000,  1.795831)
  19 Ni ( 0.000000,  0.000000,  0.274201)
  20 Cr ( 0.000000,  0.000000, -1.821168)
  21 Ni ( 0.000000,  0.000000,  0.259411)
  22 Co ( 0.000000,  0.000000,  1.295889)
  23 Fe ( 0.000000,  0.000000,  2.148667)
  24 Fe ( 0.000000,  0.000000,  2.187964)
  25 Co ( 0.000000,  0.000000,  0.108905)
  26 Fe ( 0.000000,  0.000000,  2.060040)
  27 Cr ( 0.000000,  0.000000, -0.996333)
  28 Fe ( 0.000000,  0.000000,  1.763945)
  29 Cr ( 0.000000,  0.000000,  0.021610)
  30 Fe ( 0.000000,  0.000000,  1.678793)
  31 Co ( 0.000000,  0.000000,  1.123067)
  32 Ni ( 0.000000,  0.000000,  0.207413)
  33 Co ( 0.000000,  0.000000,  0.893865)
  34 Cr ( 0.000000,  0.000000,  0.213297)
  35 Cr ( 0.000000,  0.000000, -0.089414)
  36 Fe ( 0.000000,  0.000000,  1.871293)
  37 Ni ( 0.000000,  0.000000,  0.318400)
  38 Ni ( 0.000000,  0.000000,  0.313856)
  39 Co ( 0.000000,  0.000000,  1.030010)
  40 Cr ( 0.000000,  0.000000, -0.150557)
  41 Fe ( 0.000000,  0.000000,  2.002117)
  42 Fe ( 0.000000,  0.000000,  2.342300)
  43 Co ( 0.000000,  0.000000,  0.779157)
  44 Fe ( 0.000000,  0.000000,  1.576412)
  45 Cr ( 0.000000,  0.000000, -0.368779)
  46 Ni ( 0.000000,  0.000000,  0.279102)
  47 Ni ( 0.000000,  0.000000,  0.198830)
  48 Cr ( 0.000000,  0.000000, -0.942156)
  49 Fe ( 0.000000,  0.000000,  1.155192)
  50 Cr ( 0.000000,  0.000000, -0.813691)
  51 Ni ( 0.000000,  0.000000,  0.159232)
  52 Co ( 0.000000,  0.000000,  0.778979)
  53 Cr ( 0.000000,  0.000000, -0.838983)
  54 Fe ( 0.000000,  0.000000,  1.522290)
  55 Cr ( 0.000000,  0.000000, -1.075944)
  56 Fe ( 0.000000,  0.000000,  2.008903)
  57 Cr ( 0.000000,  0.000000, -0.910735)
  58 Ni ( 0.000000,  0.000000,  0.191240)
  59 Ni ( 0.000000,  0.000000,  0.160200)
  60 Co ( 0.000000,  0.000000,  0.851418)
  61 Cr ( 0.000000,  0.000000, -1.512342)
  62 Fe ( 0.000000,  0.000000,  1.977446)
  63 Cr ( 0.000000,  0.000000, -1.411297)
  64 Ni ( 0.000000,  0.000000,  0.103139)
  65 Co ( 0.000000,  0.000000,  0.477922)
  66 Fe ( 0.000000,  0.000000,  1.943777)
  67 Co ( 0.000000,  0.000000,  0.581892)
  68 Cr ( 0.000000,  0.000000, -0.901301)
  69 Cr ( 0.000000,  0.000000, -0.724447)
  70 Cr ( 0.000000,  0.000000, -0.345617)
  71 Cr ( 0.000000,  0.000000, -1.122614)
  72 Cr ( 0.000000,  0.000000,  0.698281)
  73 Fe ( 0.000000,  0.000000,  0.977938)
  74 Co ( 0.000000,  0.000000,  0.254547)
  75 Fe ( 0.000000,  0.000000,  2.312861)
  76 Ni ( 0.000000,  0.000000,  0.410624)
  77 Fe ( 0.000000,  0.000000,  2.418516)
  78 Ni ( 0.000000,  0.000000,  0.372014)
  79 Fe ( 0.000000,  0.000000,  2.118691)
  80 Co ( 0.000000,  0.000000,  1.237052)
  81 Fe ( 0.000000,  0.000000,  2.177734)
  82 Co ( 0.000000,  0.000000,  1.164198)
  83 Fe ( 0.000000,  0.000000,  2.201761)
  84 Ni ( 0.000000,  0.000000,  0.517095)
  85 Ni ( 0.000000,  0.000000,  0.364709)
  86 Fe ( 0.000000,  0.000000,  2.175406)
  87 Ni ( 0.000000,  0.000000,  0.237243)
  88 Fe ( 0.000000,  0.000000,  2.102513)
  89 Fe ( 0.000000,  0.000000,  2.236821)
  90 Fe ( 0.000000,  0.000000,  2.064736)
  91 Ni ( 0.000000,  0.000000,  0.381555)
  92 Fe ( 0.000000,  0.000000,  2.263698)
  93 Ni ( 0.000000,  0.000000,  0.433778)
  94 Fe ( 0.000000,  0.000000,  1.916881)
  95 Fe ( 0.000000,  0.000000,  2.108811)
  96 Co ( 0.000000,  0.000000,  1.231690)
  97 Ni ( 0.000000,  0.000000,  0.485629)
  98 Ni ( 0.000000,  0.000000,  0.385350)
  99 Cr ( 0.000000,  0.000000, -0.635598)
 100 Ni ( 0.000000,  0.000000,  0.637363)
 101 Co ( 0.000000,  0.000000,  1.718430)
 102 Fe ( 0.000000,  0.000000,  2.724454)
 103 Co ( 0.000000,  0.000000,  1.383472)
 104 Ni ( 0.000000,  0.000000,  0.433066)
 105 Fe ( 0.000000,  0.000000,  2.671679)
 106 Ni ( 0.000000,  0.000000,  0.571503)
 107 Fe ( 0.000000,  0.000000,  2.564745)
 108 Co ( 0.000000,  0.000000,  1.547965)
 109 Ni ( 0.000000,  0.000000,  0.681547)
 110 Cr ( 0.000000,  0.000000, -2.598704)
 111 Ni ( 0.000000,  0.000000,  0.407783)
 112 Cr ( 0.000000,  0.000000, -2.317801)
 113 Co ( 0.000000,  0.000000,  1.365367)
 114 Co ( 0.000000,  0.000000,  1.637757)
 115 Co ( 0.000000,  0.000000,  1.372570)
 116 Cr ( 0.000000,  0.000000,  2.180077)
 117 Cr ( 0.000000,  0.000000, -2.419521)
 118 Ni ( 0.000000,  0.000000,  0.566815)
 119 Co ( 0.000000,  0.000000,  1.522791)
 120 Ni ( 0.000000,  0.000000,  0.404615)
 121 Ni ( 0.000000,  0.000000,  0.437579)
 122 Co ( 0.000000,  0.000000,  1.626221)
 123 Co ( 0.000000,  0.000000,  1.596424)
 124 Cr ( 0.000000,  0.000000, -2.406290)

Energy contributions relative to reference atoms: (reference = -4451268.207082)

Kinetic:       +249.121041
Potential:     -302.447120
External:        +0.000000
XC:            -982.539238
Entropy (-ST):   -5.677996
Local:          +45.564838
--------------------------
Free energy:   -995.978475
Extrapolated:  -993.139477

Dipole-layer corrected work functions: 4.942522, 4.955348 eV

Spin contamination: 42.975016 electrons
Showing all kpts
                      Up                     Down
 Kpt  Band  Eigenvalues  Occupancy  Eigenvalues  Occupancy
  0   606     -0.05284    0.99622      0.85971    0.02792
  0   607     -0.04340    0.99585      0.86240    0.02720
  0   608     -0.03311    0.99540      0.87431    0.02422
  0   609     -0.01465    0.99448      0.87945    0.02303

  1   606     -0.03418    0.99545      0.85535    0.02913
  1   607     -0.02174    0.99485      0.87016    0.02522
  1   608     -0.01534    0.99452      0.88436    0.02195
  1   609     -0.00433    0.99388      0.89364    0.02005


Fermi level: 0.50469

No gap

Forces in eV/Ang:
  0 Cr    0.11506    0.47575   -0.14139
  1 Fe    0.18727    0.11075   -0.37624
  2 Co   -0.04009   -0.10920    0.24378
  3 Cr    0.48874   -0.75906    0.03857
  4 Ni    0.09809    0.21850   -0.19315
  5 Ni   -0.21145    0.08711   -0.17778
  6 Co   -0.09692    0.00619    0.13763
  7 Cr   -0.51803    0.96239   -0.26856
  8 Co    0.14470   -0.00874    0.24206
  9 Co    0.18444   -0.09452    0.39480
 10 Cr    0.16941    0.03647   -0.34073
 11 Co   -0.01626   -0.00226    0.47637
 12 Co   -0.19233    0.04497    0.10574
 13 Cr   -0.27246   -0.03489   -0.18012
 14 Ni    0.23646   -0.29020    0.06982
 15 Co   -0.12347   -0.01275    0.35043
 16 Fe    0.03531   -0.12085   -0.40545
 17 Co   -0.27494    0.01170   -0.00577
 18 Cr    0.00403   -0.05752   -0.26989
 19 Ni    0.20566    0.08160   -0.06206
 20 Cr   -0.36015   -0.33875    0.04350
 21 Ni    0.01804   -0.08946    0.00802
 22 Co    0.03971   -0.01027    0.00102
 23 Fe   -0.32718    0.27724   -0.26962
 24 Fe    0.14966   -0.23328   -0.10289
 25 Co   -0.43149    0.13688    0.01339
 26 Fe    0.07416   -0.11666    0.07517
 27 Cr   -0.00931    0.30821   -0.02024
 28 Fe   -0.14689    0.42240    0.35681
 29 Cr    0.21398   -0.18231   -0.17277
 30 Fe   -0.15508    0.13411    0.15087
 31 Co    0.13179    0.03841   -0.06118
 32 Ni    0.05729   -0.17037    0.15282
 33 Co    0.10898   -0.11968   -0.00076
 34 Cr    0.04092   -0.10754   -0.03247
 35 Cr    0.19699    0.07188   -0.36135
 36 Fe    0.06775   -0.03134   -0.34811
 37 Ni    0.12391    0.09598   -0.20685
 38 Ni   -0.10622   -0.22538    0.01648
 39 Co   -0.21296   -0.24606   -0.25242
 40 Cr    0.48748   -0.13513    0.02128
 41 Fe   -0.16597   -0.04661   -0.09976
 42 Fe    0.09711    0.02780   -0.38321
 43 Co    0.10598   -0.05037    0.30645
 44 Fe   -0.28738    0.18469   -0.02382
 45 Cr    0.00091   -0.08903    0.18456
 46 Ni   -0.04235   -0.03223   -0.04069
 47 Ni    0.00990   -0.13772    0.03528
 48 Cr    0.20182   -0.11538   -0.12842
 49 Fe    0.13321   -0.07365    0.19461
 50 Cr   -0.38507    0.00726   -0.01339
 51 Ni    0.10495    0.08104   -0.02164
 52 Co    0.14753   -0.02289   -0.13700
 53 Cr   -0.04988   -0.26426   -0.23603
 54 Fe    0.20153    0.07900   -0.31611
 55 Cr    0.00316    0.20568    0.04736
 56 Fe    0.01768   -0.17062   -0.28647
 57 Cr    0.00938   -0.24938   -0.12715
 58 Ni    0.10895   -0.09277   -0.21815
 59 Ni    0.01441   -0.15854   -0.26900
 60 Co    0.04954    0.26074    0.02217
 61 Cr   -0.37248    0.19287   -0.19463
 62 Fe    0.01780   -0.04792   -0.13443
 63 Cr    0.03089   -0.00393   -0.23317
 64 Ni   -0.00988    0.04139   -0.11969
 65 Co   -0.08361    0.14428   -0.20956
 66 Fe   -0.30412    0.12095    0.13835
 67 Co    0.23318    0.02100   -0.21143
 68 Cr   -0.22011    0.05292    0.02539
 69 Cr    0.38899    0.23267   -0.20478
 70 Cr   -0.30526    0.03249   -0.01472
 71 Cr    0.02997   -0.12108    0.06555
 72 Cr    0.37351   -0.08379    0.08201
 73 Fe    0.15708   -0.07587   -0.15884
 74 Co   -0.09638   -0.15469   -0.18273
 75 Fe    0.08814    0.08804   -0.42656
 76 Ni   -0.11351   -0.17574   -0.06093
 77 Fe    0.11813   -0.03323   -0.40358
 78 Ni   -0.10163    0.03074   -0.09467
 79 Fe   -0.06292   -0.01556    0.00124
 80 Co   -0.08455   -0.16901    0.22357
 81 Fe   -0.05037    0.09505    0.24363
 82 Co   -0.11434    0.06517    0.19789
 83 Fe   -0.23391   -0.08870    0.28074
 84 Ni    0.12607   -0.07862    0.02479
 85 Ni   -0.02307    0.20646    0.23663
 86 Fe   -0.09125   -0.14888   -0.34616
 87 Ni    0.02385   -0.00930   -0.14612
 88 Fe    0.09365    0.10354    0.22711
 89 Fe    0.06314   -0.14681    0.19201
 90 Fe   -0.00277    0.02199   -0.00888
 91 Ni    0.06844   -0.02528   -0.31079
 92 Fe   -0.14476    0.20870    0.00999
 93 Ni   -0.04111    0.17684    0.01546
 94 Fe   -0.01806    0.08058    0.06041
 95 Fe   -0.09349   -0.06023    0.20008
 96 Co    0.10535   -0.00822    0.02501
 97 Ni   -0.10870    0.07195   -0.05548
 98 Ni    0.21636    0.03099   -0.03264
 99 Cr   -0.10850   -0.01651   -0.12681
100 Ni    0.03192   -0.02585    0.28911
101 Co   -0.04663   -0.25807   -0.07009
102 Fe    0.01620   -0.27532    0.54948
103 Co   -0.01226   -0.11115    0.03135
104 Ni    0.01207    0.16506    0.34542
105 Fe   -0.04988   -0.00254    0.34258
106 Ni    0.14930   -0.02319    0.19487
107 Fe   -0.01872    0.24906    0.46448
108 Co    0.28963   -0.09434    0.01507
109 Ni   -0.10081    0.16104    0.19152
110 Cr    0.09923    0.01902    0.37311
111 Ni   -0.22315   -0.06220    0.10236
112 Cr   -0.23835   -0.81011    0.18576
113 Co    0.07343   -0.09180   -0.15381
114 Co   -0.25194    0.12382   -0.26192
115 Co   -0.17980    0.12584   -0.31368
116 Cr    0.26515    0.04719    0.69134
117 Cr    0.63841    0.67161    0.45304
118 Ni    0.13780   -0.00151    0.37254
119 Co   -0.27037    0.05181   -0.28921
120 Ni   -0.05917    0.09261    0.19265
121 Ni    0.07531    0.31506    0.17021
122 Co   -0.06083    0.07714    0.21656
123 Co   -0.01295   -0.03198   -0.02532
124 Cr    0.02559   -0.23702    0.40945

Timing:                              incl.     excl.
-----------------------------------------------------------
Forces:                             40.337    40.337   0.2% |
Hamiltonian:                         1.503     0.011   0.0% |
 Atomic:                             0.403     0.003   0.0% |
  XC Correction:                     0.400     0.400   0.0% |
 Calculate atomic Hamiltonians:      0.585     0.585   0.0% |
 Communicate:                        0.106     0.106   0.0% |
 Initialize Hamiltonian:             0.001     0.001   0.0% |
 Poisson:                            0.089     0.089   0.0% |
 XC 3D grid:                         0.309     0.309   0.0% |
LCAO initialization:               293.268     0.443   0.0% |
 LCAO eigensolver:                  15.440     0.013   0.0% |
  Calculate projections:             0.000     0.000   0.0% |
  DenseAtomicCorrection:             0.000     0.000   0.0% |
  Distribute overlap matrix:         9.875     9.875   0.0% |
  Orbital Layouts:                   5.516     5.516   0.0% |
  Potential matrix:                  0.004     0.004   0.0% |
  Sum over cells:                    0.032     0.032   0.0% |
 LCAO to grid:                     275.194   275.194   1.2% |
 Set positions (LCAO WFS):           2.191     1.898   0.0% |
  Basic WFS set positions:           0.003     0.003   0.0% |
  Basis functions set positions:     0.001     0.001   0.0% |
  P tci:                             0.000     0.000   0.0% |
  ST tci:                            0.118     0.118   0.0% |
  mktci:                             0.171     0.171   0.0% |
PWDescriptor:                        0.105     0.105   0.0% |
SCF-cycle:                       23229.093     1.282   0.0% |
 Davidson:                       22650.477  7155.106  30.4% |-----------|
  Apply H:                         367.931   361.756   1.5% ||
   HMM T:                            6.175     6.175   0.0% |
  Subspace diag:                  2460.021     0.049   0.0% |
   calc_h_matrix:                  977.547   654.853   2.8% ||
    Apply H:                       322.695   316.390   1.3% ||
     HMM T:                          6.304     6.304   0.0% |
   diagonalize:                    233.099   233.099   1.0% |
   rotate_psi:                    1249.326  1249.326   5.3% |-|
  calc. matrices:                 5730.763  5150.137  21.8% |--------|
   Apply H:                        580.626   567.169   2.4% ||
    HMM T:                          13.457    13.457   0.1% |
  diagonalize:                    4275.618  4275.618  18.1% |------|
  rotate_psi:                     2661.038  2661.038  11.3% |----|
 Density:                          307.877     0.005   0.0% |
  Atomic density matrices:           3.922     3.922   0.0% |
  Mix:                             143.768   143.768   0.6% |
  Multipole moments:                 0.092     0.092   0.0% |
  Pseudo density:                  160.091   160.085   0.7% |
   Symmetrize density:               0.006     0.006   0.0% |
 Hamiltonian:                      250.200     1.504   0.0% |
  Atomic:                           59.935     0.244   0.0% |
   XC Correction:                   59.691    59.691   0.3% |
  Calculate atomic Hamiltonians:   123.155   123.155   0.5% |
  Communicate:                      15.360    15.360   0.1% |
  Poisson:                           5.347     5.347   0.0% |
  XC 3D grid:                       44.899    44.899   0.2% |
 Orthonormalize:                    19.258     0.000   0.0% |
  calc_s_matrix:                     2.408     2.408   0.0% |
  inverse-cholesky:                  0.895     0.895   0.0% |
  projections:                      11.693    11.693   0.0% |
  rotate_psi_s:                      4.261     4.261   0.0% |
Set symmetry:                        0.001     0.001   0.0% |
Other:                               7.065     7.065   0.0% |
-----------------------------------------------------------
Total:                                     23571.372 100.0%

Date: Thu Apr 20 11:06:01 2023
