
  ___ ___ ___ _ _ _  
 |   |   |_  | | | | 
 | | | | | . | | | | 
 |__ |  _|___|_____|  22.8.0
 |___|_|             

User:   c.zeng@d0093
Date:   Thu Apr 20 14:19:52 2023
Arch:   x86_64
Pid:    147078
CWD:    /home/c.zeng/projects/hea-corrosion/hea-mlp/data-curation/surface-mcmc/dft-jobs/81
Python: 3.8.1
gpaw:   /home/c.zeng/usr/installs/gpaw/source/gpaw-22.8.0/gpaw
_gpaw:  /home/c.zeng/usr/installs/gpaw/source/gpaw-22.8.0/
        _gpaw.cpython-38-x86_64-linux-gnu.so
ase:    /home/c.zeng/.local/lib/python3.8/site-packages/ase-3.22.1-py3.8.egg/ase (version 3.22.1)
numpy:  /home/c.zeng/.local/lib/python3.8/site-packages/numpy (version 1.24.2)
scipy:  /home/c.zeng/.local/lib/python3.8/site-packages/scipy (version 1.10.1)
libxc:  4.2.3
units:  Angstrom and eV
cores: 30
OpenMP: False
OMP_NUM_THREADS: 1

Input parameters:
  convergence: {energy: 0.0001}
  kpts: [2 2 1]
  maxiter: 666
  mode: {ecut: 350.0,
         name: pw}
  occupations: {fixmagmom: False,
                name: fermi-dirac,
                width: 0.1}
  poissonsolver: {dipolelayer: xy}
  spinpol: True
  symmetry: {point_group: False}
  xc: PBE

System changes: positions, numbers, cell, pbc, initial_charges, initial_magmoms 

Initialize ...

species:
  Fe:
    name: Iron
    id: 37abbd8d6c3c35915a9b583b742da910
    Z: 26.0
    valence: 8
    core: 18
    charge: 0.0
    file: /home/c.zeng/usr/data/gpaw-setups-0.9.20000/Fe.PBE.gz
    compensation charges: {type: gauss,
                           rc: 0.33,
                           lmax: 2}
    cutoffs: {filter: 2.06,
              core: 2.67}
    valence states:
      #              energy  rcut
      - 4s(2.00)    -5.291   1.164
      - 4p(0.00)    -1.326   1.058
      - 3d(6.00)    -7.505   1.058
      -  s          21.920   1.164
      -  p          25.885   1.058
      -  d          19.706   1.058
  
    # Using partial waves for Fe as LCAO basis

  Cr:
    name: Chromium
    id: 33f258bda2ca9f93018e70263a35547b
    Z: 24.0
    valence: 6
    core: 18
    charge: 0.0
    file: /home/c.zeng/usr/data/gpaw-setups-0.9.20000/Cr.PBE.gz
    compensation charges: {type: gauss,
                           rc: 0.35,
                           lmax: 2}
    cutoffs: {filter: 2.14,
              core: 3.04}
    valence states:
      #              energy  rcut
      - 4s(1.00)    -4.007   1.164
      - 4p(0.00)    -0.989   1.217
      - 3d(5.00)    -2.913   1.111
      -  s          23.205   1.164
      -  p          26.223   1.217
      -  d          24.299   1.111
  
    # Using partial waves for Cr as LCAO basis

  Co:
    name: Cobalt
    id: 339d20d5b0b93d2de9531a1bee871d91
    Z: 27.0
    valence: 9
    core: 18
    charge: 0.0
    file: /home/c.zeng/usr/data/gpaw-setups-0.9.20000/Co.PBE.gz
    compensation charges: {type: gauss,
                           rc: 0.32,
                           lmax: 2}
    cutoffs: {filter: 1.87,
              core: 2.55}
    valence states:
      #              energy  rcut
      - 4s(2.00)    -5.469   1.005
      - 4p(0.00)    -1.277   1.058
      - 3d(7.00)    -8.205   1.005
      -  s          21.742   1.005
      -  p          25.934   1.058
      -  d          19.007   1.005
  
    # Using partial waves for Co as LCAO basis

  Ni:
    name: Nickel
    id: 0d9f38a9d6e76a2886f07bb4381f212b
    Z: 28.0
    valence: 16
    core: 12
    charge: 0.0
    file: /home/c.zeng/usr/data/gpaw-setups-0.9.20000/Ni.PBE.gz
    compensation charges: {type: gauss,
                           rc: 0.36,
                           lmax: 2}
    cutoffs: {filter: 2.14,
              core: 1.98}
    valence states:
      #              energy  rcut
      - 4s(2.00)    -5.642   1.164
      - 3p(6.00)   -71.394   1.207
      - 4p(0.00)    -1.226   1.207
      - 3d(8.00)    -8.875   1.138
      -  s          21.570   1.164
      -  d          18.337   1.138
  
    # Using partial waves for Ni as LCAO basis

  Al:
    name: Aluminium
    id: 0292cae29f5d6237e50f6abdd43a7bdd
    Z: 13.0
    valence: 3
    core: 10
    charge: 0.0
    file: /home/c.zeng/usr/data/gpaw-setups-0.9.20000/Al.PBE.gz
    compensation charges: {type: gauss,
                           rc: 0.34,
                           lmax: 2}
    cutoffs: {filter: 1.91,
              core: 2.36}
    valence states:
      #              energy  rcut
      - 3s(2.00)    -7.753   1.085
      - 3p(1.00)    -2.712   1.085
      -  s          19.459   1.085
      -  p          24.499   1.085
      -  d           0.000   1.085
  
    # Using partial waves for Al as LCAO basis

Reference energy: -4275894.041763  # eV

Spin-polarized calculation.
Magnetic moment: 165.900000

Convergence criteria:
 Maximum [total energy] change in last 3 cyles: 0.0001 eV / electron
 Maximum integral of absolute [dens]ity change: 0.0001 electrons / valence electron
 Maximum integral of absolute [eigenst]ate change: 4e-08 eV^2 / valence electron
 Maximum number of scf [iter]ations: 666
 (Square brackets indicate name in SCF output, whereas a 'c' in
 the SCF output indicates the quantity has converged.)

Symmetries present (total): 1

  ( 1  0  0)
  ( 0  1  0)
  ( 0  0  1)

4 k-points: 2 x 2 x 1 Monkhorst-Pack grid
2 k-points in the irreducible part of the Brillouin zone
       k-points in crystal coordinates                weights
   0:     0.25000000   -0.25000000    0.00000000          2/4
   1:     0.25000000    0.25000000    0.00000000          2/4

Wave functions: Plane wave expansion
  Cutoff energy: 350.000 eV
  Number of coefficients (min, max): 58901, 58943
  Pulay-stress correction: 0.000000 eV/Ang^3 (de/decut=0.000000)
  Using FFTW library
  ScaLapack parameters: grid=1x1, blocksize=None
  Wavefunction extrapolation:
    Improved wavefunction reuse through dual PAW basis 

Occupation numbers: Fermi-Dirac:
  width: 0.1000  # eV
 

Eigensolver
   Davidson(niter=2) 

Densities:
  Coarse grid: 54*54*128 grid
  Fine grid: 108*108*256 grid
  Total Charge: 0.000000 

Density mixing:
  Method: difference
  Backend: pulay
  Linear mixing parameter: 0.05
  old densities: 5
  Damping of long wavelength oscillations: 50 

Hamiltonian:
  XC and Coulomb potentials evaluated on a 108*108*256 grid
  Using the PBE Exchange-Correlation functional
  External potential:
    NoExternalPotential
 

XC parameters: PBE with 2 nearest neighbor stencil

Memory estimate:
  Process memory now: 367.71 MiB
  Calculator: 2335.53 MiB
    Density: 17.84 MiB
      Arrays: 6.75 MiB
      Localized functions: 8.39 MiB
      Mixer: 2.70 MiB
    Hamiltonian: 5.27 MiB
      Arrays: 5.01 MiB
      XC: 0.00 MiB
      Poisson: 0.00 MiB
      vbar: 0.25 MiB
    Wavefunctions: 2312.43 MiB
      Arrays psit_nG: 1458.82 MiB
      Eigensolver: 834.29 MiB
      Projections: 3.66 MiB
      Projectors: 1.14 MiB
      PW-descriptor: 14.51 MiB

Total number of cores used: 30
Parallelization over k-points: 2
Domain decomposition: 1 x 3 x 5

Number of atoms: 125
Number of atomic orbitals: 1185
Number of bands in calculation: 811
Number of valence electrons: 1179
Bands to converge: occupied

... initialized

Initializing position-dependent things.

Density initialized from atomic densities
Creating initial wave functions:
  811 bands from LCAO basis set

                                                                  
                                                                  
                                                                  
                                                                  
                             Cr                       Cr          
                               Ni    Co    Ni    Cr    Ni         
                          Co     Ni    Cr    Cr    Co             
                                Fe    Co    Fe    Al    Cr        
                Co    Cr   NCr   CFe    FAl   Cr    Ni            
           Ni     Co   FCo   FCo   FCo   Cr     Ni   Ni           
             Cr    Co     FeCo    Ni    Fe     Fe                 
                  Fe    NNi   CCr   CFe   CNi   ANi               
              Fe   NNi   CNi   CCFe  FNCr  NNi   Co               
               Fe    Fe    Cr    Ni     Co                        
                          Co    NFe   CFe   CNi   FNi   Al        
           Fe    Cr   ACr  CCFe   FCr   CFe   CFe   Ni            
            Ni    Fe    Fe    Co    Ni                            
                       Co    Cr    Al    Cr    Cr                 
       Ni    Cr   CCr    Co    NFe   Co    Ni                     
              Cr    Co    Cr     Cr    Fe                         
                                                                  
                                                                  
                                                                  
                                                                  
                                                                  

Positions:
   0 Fe    12.486468    1.462777   10.528605    ( 0.0000,  0.0000,  1.5000)
   1 Cr     2.491286    1.427324   10.624355    ( 0.0000,  0.0000,  2.0000)
   2 Co     4.996443    1.433664   10.615695    ( 0.0000,  0.0000,  2.1000)
   3 Cr     7.497692    1.450585   10.618513    ( 0.0000,  0.0000,  2.0000)
   4 Cr     9.980354    1.438381   10.617016    ( 0.0000,  0.0000,  2.1000)
   5 Ni    13.725570    3.599047   10.613993    ( 0.0000,  0.0000,  2.1000)
   6 Co     3.721032    3.570702   10.596763    ( 0.0000,  0.0000,  1.5000)
   7 Co     6.265421    3.568181   10.621801    ( 0.0000,  0.0000,  2.0000)
   8 Ni     8.741341    3.586865   10.615549    ( 0.0000,  0.0000,  2.0000)
   9 Co    11.233064    3.610428   10.573163    ( 0.0000,  0.0000,  0.0000)
  10 Cr    14.927431    5.761281   10.554435    ( 0.0000,  0.0000,  1.5000)
  11 Co     5.002416    5.751707   10.362584    ( 0.0000,  0.0000,  0.0000)
  12 Cr     7.528897    5.754942   10.601782    ( 0.0000,  0.0000,  1.5000)
  13 Al     9.984614    5.751426   10.596909    ( 0.0000,  0.0000,  2.1000)
  14 Cr    12.467830    5.774643   10.569993    ( 0.0000,  0.0000,  0.0000)
  15 Ni    16.185528    7.952943   10.517715    ( 0.0000,  0.0000,  0.0000)
  16 Co     6.281890    7.953062   10.585785    ( 0.0000,  0.0000,  2.0000)
  17 Cr     8.751632    7.929564   10.589659    ( 0.0000,  0.0000,  2.0000)
  18 Co    11.232798    7.933199   10.565472    ( 0.0000,  0.0000,  0.0000)
  19 Co    13.711755    7.928211   10.595530    ( 0.0000,  0.0000,  2.0000)
  20 Al    17.465073   10.103493   10.559367    ( 0.0000,  0.0000,  2.1000)
  21 Ni     7.524528   10.087482   10.585491    ( 0.0000,  0.0000,  2.1000)
  22 Cr     9.999339   10.092837   10.628699    ( 0.0000,  0.0000,  2.1000)
  23 Co    12.492524   10.103136   10.590364    ( 0.0000,  0.0000,  1.5000)
  24 Fe    14.967562   10.103591   10.598553    ( 0.0000,  0.0000,  1.5000)
  25 Ni     0.039549    0.061487   12.592509    ( 0.0000,  0.0000,  0.0000)
  26 Cr     2.543839    0.004196   12.633574    ( 0.0000,  0.0000,  2.1000)
  27 Cr     5.007959    0.016292   12.619485    ( 0.0000,  0.0000,  1.5000)
  28 Al    13.725047   10.821613   12.614847    ( 0.0000,  0.0000,  1.5000)
  29 Fe     9.941746    0.020015   12.634836    ( 0.0000,  0.0000,  2.1000)
  30 Ni     1.280557    2.197634   12.622449    ( 0.0000,  0.0000,  2.0000)
  31 Fe     3.757003    2.159238   12.617870    ( 0.0000,  0.0000,  0.0000)
  32 Fe     6.259391    2.150539   12.632283    ( 0.0000,  0.0000,  0.0000)
  33 Co     8.729061    2.160536   12.640942    ( 0.0000,  0.0000,  1.5000)
  34 Ni    11.206426    2.199527   12.600112    ( 0.0000,  0.0000,  0.0000)
  35 Fe    14.980028    4.321894   12.623066    ( 0.0000,  0.0000,  1.5000)
  36 Al     5.000637    4.306532   12.605865    ( 0.0000,  0.0000,  0.0000)
  37 Cr     7.511972    4.316766   12.613115    ( 0.0000,  0.0000,  2.0000)
  38 Fe     9.977581    4.334444   12.603575    ( 0.0000,  0.0000,  2.0000)
  39 Fe    12.466237    4.352219   12.609857    ( 0.0000,  0.0000,  0.0000)
  40 Ni    16.217374    6.438246   12.562775    ( 0.0000,  0.0000,  2.1000)
  41 Co     6.249088    6.441384   12.586551    ( 0.0000,  0.0000,  2.1000)
  42 Fe     8.734867    6.480104   12.598380    ( 0.0000,  0.0000,  2.1000)
  43 Fe    11.217541    6.497393   12.580210    ( 0.0000,  0.0000,  1.5000)
  44 Ni    13.747589    6.470530   12.591629    ( 0.0000,  0.0000,  0.0000)
  45 Co     4.965631    8.600697   12.619661    ( 0.0000,  0.0000,  0.0000)
  46 Cr     7.527050    8.647229   12.603517    ( 0.0000,  0.0000,  2.0000)
  47 Fe     9.992787    8.639093   12.602137    ( 0.0000,  0.0000,  0.0000)
  48 Ni    12.461146    8.678950   12.599202    ( 0.0000,  0.0000,  2.1000)
  49 Co    14.923147    8.662851   12.605102    ( 0.0000,  0.0000,  0.0000)
  50 Fe     1.264555    0.726556   14.701676    ( 0.0000,  0.0000,  2.1000)
  51 Cr     3.750060    0.743838   14.683888    ( 0.0000,  0.0000,  1.5000)
  52 Cr     6.237655    0.730758   14.677812    ( 0.0000,  0.0000,  2.1000)
  53 Fe     8.726659    0.737641   14.712772    ( 0.0000,  0.0000,  2.0000)
  54 Cr    11.216460    0.725550   14.709367    ( 0.0000,  0.0000,  2.1000)
  55 Fe     2.513395    2.883675   14.691579    ( 0.0000,  0.0000,  1.5000)
  56 Fe     4.990849    2.893120   14.684241    ( 0.0000,  0.0000,  2.0000)
  57 Cr     7.488486    2.893629   14.696334    ( 0.0000,  0.0000,  0.0000)
  58 Ni     9.972278    2.890664   14.692489    ( 0.0000,  0.0000,  2.0000)
  59 Co    12.467576    2.877141   14.691667    ( 0.0000,  0.0000,  0.0000)
  60 Ni     3.758526    5.050346   14.670151    ( 0.0000,  0.0000,  2.0000)
  61 Fe     6.246120    5.038056   14.669564    ( 0.0000,  0.0000,  1.5000)
  62 Co     8.732126    5.049902   14.667773    ( 0.0000,  0.0000,  1.5000)
  63 Ni    11.205583    5.023028   14.695277    ( 0.0000,  0.0000,  1.5000)
  64 Ni    13.756582    5.017781   14.684505    ( 0.0000,  0.0000,  2.0000)
  65 Ni     5.010694    7.182699   14.702674    ( 0.0000,  0.0000,  1.5000)
  66 Co     7.485228    7.189460   14.657588    ( 0.0000,  0.0000,  0.0000)
  67 Co     9.946463    7.198159   14.653068    ( 0.0000,  0.0000,  2.1000)
  68 Co    12.473405    7.201264   14.677166    ( 0.0000,  0.0000,  0.0000)
  69 Ni    15.017763    7.213900   14.645054    ( 0.0000,  0.0000,  2.1000)
  70 Co     6.251064    9.372532   14.712302    ( 0.0000,  0.0000,  2.1000)
  71 Ni     8.729758    9.372705   14.658410    ( 0.0000,  0.0000,  0.0000)
  72 Fe    11.200962    9.406124   14.647901    ( 0.0000,  0.0000,  1.5000)
  73 Fe    13.749704    9.394894   14.665366    ( 0.0000,  0.0000,  2.0000)
  74 Ni    16.223386    9.399309   14.720785    ( 0.0000,  0.0000,  1.5000)
  75 Cr    12.479408    1.425961   16.738106    ( 0.0000,  0.0000,  1.5000)
  76 Fe     2.490684    1.454436   16.739222    ( 0.0000,  0.0000,  1.5000)
  77 Ni     4.964072    1.458060   16.748615    ( 0.0000,  0.0000,  2.0000)
  78 Ni     7.493576    1.474137   16.738664    ( 0.0000,  0.0000,  1.5000)
  79 Fe     9.990724    1.450314   16.751932    ( 0.0000,  0.0000,  2.0000)
  80 Ni    13.736871    3.597619   16.749671    ( 0.0000,  0.0000,  2.1000)
  81 Fe     3.731782    3.620695   16.737637    ( 0.0000,  0.0000,  2.0000)
  82 Ni     6.217757    3.600962   16.741893    ( 0.0000,  0.0000,  0.0000)
  83 Cr     8.739843    3.608427   16.720025    ( 0.0000,  0.0000,  2.1000)
  84 Fe    11.236517    3.591755   16.778291    ( 0.0000,  0.0000,  2.0000)
  85 Ni    14.987780    5.779273   16.714506    ( 0.0000,  0.0000,  0.0000)
  86 Fe     4.996827    5.757928   16.729565    ( 0.0000,  0.0000,  1.5000)
  87 Fe     7.493878    5.760427   16.738488    ( 0.0000,  0.0000,  2.0000)
  88 Fe     9.975457    5.766269   16.736932    ( 0.0000,  0.0000,  2.0000)
  89 Cr    12.478104    5.731140   16.775473    ( 0.0000,  0.0000,  1.5000)
  90 Ni    16.238159    7.937775   16.730328    ( 0.0000,  0.0000,  2.0000)
  91 Ni     6.231444    7.940404   16.765522    ( 0.0000,  0.0000,  0.0000)
  92 Cr     8.728840    7.936931   16.735611    ( 0.0000,  0.0000,  0.0000)
  93 Fe    11.192557    7.913866   16.746149    ( 0.0000,  0.0000,  0.0000)
  94 Cr    13.768802    7.904897   16.753722    ( 0.0000,  0.0000,  1.5000)
  95 Cr    17.466742   10.100767   16.763996    ( 0.0000,  0.0000,  2.0000)
  96 Fe     7.483726   10.114128   16.752695    ( 0.0000,  0.0000,  0.0000)
  97 Co     9.946168   10.127316   16.729242    ( 0.0000,  0.0000,  0.0000)
  98 Fe    12.492406   10.089342   16.764671    ( 0.0000,  0.0000,  0.0000)
  99 Al    15.005292   10.118575   16.753076    ( 0.0000,  0.0000,  2.0000)
 100 Cr     6.250979   10.817826   18.755486    ( 0.0000,  0.0000,  2.1000)
 101 Cr     2.491992    0.007607   18.757365    ( 0.0000,  0.0000,  2.0000)
 102 Co     4.959039    0.011376   18.813253    ( 0.0000,  0.0000,  1.5000)
 103 Fe     7.505721    0.033872   18.830425    ( 0.0000,  0.0000,  0.0000)
 104 Cr    16.226478   10.816744   18.766934    ( 0.0000,  0.0000,  1.5000)
 105 Ni     1.262456    2.149912   18.735438    ( 0.0000,  0.0000,  2.1000)
 106 Co     3.733330    2.172036   18.731769    ( 0.0000,  0.0000,  2.1000)
 107 Co     6.235561    2.176310   18.762208    ( 0.0000,  0.0000,  0.0000)
 108 Co     8.740232    2.176277   18.742160    ( 0.0000,  0.0000,  2.0000)
 109 Co    11.216255    2.130427   18.758333    ( 0.0000,  0.0000,  1.5000)
 110 Co     2.521812    4.343315   18.747649    ( 0.0000,  0.0000,  2.1000)
 111 Cr     4.991012    4.329273   18.757688    ( 0.0000,  0.0000,  0.0000)
 112 Cr     7.490880    4.334898   18.725399    ( 0.0000,  0.0000,  2.1000)
 113 Fe     9.943770    4.322230   18.730184    ( 0.0000,  0.0000,  2.0000)
 114 Al    12.464525    4.326265   18.943816    ( 0.0000,  0.0000,  0.0000)
 115 Co    16.224051    6.495359   18.723022    ( 0.0000,  0.0000,  2.0000)
 116 Co     6.226814    6.495348   18.761650    ( 0.0000,  0.0000,  0.0000)
 117 Ni     8.730619    6.495759   18.735203    ( 0.0000,  0.0000,  1.5000)
 118 Cr    11.207915    6.503819   18.742835    ( 0.0000,  0.0000,  2.1000)
 119 Cr    13.765796    6.524169   18.782109    ( 0.0000,  0.0000,  0.0000)
 120 Ni    17.450702    8.660601   18.763558    ( 0.0000,  0.0000,  0.0000)
 121 Ni     7.490686    8.670024   18.761621    ( 0.0000,  0.0000,  1.5000)
 122 Co     9.981419    8.673010   18.727630    ( 0.0000,  0.0000,  2.1000)
 123 Ni    12.489241    8.635804   18.838438    ( 0.0000,  0.0000,  0.0000)
 124 Cr    14.988874    8.667774   18.729832    ( 0.0000,  0.0000,  2.1000)

Unit cell:
           periodic     x           y           z      points  spacing
  1. axis:    yes   12.474800    0.000000    0.000000    54     0.2001
  2. axis:    yes    6.246240   10.818800    0.000000    54     0.2003
  3. axis:    no     0.000000    0.000000   29.353100   128     0.2293

  Lengths:  12.474800  12.492476  29.353100
  Angles:   90.000000  90.000000  59.999988

Effective grid spacing dv^(1/3) = 0.2198

     iter     time        total  log10-change:  magmom
                         energy  eigst   dens
iter:   1 14:26:47 -1055.463793                  +165.5126
iter:   2 14:29:07 -2005.420280  +0.33  -1.22    +132.2227
iter:   3 14:31:28 -1434.669728  +0.41  -0.81    +105.1295
iter:   4 14:33:49 -1081.210706  -0.71  -0.98    +69.3840
iter:   5 14:36:10 -1005.427472  -1.33  -1.22    +54.7484
iter:   6 14:38:31  -995.965589  -1.82  -1.34    +48.0962
iter:   7 14:40:52  -990.205145  -1.87  -1.36    +45.3433
iter:   8 14:43:14 -1638.297785  -0.58  -1.38    +45.7329
iter:   9 14:45:34 -1003.069088  -0.74  -0.88    +43.6461
iter:  10 14:47:56  -979.208212  -1.64  -1.35    +41.7785
iter:  11 14:50:17  -968.212268  -1.79  -1.44    +42.7681
iter:  12 14:52:38  -994.310158  -1.55  -1.56    +43.4751
iter:  13 14:55:00  -989.142597  -1.59  -1.44    +44.6673
iter:  14 14:57:20  -970.202432  -1.56  -1.47    +44.1825
iter:  15 14:59:41  -969.165156  -1.86  -1.71    +44.4047
iter:  16 15:02:03 -1047.715847  -1.62  -1.67    +45.8317
iter:  17 15:04:23  -966.849934  -1.82  -1.26    +46.1692
iter:  18 15:06:44  -976.416250  -1.96  -1.74    +48.0828
iter:  19 15:09:05  -964.707175  -2.29  -1.64    +48.3138
iter:  20 15:11:25  -968.578673  -2.44  -1.79    +49.9213
iter:  21 15:13:47  -964.051785  -2.54  -1.74    +52.0007
iter:  22 15:16:08  -979.520066  -2.27  -1.86    +54.0998
iter:  23 15:18:33  -964.329102  -2.53  -1.59    +55.7225
iter:  24 15:20:54  -966.191993  -2.58  -1.90    +58.5251
iter:  25 15:23:15  -967.712170  -2.26  -1.90    +59.6573
iter:  26 15:25:52  -969.780734  -2.44  -1.87    +60.5158
iter:  27 15:28:31  -965.559137  -2.66  -1.80    +62.4293
iter:  28 15:31:09  -969.114084  -2.57  -1.99    +64.6047
iter:  29 15:33:49  -965.801702  -2.64  -1.86    +65.0135
iter:  30 15:36:19  -966.642028  -3.25  -2.00    +66.6599
iter:  31 15:38:41  -966.607714  -3.01  -1.99    +68.1913
iter:  32 15:41:02  -969.766790  -2.65  -2.03    +69.6672
iter:  33 15:43:22  -967.115736  -2.71  -1.90    +69.9527
iter:  34 15:45:45  -967.433857  -2.99  -2.07    +70.7057
iter:  35 15:48:05  -971.148376  -2.41  -2.12    +71.7538
iter:  36 15:50:27  -968.260555  -2.71  -1.92    +72.0344
iter:  37 15:52:48  -967.388250  -2.97  -2.06    +72.3176
iter:  38 15:55:08  -968.157751  -3.00  -2.26    +72.8879
iter:  39 15:57:30  -967.201419  -3.28  -2.15    +73.6221
iter:  40 15:59:50  -967.259195  -3.75  -2.33    +74.5088
iter:  41 16:02:12  -967.604592  -3.26  -2.38    +75.9742
iter:  42 16:04:33  -967.953872  -3.33  -2.41    +76.3483
iter:  43 16:06:53  -968.037268  -3.40  -2.37    +76.4736
iter:  44 16:09:15  -968.266771  -3.35  -2.35    +76.4481
iter:  45 16:11:35  -967.904066  -3.47  -2.35    +76.4821
iter:  46 16:13:56  -967.753778  -3.79  -2.52    +76.6922
iter:  47 16:16:17  -967.789416  -3.81  -2.69    +77.0973
iter:  48 16:18:38  -967.835118c -4.00  -2.71    +77.2044
iter:  49 16:20:59  -967.771970c -4.32  -2.66    +77.3247
iter:  50 16:23:20  -967.802804c -4.45  -2.82    +77.5778
iter:  51 16:25:41  -967.852670c -4.24  -2.84    +77.8495
iter:  52 16:28:03  -967.889079c -4.26  -2.83    +77.9140
iter:  53 16:30:24  -967.997053  -3.97  -2.79    +78.0544
iter:  54 16:32:46  -967.988795c -4.01  -2.68    +78.0590
iter:  55 16:35:06  -967.969479c -4.12  -2.69    +78.1043
iter:  56 16:37:27  -967.920472c -4.46  -2.80    +78.2325
iter:  57 16:39:48  -967.951959c -4.34  -3.04    +78.4219
iter:  58 16:42:09  -967.957720c -4.86  -3.01    +78.4592
iter:  59 16:44:30  -967.993450c -4.56  -3.07    +78.5810
iter:  60 16:46:51  -967.952862c -4.64  -3.09    +78.4144
iter:  61 16:49:11  -968.003033c -4.35  -3.07    +78.3914
iter:  62 16:51:33  -967.994589c -4.32  -2.77    +78.5041
iter:  63 16:53:54  -967.986084c -4.57  -3.04    +78.5140
iter:  64 16:56:15  -968.035649c -4.38  -3.25    +78.6850
iter:  65 16:58:36  -968.024183c -4.74  -3.08    +78.7214
iter:  66 17:00:56  -968.056940c -4.62  -3.27    +78.8165
iter:  67 17:03:18  -968.049177c -5.76  -3.36    +78.7954
iter:  68 17:05:38  -968.080303c -4.94  -3.34    +78.8694
iter:  69 17:07:59  -967.942872  -3.72  -3.31    +78.5162
iter:  70 17:10:21  -967.822146  -3.34  -3.38    +78.1414
iter:  71 17:12:42  -967.834490  -4.55  -3.25    +78.1351
iter:  72 17:15:03  -967.856437c -4.86  -3.40    +78.1935
iter:  73 17:17:24  -967.851761c -5.48  -3.42    +78.1791
iter:  74 17:19:44  -967.870179c -5.00  -3.36    +78.2500
iter:  75 17:22:06  -967.864210c -5.53  -3.40    +78.2339
iter:  76 17:24:27  -967.879035c -5.12  -3.45    +78.3922
iter:  77 17:26:48  -967.874984c -5.55  -3.55    +78.3349
iter:  78 17:29:09  -967.892980c -4.95  -3.45    +78.4309
iter:  79 17:31:29  -967.892790c -5.91  -3.59    +78.4197
iter:  80 17:33:51  -967.917633c -4.82  -3.62    +78.5112
iter:  81 17:36:12  -967.915724c -5.39  -3.25    +78.5281
iter:  82 17:38:32  -967.935546c -4.97  -3.68    +78.6227
iter:  83 17:40:53  -967.881153c -4.28  -3.65    +78.4782
iter:  84 17:43:13  -967.800918  -3.50  -3.68    +78.2083
iter:  85 17:45:35  -967.792304c -4.11  -3.35    +78.1841
iter:  86 17:47:55  -967.789082c -3.77  -3.29    +78.2015
iter:  87 17:50:16  -967.792492c -4.21  -3.14    +78.2759
iter:  88 17:52:38  -967.800639c -4.26  -3.11    +78.4140
iter:  89 17:54:58  -967.832057c -4.49  -3.07    +78.4904
iter:  90 17:57:20  -967.831490c -4.64  -2.88    +78.4721
iter:  91 17:59:41  -967.933602c -4.19  -2.96    +78.5030
iter:  92 18:02:02  -967.923116c -3.90  -2.63    +78.5631
iter:  93 18:04:23  -967.862164c -3.88  -2.73    +78.5417
iter:  94 18:06:45  -967.804566  -4.52  -2.79    +78.5259
iter:  95 18:09:06  -967.804443c -4.60  -3.11    +78.5334
iter:  96 18:11:27  -967.881396c -4.10  -3.15    +78.6617
iter:  97 18:13:47  -967.853791c -4.41  -2.86    +78.6802
iter:  98 18:16:10  -967.816163c -4.88  -2.88    +78.7158
iter:  99 18:18:30  -967.838094c -4.65  -3.25    +78.8214
iter: 100 18:20:52  -967.824023c -4.90  -3.08    +78.8295
iter: 101 18:23:13  -967.824577c -5.09  -3.18    +78.8862
iter: 102 18:25:35  -967.826092c -5.18  -3.40    +78.9002
iter: 103 18:27:56  -967.873304c -4.77  -3.44    +78.9416
iter: 104 18:30:18  -967.834154c -4.96  -2.95    +78.9810
iter: 105 18:32:39  -967.843660c -5.02  -3.42    +78.9973
iter: 106 18:35:01  -967.845842c -5.23  -3.26    +79.0044
iter: 107 18:37:21  -967.843098c -5.19  -3.34    +79.0357
iter: 108 18:39:43  -967.847880c -5.48  -3.48    +79.0691
iter: 109 18:42:04  -967.851588c -5.50  -3.56    +79.0841
iter: 110 18:44:26  -967.857694c -5.47  -3.58    +79.0922
iter: 111 18:46:46  -967.859032c -5.56  -3.49    +79.1108
iter: 112 18:49:09  -967.864018c -5.42  -3.65    +79.1218
iter: 113 18:51:30  -967.868045c -5.59  -3.62    +79.1267
iter: 114 18:53:52  -967.872219c -5.41  -3.61    +79.1429
iter: 115 18:56:12  -967.875522c -5.55  -3.52    +79.1504
iter: 116 18:58:34  -967.879806c -5.34  -3.73    +79.1371
iter: 117 19:00:55  -967.884205c -5.55  -3.83    +79.1477
iter: 118 19:03:17  -967.887955c -5.67  -3.85    +79.1556
iter: 119 19:05:38  -967.886334c -5.91  -3.83    +79.1505
iter: 120 19:08:00  -967.897242c -5.15  -3.62    +79.1607
iter: 121 19:10:21  -967.894835c -6.06  -3.40    +79.1611
iter: 122 19:12:43  -967.900829c -5.48  -3.55    +79.1413
iter: 123 19:15:03  -967.897242c -5.97  -3.52    +79.1475
iter: 124 19:17:25  -967.902996c -5.57  -3.60    +79.1731
iter: 125 19:19:45  -967.930556c -4.91  -3.38    +79.1621
iter: 126 19:22:07  -967.907154c -5.27  -3.05    +79.2028
iter: 127 19:24:28  -967.917702c -5.20  -3.67    +79.2099
iter: 128 19:26:49  -967.915096c -5.96  -3.48    +79.2077
iter: 129 19:29:10  -967.923806c -5.18  -3.56    +79.1995
iter: 130 19:31:32  -967.923716c -5.65  -3.47    +79.2015
iter: 131 19:33:52  -967.930646c -5.38  -3.58    +79.2153
iter: 132 19:36:14  -967.949211c -5.22  -3.55    +79.2111
iter: 133 19:38:34  -967.943555c -4.93  -3.11    +79.2255
iter: 134 19:40:56  -967.948316c -5.30  -3.31    +79.2311
iter: 135 19:43:17  -967.956208c -5.25  -3.36    +79.2173
iter: 136 19:45:40  -967.953787c -4.91  -3.22    +79.2300
iter: 137 19:48:01  -967.958748c -5.09  -3.27    +79.2125
iter: 138 19:50:23  -968.007837c -4.61  -3.36    +79.2144
iter: 139 19:52:43  -967.980410c -4.72  -2.93    +79.2166
iter: 140 19:55:05  -967.970475c -5.04  -3.07    +79.3097
iter: 141 19:57:24  -967.980036c -5.14  -3.46    +79.3274
iter: 142 19:59:46  -967.939577c -4.17  -3.44    +79.2304
iter: 143 20:02:06  -967.952581c -5.24  -3.47    +79.2621
iter: 144 20:04:28  -967.953293c -5.65  -3.35    +79.2786
iter: 145 20:06:48  -967.962501c -5.42  -3.46    +79.3214
iter: 146 20:09:09  -967.959543c -5.81  -3.35    +79.3072
iter: 147 20:11:30  -967.956185c -5.33  -3.29    +79.3041
iter: 148 20:13:51  -967.966367c -5.02  -3.50    +79.3559
iter: 149 20:16:11  -967.972339c -5.31  -3.36    +79.3557
iter: 150 20:18:33  -967.974693c -5.14  -3.26    +79.3691
iter: 151 20:20:53  -967.982071c -4.92  -3.38    +79.3992
iter: 152 20:23:14  -967.980749c -5.50  -3.34    +79.3861
iter: 153 20:25:35  -967.990789c -5.19  -3.52    +79.3829
iter: 154 20:27:56  -967.978370c -5.34  -3.46    +79.3914
iter: 155 20:30:16  -967.964073c -4.59  -3.45    +79.3933
iter: 156 20:32:38  -967.974214c -5.07  -3.38    +79.3821
iter: 157 20:34:58  -967.969190c -5.69  -3.43    +79.3809
iter: 158 20:37:19  -967.980751c -5.30  -3.50    +79.4168
iter: 159 20:39:38  -967.978021c -5.61  -3.36    +79.4148
iter: 160 20:41:56  -967.982682c -5.21  -3.30    +79.3922
iter: 161 20:44:14  -967.990745c -5.34  -3.54    +79.3890
iter: 162 20:46:33  -967.992719c -5.43  -3.44    +79.3853
iter: 163 20:48:51  -968.006313c -5.06  -3.48    +79.3817
iter: 164 20:51:09  -968.004469c -5.32  -3.29    +79.3912
iter: 165 20:53:27  -968.015712c -5.09  -3.61    +79.4034
iter: 166 20:55:46  -968.018915c -5.41  -3.46    +79.3862
iter: 167 20:58:05  -968.028150c -5.17  -3.50    +79.3860
iter: 168 21:00:23  -968.026760c -5.52  -3.64    +79.3912
iter: 169 21:02:42  -968.036682c -5.11  -3.40    +79.3748
iter: 170 21:05:00  -968.039384c -5.82  -3.65    +79.3742
iter: 171 21:07:18  -968.053149c -5.07  -3.39    +79.3709
iter: 172 21:09:37  -968.022653c -4.72  -3.55    +79.4214
iter: 173 21:11:55  -967.959371c -3.67  -3.53    +79.5687
iter: 174 21:14:14  -967.933312c -4.00  -3.34    +79.5890
iter: 175 21:16:32  -967.949158c -4.82  -3.29    +79.5516
iter: 176 21:18:50  -967.943636c -4.61  -3.24    +79.5882
iter: 177 21:21:09  -967.935066c -5.05  -3.24    +79.6088
iter: 178 21:23:27  -967.947540c -4.72  -3.30    +79.5979
iter: 179 21:25:45  -967.938945c -4.83  -3.14    +79.5528
iter: 180 21:28:04  -967.960195c -4.90  -3.40    +79.5535
iter: 181 21:30:22  -968.111489  -4.23  -3.12    +79.5678
iter: 182 21:32:41  -967.945695  -4.57  -2.62    +79.6655
iter: 183 21:35:00  -967.953708  -4.89  -3.48    +79.7116
iter: 184 21:37:19  -967.965580c -4.82  -3.59    +79.8368
iter: 185 21:39:38  -967.947525c -4.98  -3.52    +79.6851
iter: 186 21:41:56  -967.948318c -5.00  -3.64    +79.6011
iter: 187 21:44:15  -967.953505c -5.36  -3.48    +79.6668
iter: 188 21:46:34  -967.955283c -5.53  -3.61    +79.6703
iter: 189 21:48:53  -967.953550c -5.99  -3.64    +79.6498
iter: 190 21:51:11  -967.970137c -5.00  -3.61    +79.7456
iter: 191 21:53:31  -967.961926c -5.53  -3.32    +79.6903
iter: 192 21:55:50  -967.967798c -5.30  -3.73    +79.7067
iter: 193 21:58:26  -967.955992c -5.00  -3.72    +79.6814
iter: 194 22:01:17  -967.965830c -5.36  -3.57    +79.7561
iter: 195 22:04:07  -967.969841c -5.63  -3.79    +79.7773
iter: 196 22:07:00  -967.976890c -5.36  -3.78    +79.8329
iter: 197 22:09:53  -967.945287c -4.22  -3.89    +79.6134
iter: 198 22:12:47  -967.922610c -3.74  -3.65    +79.2810
iter: 199 22:15:40  -967.923935c -4.18  -3.29    +79.1386
iter: 200 22:18:33  -967.927303c -4.21  -3.19    +78.9678
iter: 201 22:21:25  -967.924448c -4.32  -3.11    +78.8409
iter: 202 22:24:20  -967.925408c -4.97  -3.06    +78.9516
iter: 203 22:27:11  -968.020410c -4.70  -3.10    +78.9458
iter: 204 22:30:06  -967.917667c -4.66  -2.79    +78.9475
iter: 205 22:33:01  -969.364074  -3.33  -3.04    +79.0158
iter: 206 22:35:58  -967.965800  -3.50  -2.16    +79.0567
iter: 207 22:38:52  -968.162484  -3.46  -2.81    +79.1828
iter: 208 22:41:49  -967.843484  -3.99  -2.56    +79.2130
iter: 209 22:44:43  -967.855485  -4.74  -3.19    +79.2623
iter: 210 22:47:37  -967.865796c -4.91  -3.32    +79.3081
iter: 211 22:50:30  -967.892525c -4.55  -3.31    +79.2897
iter: 212 22:53:20  -967.911460c -4.75  -3.23    +79.4293
iter: 213 22:56:20  -967.901603c -4.96  -3.06    +79.4688
iter: 214 22:59:16  -967.913079c -4.79  -3.46    +79.6417
iter: 215 23:02:06  -967.913227c -5.68  -3.48    +79.6069
iter: 216 23:04:59  -967.930281c -4.92  -3.54    +79.6886
iter: 217 23:07:48  -967.911246c -4.85  -3.48    +79.6275
iter: 218 23:10:39  -967.914662c -5.37  -3.50    +79.6478
iter: 219 23:13:31  -967.936477c -4.92  -3.54    +79.8022
iter: 220 23:16:19  -967.896427c -4.28  -3.43    +79.4861
iter: 221 23:19:08  -967.944011c -4.56  -3.36    +79.6185
iter: 222 23:22:00  -967.914763c -5.10  -3.01    +79.6541
iter: 223 23:24:48  -967.921237c -5.38  -3.60    +79.7148
iter: 224 23:27:41  -967.933844c -5.11  -3.63    +79.7893
iter: 225 23:30:31  -967.905174c -4.56  -3.50    +79.5884
iter: 226 23:33:19  -967.884725c -4.20  -3.63    +79.3809
iter: 227 23:36:11  -967.919900c -4.19  -3.27    +79.7061
iter: 228 23:39:01  -967.920361c -5.17  -3.46    +79.7320
iter: 229 23:41:49  -967.922451c -5.68  -3.67    +79.7677
iter: 230 23:44:41  -967.931145c -5.27  -3.62    +79.7954
iter: 231 23:47:30  -967.940584c -5.40  -3.57    +79.8648
iter: 232 23:50:25  -967.895148c -3.90  -3.51    +79.3623
iter: 233 23:53:21  -967.893891c -4.12  -3.40    +79.0864
iter: 234 23:56:17  -967.892628c -4.97  -3.24    +79.2731
iter: 235 23:59:12  -967.896058c -5.36  -3.38    +79.3034
iter: 236 00:02:08  -967.897086c -5.63  -3.41    +79.3422
iter: 237 00:05:05  -968.036671  -4.43  -3.44    +79.3900
iter: 238 00:08:00  -967.913445  -4.77  -2.68    +79.4067
iter: 239 00:10:57  -968.036522  -4.01  -3.19    +79.4182
iter: 240 00:13:53  -967.922084  -4.18  -2.68    +79.4307
iter: 241 00:16:49  -967.919599c -4.44  -3.06    +79.6603
iter: 242 00:19:44  -967.921555c -4.89  -3.21    +79.7129
iter: 243 00:22:40  -967.938608c -4.81  -3.41    +79.8355
iter: 244 00:25:36  -967.921287c -5.34  -3.59    +79.7298
iter: 245 00:28:30  -967.948063c -4.33  -3.64    +79.5435
iter: 246 00:31:25  -967.952600c -4.18  -2.83    +79.8955
iter: 247 00:34:19  -967.980195c -4.78  -3.49    +79.9914
iter: 248 00:37:10  -967.891921c -3.78  -3.40    +79.6269
iter: 249 00:40:05  -967.846537  -3.93  -3.25    +79.3154
iter: 250 00:43:01  -967.900959c -3.96  -3.30    +79.7295
iter: 251 00:45:58  -967.940121c -4.44  -3.74    +79.8182
iter: 252 00:48:46  -967.883011c -4.25  -3.11    +79.6324
iter: 253 00:51:34  -967.849766c -3.94  -3.37    +79.4617
iter: 254 00:54:23  -967.948104c -3.47  -3.16    +79.9282
iter: 255 00:57:14  -967.862180c -3.69  -3.52    +79.5095
iter: 256 01:00:09  -967.858465c -4.25  -3.32    +79.3336
iter: 257 01:03:05  -967.858319c -5.33  -3.19    +79.3014
iter: 258 01:06:01  -967.874209c -4.63  -3.25    +79.2813
iter: 259 01:08:57  -967.878938c -4.87  -3.33    +79.3291
iter: 260 01:11:52  -967.880101c -4.73  -3.40    +79.2771
iter: 261 01:14:48  -968.008922  -3.97  -3.10    +79.3486
iter: 262 01:17:45  -967.847754  -4.31  -2.70    +79.2636
iter: 263 01:20:40  -967.896053  -4.70  -3.13    +79.4105
iter: 264 01:23:38  -967.930119c -4.19  -3.01    +79.4757
iter: 265 01:26:32  -967.863193c -4.54  -2.85    +79.5347
iter: 266 01:29:30  -967.874961c -4.81  -3.50    +79.7374
iter: 267 01:32:25  -967.865612c -4.86  -3.45    +79.4673
iter: 268 01:35:21  -967.874454c -4.16  -3.58    +79.0906
iter: 269 01:38:15  -967.890081c -4.73  -3.12    +79.4268
iter: 270 01:41:09  -967.885601c -5.15  -3.54    +79.3319
iter: 271 01:44:03  -967.897986c -4.34  -3.48    +79.2992
iter: 272 01:46:54  -967.893270c -3.29  -3.22    +79.5413
iter: 273 01:49:53  -967.877491c -4.00  -3.04    +79.7621
iter: 274 01:52:50  -967.889695c -4.90  -3.16    +79.7657
iter: 275 01:55:30  -967.872698c -4.22  -3.15    +79.8229
iter: 276 01:57:52  -967.857637c -3.84  -3.07    +79.9153
iter: 277 02:00:14  -967.910633c -3.55  -2.92    +79.8642
iter: 278 02:02:36  -967.900699c -4.37  -3.12    +79.8984
iter: 279 02:04:59  -967.898087c -4.59  -3.08    +79.9734
iter: 280 02:07:21  -967.894707c -4.98  -3.09    +79.9495
iter: 281 02:09:43  -968.033632  -4.15  -3.05    +79.9584
iter: 282 02:12:05  -967.924112  -4.29  -2.71    +79.9872
iter: 283 02:14:28  -968.024653c -4.11  -2.99    +80.0469
iter: 284 02:16:50  -968.008593c -4.13  -2.79    +80.0284
iter: 285 02:19:12  -967.952710c -4.51  -2.84    +80.0174
iter: 286 02:21:34  -967.987088c -4.43  -3.30    +80.1117
iter: 287 02:23:56  -968.011640c -4.67  -3.12    +80.0854
iter: 288 02:26:19  -968.056199c -4.34  -3.10    +80.1197
iter: 289 02:28:41  -968.047767c -4.95  -3.05    +80.0857
iter: 290 02:31:04  -968.075688c -4.51  -2.96    +80.1664
iter: 291 02:33:26  -968.059392c -4.49  -2.93    +80.1841
iter: 292 02:35:48  -968.077032c -4.17  -2.97    +80.3360
iter: 293 02:38:10  -968.730707  -3.56  -2.90    +80.3558
iter: 294 02:40:33  -968.112255  -3.64  -2.34    +80.3324
iter: 295 02:42:55  -968.093778  -4.14  -2.80    +80.1964
iter: 296 02:45:18  -968.057045c -4.36  -2.89    +80.1494
iter: 297 02:47:40  -968.064998c -4.57  -3.20    +80.1114
iter: 298 02:50:03  -968.070520c -4.97  -3.28    +80.0910
iter: 299 02:52:25  -968.088196c -4.85  -3.38    +80.0675
iter: 300 02:54:47  -968.072456c -5.45  -3.31    +80.1030
iter: 301 02:57:09  -968.104220c -4.87  -3.38    +80.1678
iter: 302 02:59:31  -968.095151c -4.65  -2.99    +80.0826
iter: 303 03:01:54  -968.104349c -4.93  -3.21    +80.0591
iter: 304 03:04:16  -968.114394c -4.79  -3.18    +80.0119
iter: 305 03:06:39  -968.127280c -4.64  -3.20    +79.9735
iter: 306 03:09:01  -968.137363c -5.13  -3.30    +79.9619
iter: 307 03:11:23  -968.589318  -3.95  -3.30    +79.9514
iter: 308 03:13:45  -968.167085  -4.15  -2.44    +79.8923
iter: 309 03:16:07  -968.193188  -4.66  -3.16    +79.8315
iter: 310 03:18:29  -968.192376c -5.03  -3.17    +79.8431
iter: 311 03:20:52  -968.225545c -4.79  -3.13    +79.7525
iter: 312 03:23:14  -968.229044c -5.40  -3.07    +79.7676
iter: 313 03:25:36  -968.904468  -3.70  -3.02    +79.6332
iter: 314 03:27:58  -968.255839  -4.00  -2.35    +79.6028
iter: 315 03:30:20  -968.277464  -4.48  -3.03    +79.5154
iter: 316 03:32:43  -968.287326c -4.69  -3.13    +79.4872
iter: 317 03:35:05  -968.308423c -4.85  -3.12    +79.4798
iter: 318 03:37:27  -968.382697c -4.19  -3.13    +79.4655
iter: 319 03:39:49  -968.767587  -3.90  -2.96    +79.4629
iter: 320 03:42:11  -968.436206  -4.04  -2.47    +79.4631
iter: 321 03:44:33  -968.434777  -4.30  -2.80    +79.4225
iter: 322 03:46:56  -968.414340c -4.66  -2.88    +79.3266
iter: 323 03:49:18  -968.463622c -4.03  -2.99    +79.3255
iter: 324 03:51:40  -968.443994c -4.37  -2.82    +79.3512
iter: 325 03:54:03  -968.785603  -3.87  -2.87    +79.4308
iter: 326 03:56:25  -968.438912  -4.16  -2.47    +79.4744
iter: 327 03:58:47  -968.483197  -4.54  -2.93    +79.5698
iter: 328 04:01:10  -968.456449c -4.41  -2.82    +79.5638
iter: 329 04:03:31  -968.454836c -4.48  -2.95    +79.5406
iter: 330 04:05:54  -968.464442c -4.77  -2.95    +79.6085
iter: 331 04:08:16  -968.535249c -4.14  -2.96    +79.6954
iter: 332 04:10:39  -968.526757c -4.16  -2.79    +79.7474
iter: 333 04:13:01  -968.493266c -4.29  -2.79    +79.8041
iter: 334 04:15:23  -968.487203c -4.43  -2.98    +79.8780
iter: 335 04:17:45  -968.518932c -4.43  -3.03    +80.0172
iter: 336 04:20:08  -968.497495c -4.57  -2.97    +80.0422
iter: 337 04:22:30  -968.498598c -4.75  -3.15    +80.1170
iter: 338 04:24:52  -968.515483c -4.92  -3.32    +80.2192
iter: 339 04:27:14  -968.515983c -5.50  -3.25    +80.2193
iter: 340 04:29:36  -968.531478c -4.86  -3.23    +80.3832
iter: 341 04:31:58  -968.573253c -4.84  -3.20    +80.5019
iter: 342 04:34:20  -968.547990c -5.11  -2.97    +80.5252
iter: 343 04:36:43  -968.707094  -4.13  -3.12    +80.6110
iter: 344 04:39:05  -968.540446  -4.59  -2.62    +80.5673
iter: 345 04:41:27  -968.549074  -4.84  -3.31    +80.6262
iter: 346 04:43:50  -968.548891c -5.14  -3.23    +80.6654
iter: 347 04:46:12  -968.547906c -5.05  -3.29    +80.6870
iter: 348 04:48:34  -968.558282c -4.97  -3.25    +80.7188
iter: 349 04:50:56  -968.550096c -5.17  -3.26    +80.7459
iter: 350 04:53:19  -968.573963c -4.70  -3.43    +80.7774
iter: 351 04:55:41  -968.565222c -4.85  -3.03    +80.7668
iter: 352 04:58:03  -968.552224c -5.16  -3.13    +80.7713
iter: 353 05:00:25  -968.552918c -5.53  -3.38    +80.8113
iter: 354 05:02:48  -968.550402c -5.87  -3.52    +80.7934
iter: 355 05:05:10  -968.550438c -5.96  -3.66    +80.7946
iter: 356 05:07:33  -968.553738c -5.53  -3.62    +80.7959
iter: 357 05:09:55  -968.581803c -5.04  -3.50    +80.7902
iter: 358 05:12:17  -968.553756c -5.17  -3.02    +80.7947
iter: 359 05:14:40  -968.556191c -5.51  -3.48    +80.8302
iter: 360 05:17:02  -968.551204c -5.37  -3.49    +80.8023
iter: 361 05:19:25  -968.551966c -5.90  -3.55    +80.8003
iter: 362 05:21:47  -968.551216c -6.24  -3.75    +80.7982
iter: 363 05:24:10  -968.551641c -6.23  -3.83    +80.7998
iter: 364 05:26:32  -968.551280c -6.58  -3.65    +80.7989
iter: 365 05:28:54  -968.551120c -6.50  -3.96    +80.7921
iter: 366 05:31:17  -968.553449c -6.14  -3.83    +80.7910
iter: 367 05:33:39  -968.551365c -6.07  -3.74    +80.7849
iter: 368 05:36:02  -968.552491c -5.90  -3.76    +80.7744
iter: 369 05:38:24  -968.558290c -5.65  -3.78    +80.7694
iter: 370 05:40:47  -968.551658c -5.92  -3.37    +80.7712
iter: 371 05:43:09  -968.552028c -6.62  -3.94    +80.7799
iter: 372 05:45:31  -968.551557c -7.14  -4.06c   +80.7711
iter: 373 05:47:53  -968.551877c -7.38  -4.16c   +80.7692
iter: 374 05:50:16  -968.551883c -6.86  -4.16c   +80.7651
iter: 375 05:52:39  -968.552631c -6.26  -4.13c   +80.7655
iter: 376 05:55:02  -968.553464c -6.03  -3.69    +80.7653
iter: 377 05:57:24  -968.551666c -6.38  -3.71    +80.7581
iter: 378 05:59:46  -968.552933c -6.56  -4.23c   +80.7668
iter: 379 06:02:09  -968.551696c -6.66  -3.98    +80.7626
iter: 380 06:04:31  -968.551883c -7.25  -4.13c   +80.7572
iter: 381 06:06:53  -968.551911c -7.63c -4.58c   +80.7540

Converged after 381 iterations.

Dipole moment: (45.973058, 22.693505, -0.013238) |e|*Ang

Total magnetic moment: (0.000000, 0.000000, 80.753996)
Local magnetic moments:
   0 Fe ( 0.000000,  0.000000,  2.574944)
   1 Cr ( 0.000000,  0.000000, -2.220595)
   2 Co ( 0.000000,  0.000000,  0.975613)
   3 Cr ( 0.000000,  0.000000,  1.602140)
   4 Cr ( 0.000000,  0.000000, -2.405421)
   5 Ni ( 0.000000,  0.000000,  0.324205)
   6 Co ( 0.000000,  0.000000,  1.367155)
   7 Co ( 0.000000,  0.000000,  0.769699)
   8 Ni ( 0.000000,  0.000000,  0.155087)
   9 Co ( 0.000000,  0.000000,  1.180303)
  10 Cr ( 0.000000,  0.000000,  2.158349)
  11 Co ( 0.000000,  0.000000,  1.619138)
  12 Cr ( 0.000000,  0.000000, -2.065927)
  13 Al ( 0.000000,  0.000000, -0.023751)
  14 Cr ( 0.000000,  0.000000, -2.425220)
  15 Ni ( 0.000000,  0.000000,  0.468135)
  16 Co ( 0.000000,  0.000000,  1.116572)
  17 Cr ( 0.000000,  0.000000,  1.655570)
  18 Co ( 0.000000,  0.000000,  1.160590)
  19 Co ( 0.000000,  0.000000,  1.437370)
  20 Al ( 0.000000,  0.000000, -0.040818)
  21 Ni ( 0.000000,  0.000000,  0.073514)
  22 Cr ( 0.000000,  0.000000, -1.794758)
  23 Co ( 0.000000,  0.000000,  1.115233)
  24 Fe ( 0.000000,  0.000000,  2.278840)
  25 Ni ( 0.000000,  0.000000,  0.306770)
  26 Cr ( 0.000000,  0.000000,  0.742536)
  27 Cr ( 0.000000,  0.000000, -0.285534)
  28 Al ( 0.000000,  0.000000, -0.047205)
  29 Fe ( 0.000000,  0.000000,  2.161359)
  30 Ni ( 0.000000,  0.000000,  0.344149)
  31 Fe ( 0.000000,  0.000000,  1.741229)
  32 Fe ( 0.000000,  0.000000,  1.257828)
  33 Co ( 0.000000,  0.000000,  0.609341)
  34 Ni ( 0.000000,  0.000000,  0.343346)
  35 Fe ( 0.000000,  0.000000,  2.285521)
  36 Al ( 0.000000,  0.000000, -0.048786)
  37 Cr ( 0.000000,  0.000000, -0.577298)
  38 Fe ( 0.000000,  0.000000,  2.248150)
  39 Fe ( 0.000000,  0.000000,  2.487084)
  40 Ni ( 0.000000,  0.000000,  0.489721)
  41 Co ( 0.000000,  0.000000,  1.117491)
  42 Fe ( 0.000000,  0.000000,  1.629965)
  43 Fe ( 0.000000,  0.000000,  2.211765)
  44 Ni ( 0.000000,  0.000000,  0.502475)
  45 Co ( 0.000000,  0.000000,  1.531099)
  46 Cr ( 0.000000,  0.000000, -1.117281)
  47 Fe ( 0.000000,  0.000000,  1.532744)
  48 Ni ( 0.000000,  0.000000,  0.429124)
  49 Co ( 0.000000,  0.000000,  1.584770)
  50 Fe ( 0.000000,  0.000000,  1.851811)
  51 Cr ( 0.000000,  0.000000, -1.009191)
  52 Cr ( 0.000000,  0.000000, -0.844215)
  53 Fe ( 0.000000,  0.000000,  1.767817)
  54 Cr ( 0.000000,  0.000000, -1.367557)
  55 Fe ( 0.000000,  0.000000,  2.264193)
  56 Fe ( 0.000000,  0.000000,  1.913336)
  57 Cr ( 0.000000,  0.000000, -0.959815)
  58 Ni ( 0.000000,  0.000000,  0.243159)
  59 Co ( 0.000000,  0.000000,  1.359673)
  60 Ni ( 0.000000,  0.000000,  0.463627)
  61 Fe ( 0.000000,  0.000000,  2.045044)
  62 Co ( 0.000000,  0.000000,  1.058969)
  63 Ni ( 0.000000,  0.000000,  0.491994)
  64 Ni ( 0.000000,  0.000000,  0.549886)
  65 Ni ( 0.000000,  0.000000,  0.557829)
  66 Co ( 0.000000,  0.000000,  1.385723)
  67 Co ( 0.000000,  0.000000,  1.362727)
  68 Co ( 0.000000,  0.000000,  1.415708)
  69 Ni ( 0.000000,  0.000000,  0.516378)
  70 Co ( 0.000000,  0.000000,  1.286916)
  71 Ni ( 0.000000,  0.000000,  0.293897)
  72 Fe ( 0.000000,  0.000000,  2.057331)
  73 Fe ( 0.000000,  0.000000,  2.029452)
  74 Ni ( 0.000000,  0.000000,  0.269882)
  75 Cr ( 0.000000,  0.000000, -1.112357)
  76 Fe ( 0.000000,  0.000000,  2.100277)
  77 Ni ( 0.000000,  0.000000,  0.469303)
  78 Ni ( 0.000000,  0.000000,  0.273359)
  79 Fe ( 0.000000,  0.000000,  1.609432)
  80 Ni ( 0.000000,  0.000000,  0.419683)
  81 Fe ( 0.000000,  0.000000,  2.299867)
  82 Ni ( 0.000000,  0.000000,  0.229061)
  83 Cr ( 0.000000,  0.000000, -0.143687)
  84 Fe ( 0.000000,  0.000000,  2.003865)
  85 Ni ( 0.000000,  0.000000,  0.378658)
  86 Fe ( 0.000000,  0.000000,  2.428608)
  87 Fe ( 0.000000,  0.000000,  2.107877)
  88 Fe ( 0.000000,  0.000000,  1.952243)
  89 Cr ( 0.000000,  0.000000,  1.125374)
  90 Ni ( 0.000000,  0.000000,  0.241240)
  91 Ni ( 0.000000,  0.000000,  0.404801)
  92 Cr ( 0.000000,  0.000000, -1.692355)
  93 Fe ( 0.000000,  0.000000,  2.079969)
  94 Cr ( 0.000000,  0.000000, -1.465007)
  95 Cr ( 0.000000,  0.000000,  0.321264)
  96 Fe ( 0.000000,  0.000000,  1.897848)
  97 Co ( 0.000000,  0.000000,  1.304620)
  98 Fe ( 0.000000,  0.000000,  2.367150)
  99 Al ( 0.000000,  0.000000, -0.035998)
 100 Cr ( 0.000000,  0.000000,  1.478058)
 101 Cr ( 0.000000,  0.000000, -2.362325)
 102 Co ( 0.000000,  0.000000,  1.586663)
 103 Fe ( 0.000000,  0.000000,  2.444709)
 104 Cr ( 0.000000,  0.000000, -1.981191)
 105 Ni ( 0.000000,  0.000000,  0.278424)
 106 Co ( 0.000000,  0.000000,  1.442663)
 107 Co ( 0.000000,  0.000000,  1.397708)
 108 Co ( 0.000000,  0.000000,  1.163427)
 109 Co ( 0.000000,  0.000000,  0.896521)
 110 Co ( 0.000000,  0.000000,  1.383129)
 111 Cr ( 0.000000,  0.000000, -2.488497)
 112 Cr ( 0.000000,  0.000000, -2.113205)
 113 Fe ( 0.000000,  0.000000,  2.207503)
 114 Al ( 0.000000,  0.000000, -0.017051)
 115 Co ( 0.000000,  0.000000,  1.302387)
 116 Co ( 0.000000,  0.000000,  1.307528)
 117 Ni ( 0.000000,  0.000000,  0.315470)
 118 Cr ( 0.000000,  0.000000, -1.964446)
 119 Cr ( 0.000000,  0.000000, -1.819052)
 120 Ni ( 0.000000,  0.000000,  0.204210)
 121 Ni ( 0.000000,  0.000000,  0.243631)
 122 Co ( 0.000000,  0.000000,  1.403482)
 123 Ni ( 0.000000,  0.000000,  0.200078)
 124 Cr ( 0.000000,  0.000000,  1.668721)

Energy contributions relative to reference atoms: (reference = -4275894.041763)

Kinetic:       +304.770918
Potential:     -334.797676
External:        +0.000000
XC:            -978.553288
Entropy (-ST):   -5.506663
Local:          +42.781467
--------------------------
Free energy:   -971.305242
Extrapolated:  -968.551911

Dipole-layer corrected work functions: 4.925991, 4.943740 eV

Spin contamination: 41.384160 electrons
Showing all kpts
                      Up                     Down
 Kpt  Band  Eigenvalues  Occupancy  Eigenvalues  Occupancy
  0   587     -0.07558    0.99665      0.86250    0.02448
  0   588     -0.06763    0.99637      0.87693    0.02126
  0   589     -0.05766    0.99600      0.88203    0.02022
  0   590     -0.04905    0.99564      0.89669    0.01751

  1   587     -0.05777    0.99600      0.87435    0.02180
  1   588     -0.05005    0.99568      0.88091    0.02044
  1   589     -0.03859    0.99516      0.89213    0.01831
  1   590     -0.02421    0.99441      0.90315    0.01643


Fermi level: 0.49397

No gap

Forces in eV/Ang:
  0 Fe   -0.08889    0.58987    0.49988
  1 Cr    0.23768    0.54642   -0.25838
  2 Co   -0.24681   -0.05926    0.36678
  3 Cr   -0.47144    0.83966   -0.53993
  4 Cr   -0.39981    0.42572   -0.27579
  5 Ni   -0.09240   -0.02106   -0.17273
  6 Co    0.35942    0.20782   -0.15851
  7 Co   -0.06097    0.26322   -0.00683
  8 Ni   -0.15909    0.06341   -0.22738
  9 Co    0.37031   -0.12667    0.25210
 10 Cr    0.24811    0.04500   -0.43991
 11 Co    0.27835    0.10874    0.92201
 12 Cr   -1.45344    0.31070   -0.09846
 13 Al    0.17019   -0.36816   -1.64967
 14 Cr    0.89737   -0.05657   -0.22944
 15 Ni    0.29449   -0.26101    0.43987
 16 Co   -0.45406   -0.45465    0.44699
 17 Cr   -0.68000    0.57411   -0.33014
 18 Co    0.45723    0.28930    0.29907
 19 Co   -0.17169    0.52934    0.28843
 20 Al    0.85263   -1.12373   -0.59638
 21 Ni   -0.20512   -0.10866   -0.21601
 22 Cr    0.39521   -0.26609   -0.16478
 23 Co   -0.04109   -0.33825    0.01971
 24 Fe   -0.06606   -0.58594   -0.60025
 25 Ni   -0.31921   -0.37755    0.42596
 26 Cr   -0.25776    0.11757   -0.36302
 27 Cr   -0.67939    0.06690   -0.42045
 28 Al    0.46977   -0.32008    0.18227
 29 Fe    0.56939   -0.31664    0.36639
 30 Ni   -0.40593   -0.34881    0.20446
 31 Fe    0.01328   -0.45695   -0.42879
 32 Fe   -0.06603    0.20599   -0.00740
 33 Co    0.00382    0.16834    0.08441
 34 Ni    0.34801   -0.16803    0.27373
 35 Fe   -0.35178   -0.23721    0.00103
 36 Al   -0.46445    0.55204   -0.45531
 37 Cr    0.78848   -0.19751   -0.13197
 38 Fe   -0.23990   -0.81396    0.66973
 39 Fe    0.15015   -0.32882    0.02886
 40 Ni    0.26166    0.55820   -0.10510
 41 Co    0.04564    0.52938   -0.31731
 42 Fe   -0.63166    0.06854    1.00219
 43 Fe    0.51661    0.67854    0.71816
 44 Ni   -0.14955    0.24063    0.52217
 45 Co    0.09090    0.32821    0.19724
 46 Cr   -0.22069   -0.34940   -0.26988
 47 Fe    0.13962    0.00554    0.20170
 48 Ni    0.06189   -0.42095   -0.13655
 49 Co    0.68421   -0.38803   -0.08271
 50 Fe   -0.45886   -0.11607   -0.42068
 51 Cr   -0.10797   -0.09204    0.30568
 52 Cr   -0.37849   -0.15332    0.73123
 53 Fe    0.01579    0.36057   -0.28235
 54 Cr    0.15784   -0.06563   -0.47770
 55 Fe   -0.38511    0.23972   -0.36240
 56 Fe    0.10241   -0.34660    0.26333
 57 Cr    0.15631    0.14050   -0.34935
 58 Ni    0.11369   -0.02164   -0.06715
 59 Co    0.11376   -0.04731    0.09679
 60 Ni   -0.04944    0.09776    0.00187
 61 Fe    0.32686    0.26688    0.03692
 62 Co   -0.00365    0.13087    0.01245
 63 Ni    0.19614    0.29608   -0.13038
 64 Ni   -0.34068    0.38061   -0.15702
 65 Ni    0.15742    0.38039   -0.46711
 66 Co   -0.00638    0.09509   -0.07552
 67 Co    0.16688   -0.00998    0.29225
 68 Co   -0.06748    0.04645   -0.04202
 69 Ni   -0.42233   -0.00279    0.08976
 70 Co   -0.14393    0.16779   -0.49591
 71 Ni    0.03127   -0.16849    0.36467
 72 Fe    0.01216   -0.44446    0.06458
 73 Fe   -0.28110   -0.53031    0.00624
 74 Ni    0.15235   -0.35755   -0.53335
 75 Cr    0.03840    0.50461    0.58468
 76 Fe    0.21292   -0.12136    0.30937
 77 Ni    0.32456   -0.27718    0.05434
 78 Ni   -0.22466   -0.10589    0.24161
 79 Fe    0.07480    0.66424    0.18495
 80 Ni   -0.22367    0.32174   -0.18302
 81 Fe    0.10265   -0.10057    0.31966
 82 Ni    0.00734   -0.00450   -0.08374
 83 Cr    0.06887   -0.10354   -0.08097
 84 Fe   -0.09244   -0.34498   -0.52651
 85 Ni    0.10964   -0.11259    0.33355
 86 Fe    0.11632    0.16268    0.35353
 87 Fe   -0.04040   -0.03570    0.13132
 88 Fe   -0.23311    0.11350   -0.23772
 89 Cr    0.31504    0.70334   -0.14994
 90 Ni   -0.10100   -0.21652   -0.06334
 91 Ni    0.14444   -0.09568   -0.33097
 92 Cr    0.14060    0.01546    0.21533
 93 Fe    0.25169    0.39535    0.05743
 94 Cr   -0.68130    0.18690   -0.39414
 95 Cr    1.04916   -0.52293    0.18620
 96 Fe    0.22295   -0.47327   -0.39614
 97 Co    0.57841   -0.19424    0.22195
 98 Fe   -0.53796   -0.01624    0.29560
 99 Al   -0.77918    0.39420   -1.06694
100 Cr   -0.40234    0.31603    0.25775
101 Cr   -0.00976    0.16126    0.10145
102 Co    0.31480    0.01812   -0.66542
103 Fe   -0.63432    0.38336    0.22000
104 Cr    0.52834    0.64396    0.69750
105 Ni   -0.12835    0.26102    0.28837
106 Co    0.16072   -0.06620    0.18162
107 Co    0.00608   -0.32208   -0.24004
108 Co   -0.18115    0.08472   -0.07668
109 Co   -0.16102    0.02420   -0.10616
110 Co    0.17021    0.00673   -0.22270
111 Cr   -0.97179    0.11909    0.32690
112 Cr    0.72092    0.03877    0.26179
113 Fe    0.00569   -0.17338    0.12120
114 Al    0.39589   -1.13172    0.73719
115 Co    0.13960   -0.11740   -0.16331
116 Co    0.04003   -0.05245   -0.25717
117 Ni   -0.14641    0.29957    0.18972
118 Cr   -0.30566    0.57762   -0.01903
119 Cr    0.32977   -0.33535    0.12321
120 Ni    0.32223   -0.34135   -0.05956
121 Ni    0.00422   -0.42983    0.01703
122 Co   -0.04303   -0.16956   -0.09317
123 Ni   -0.19625    0.23171   -0.36173
124 Cr   -0.18397   -0.83305    0.69161

Timing:                              incl.     excl.
-----------------------------------------------------------
Forces:                             37.710    37.710   0.1% |
Hamiltonian:                         1.507     0.010   0.0% |
 Atomic:                             0.334     0.001   0.0% |
  XC Correction:                     0.333     0.333   0.0% |
 Calculate atomic Hamiltonians:      0.684     0.684   0.0% |
 Communicate:                        0.109     0.109   0.0% |
 Initialize Hamiltonian:             0.000     0.000   0.0% |
 Poisson:                            0.086     0.086   0.0% |
 XC 3D grid:                         0.284     0.284   0.0% |
LCAO initialization:               252.956     0.465   0.0% |
 LCAO eigensolver:                  13.700     0.014   0.0% |
  Calculate projections:             0.000     0.000   0.0% |
  DenseAtomicCorrection:             0.000     0.000   0.0% |
  Distribute overlap matrix:         8.998     8.998   0.0% |
  Orbital Layouts:                   4.657     4.657   0.0% |
  Potential matrix:                  0.003     0.003   0.0% |
  Sum over cells:                    0.027     0.027   0.0% |
 LCAO to grid:                     236.639   236.639   0.4% |
 Set positions (LCAO WFS):           2.152     1.892   0.0% |
  Basic WFS set positions:           0.003     0.003   0.0% |
  Basis functions set positions:     0.001     0.001   0.0% |
  P tci:                             0.000     0.000   0.0% |
  ST tci:                            0.102     0.102   0.0% |
  mktci:                             0.155     0.155   0.0% |
PWDescriptor:                        0.088     0.088   0.0% |
SCF-cycle:                       56563.581    15.192   0.0% |
 Davidson:                       55121.908 17756.088  31.2% |-----------|
  Apply H:                         929.412   913.482   1.6% ||
   HMM T:                           15.930    15.930   0.0% |
  Subspace diag:                  5980.351     0.124   0.0% |
   calc_h_matrix:                 2394.568  1585.254   2.8% ||
    Apply H:                       809.315   793.699   1.4% ||
     HMM T:                         15.615    15.615   0.0% |
   diagonalize:                    549.975   549.975   1.0% |
   rotate_psi:                    3035.684  3035.684   5.3% |-|
  calc. matrices:                14156.823 12658.615  22.3% |--------|
   Apply H:                       1498.208  1466.354   2.6% ||
    HMM T:                          31.854    31.854   0.1% |
  diagonalize:                    9813.113  9813.113  17.3% |------|
  rotate_psi:                     6486.120  6486.120  11.4% |----|
 Density:                          786.796     0.010   0.0% |
  Atomic density matrices:           9.137     9.137   0.0% |
  Mix:                             369.223   369.223   0.6% |
  Multipole moments:                 0.247     0.247   0.0% |
  Pseudo density:                  408.179   408.162   0.7% |
   Symmetrize density:               0.017     0.017   0.0% |
 Hamiltonian:                      622.170     4.085   0.0% |
  Atomic:                          136.760     0.443   0.0% |
   XC Correction:                  136.317   136.317   0.2% |
  Calculate atomic Hamiltonians:   316.363   316.363   0.6% |
  Communicate:                      37.040    37.040   0.1% |
  Poisson:                          13.102    13.102   0.0% |
  XC 3D grid:                      114.821   114.821   0.2% |
 Orthonormalize:                    17.516     0.000   0.0% |
  calc_s_matrix:                     2.173     2.173   0.0% |
  inverse-cholesky:                  0.860     0.860   0.0% |
  projections:                      10.667    10.667   0.0% |
  rotate_psi_s:                      3.816     3.816   0.0% |
Set symmetry:                        0.001     0.001   0.0% |
Other:                               6.957     6.957   0.0% |
-----------------------------------------------------------
Total:                                     56862.800 100.0%

Date: Fri Apr 21 06:07:35 2023
