
  ___ ___ ___ _ _ _  
 |   |   |_  | | | | 
 | | | | | . | | | | 
 |__ |  _|___|_____|  22.8.0
 |___|_|             

User:   c.zeng@d0093
Date:   Mon Apr 17 12:41:35 2023
Arch:   x86_64
Pid:    144496
CWD:    /home/c.zeng/projects/hea-corrosion/hea-mlp/data-curation/surface-md/dft-jobs/46
Python: 3.8.1
gpaw:   /home/c.zeng/usr/installs/gpaw/source/gpaw-22.8.0/gpaw
_gpaw:  /home/c.zeng/usr/installs/gpaw/source/gpaw-22.8.0/
        _gpaw.cpython-38-x86_64-linux-gnu.so
ase:    /home/c.zeng/.local/lib/python3.8/site-packages/ase-3.22.1-py3.8.egg/ase (version 3.22.1)
numpy:  /home/c.zeng/.local/lib/python3.8/site-packages/numpy (version 1.24.2)
scipy:  /home/c.zeng/.local/lib/python3.8/site-packages/scipy (version 1.10.1)
libxc:  4.2.3
units:  Angstrom and eV
cores: 30
OpenMP: False
OMP_NUM_THREADS: 1

Input parameters:
  convergence: {energy: 0.0001}
  kpts: [2 2 1]
  maxiter: 666
  mode: {ecut: 350.0,
         name: pw}
  occupations: {fixmagmom: False,
                name: fermi-dirac,
                width: 0.1}
  poissonsolver: {dipolelayer: xy}
  spinpol: True
  symmetry: {point_group: False}
  xc: PBE

System changes: positions, numbers, cell, pbc, initial_charges, initial_magmoms 

Initialize ...

species:
  Al:
    name: Aluminium
    id: 0292cae29f5d6237e50f6abdd43a7bdd
    Z: 13.0
    valence: 3
    core: 10
    charge: 0.0
    file: /home/c.zeng/usr/data/gpaw-setups-0.9.20000/Al.PBE.gz
    compensation charges: {type: gauss,
                           rc: 0.34,
                           lmax: 2}
    cutoffs: {filter: 1.91,
              core: 2.36}
    valence states:
      #              energy  rcut
      - 3s(2.00)    -7.753   1.085
      - 3p(1.00)    -2.712   1.085
      -  s          19.459   1.085
      -  p          24.499   1.085
      -  d           0.000   1.085
  
    # Using partial waves for Al as LCAO basis

  Ni:
    name: Nickel
    id: 0d9f38a9d6e76a2886f07bb4381f212b
    Z: 28.0
    valence: 16
    core: 12
    charge: 0.0
    file: /home/c.zeng/usr/data/gpaw-setups-0.9.20000/Ni.PBE.gz
    compensation charges: {type: gauss,
                           rc: 0.36,
                           lmax: 2}
    cutoffs: {filter: 2.14,
              core: 1.98}
    valence states:
      #              energy  rcut
      - 4s(2.00)    -5.642   1.164
      - 3p(6.00)   -71.394   1.207
      - 4p(0.00)    -1.226   1.207
      - 3d(8.00)    -8.875   1.138
      -  s          21.570   1.164
      -  d          18.337   1.138
  
    # Using partial waves for Ni as LCAO basis

  Fe:
    name: Iron
    id: 37abbd8d6c3c35915a9b583b742da910
    Z: 26.0
    valence: 8
    core: 18
    charge: 0.0
    file: /home/c.zeng/usr/data/gpaw-setups-0.9.20000/Fe.PBE.gz
    compensation charges: {type: gauss,
                           rc: 0.33,
                           lmax: 2}
    cutoffs: {filter: 2.06,
              core: 2.67}
    valence states:
      #              energy  rcut
      - 4s(2.00)    -5.291   1.164
      - 4p(0.00)    -1.326   1.058
      - 3d(6.00)    -7.505   1.058
      -  s          21.920   1.164
      -  p          25.885   1.058
      -  d          19.706   1.058
  
    # Using partial waves for Fe as LCAO basis

  Cr:
    name: Chromium
    id: 33f258bda2ca9f93018e70263a35547b
    Z: 24.0
    valence: 6
    core: 18
    charge: 0.0
    file: /home/c.zeng/usr/data/gpaw-setups-0.9.20000/Cr.PBE.gz
    compensation charges: {type: gauss,
                           rc: 0.35,
                           lmax: 2}
    cutoffs: {filter: 2.14,
              core: 3.04}
    valence states:
      #              energy  rcut
      - 4s(1.00)    -4.007   1.164
      - 4p(0.00)    -0.989   1.217
      - 3d(5.00)    -2.913   1.111
      -  s          23.205   1.164
      -  p          26.223   1.217
      -  d          24.299   1.111
  
    # Using partial waves for Cr as LCAO basis

  Co:
    name: Cobalt
    id: 339d20d5b0b93d2de9531a1bee871d91
    Z: 27.0
    valence: 9
    core: 18
    charge: 0.0
    file: /home/c.zeng/usr/data/gpaw-setups-0.9.20000/Co.PBE.gz
    compensation charges: {type: gauss,
                           rc: 0.32,
                           lmax: 2}
    cutoffs: {filter: 1.87,
              core: 2.55}
    valence states:
      #              energy  rcut
      - 4s(2.00)    -5.469   1.005
      - 4p(0.00)    -1.277   1.058
      - 3d(7.00)    -8.205   1.005
      -  s          21.742   1.005
      -  p          25.934   1.058
      -  d          19.007   1.005
  
    # Using partial waves for Co as LCAO basis

Reference energy: -4103091.665053  # eV

Spin-polarized calculation.
Magnetic moment: 158.800000

Convergence criteria:
 Maximum [total energy] change in last 3 cyles: 0.0001 eV / electron
 Maximum integral of absolute [dens]ity change: 0.0001 electrons / valence electron
 Maximum integral of absolute [eigenst]ate change: 4e-08 eV^2 / valence electron
 Maximum number of scf [iter]ations: 666
 (Square brackets indicate name in SCF output, whereas a 'c' in
 the SCF output indicates the quantity has converged.)

Symmetries present (total): 1

  ( 1  0  0)
  ( 0  1  0)
  ( 0  0  1)

4 k-points: 2 x 2 x 1 Monkhorst-Pack grid
2 k-points in the irreducible part of the Brillouin zone
       k-points in crystal coordinates                weights
   0:     0.25000000   -0.25000000    0.00000000          2/4
   1:     0.25000000    0.25000000    0.00000000          2/4

Wave functions: Plane wave expansion
  Cutoff energy: 350.000 eV
  Number of coefficients (min, max): 59263, 59339
  Pulay-stress correction: 0.000000 eV/Ang^3 (de/decut=0.000000)
  Using FFTW library
  ScaLapack parameters: grid=1x1, blocksize=None
  Wavefunction extrapolation:
    Improved wavefunction reuse through dual PAW basis 

Occupation numbers: Fermi-Dirac:
  width: 0.1000  # eV
 

Eigensolver
   Davidson(niter=2) 

Densities:
  Coarse grid: 56*56*128 grid
  Fine grid: 112*112*256 grid
  Total Charge: 0.000000 

Density mixing:
  Method: difference
  Backend: pulay
  Linear mixing parameter: 0.05
  old densities: 5
  Damping of long wavelength oscillations: 50 

Hamiltonian:
  XC and Coulomb potentials evaluated on a 112*112*256 grid
  Using the PBE Exchange-Correlation functional
  External potential:
    NoExternalPotential
 

XC parameters: PBE with 2 nearest neighbor stencil

Memory estimate:
  Process memory now: 380.71 MiB
  Calculator: 2263.81 MiB
    Density: 18.78 MiB
      Arrays: 7.39 MiB
      Localized functions: 8.44 MiB
      Mixer: 2.95 MiB
    Hamiltonian: 5.74 MiB
      Arrays: 5.49 MiB
      XC: 0.00 MiB
      Poisson: 0.00 MiB
      vbar: 0.26 MiB
    Wavefunctions: 2239.28 MiB
      Arrays psit_nG: 1414.30 MiB
      Eigensolver: 804.77 MiB
      Projections: 3.48 MiB
      Projectors: 1.15 MiB
      PW-descriptor: 15.58 MiB

Total number of cores used: 30
Parallelization over k-points: 2
Domain decomposition: 1 x 3 x 5

Number of atoms: 125
Number of atomic orbitals: 1149
Number of bands in calculation: 781
Number of valence electrons: 1136
Bands to converge: occupied

... initialized

Initializing position-dependent things.

Density initialized from atomic densities
Creating initial wave functions:
  781 bands from LCAO basis set

                                                                   
                                                                   
                                                                   
                                                                   
                                                                   
                                Co   Ni        Co     Ni           
                         Fe      Ni              CoFe              
                          Ni    Ni    Ni   CrCr                    
                Fe    Cr    Cr     Co  Co   Fe     CFe   Ni        
           Fe     Fe    Co  Co    Fe    Co    Ni                   
             Co    Cr  Al     Cr   CFe Al Co    Ni                 
       Co          Cr     NiCoAle  Cr      Co  Cr    Al            
              Fe    Cr  NiCr   Fe     NiAl      Co                 
                    Cr           Cr Co Fe NiCr        Fe           
                      Ni  CoCo  NCo   Cr       Cr Al               
              Ni  Ni        Cr  FNi  FeFe  CoCo     Ni             
           Co          Al    Co  Fe Ni Ni      Fe  Ni    Cr        
                  Cr   Cr   Co     Ni Co Fe  AFe     Ni            
                       Cr    Cr  Al Fe  CoFe    Ni                 
       Fe    Fe    Fe   Cr    Al    Cr     Cr                      
               Ni  Fe         Co Fe   Ni    Cr                     
                         Co            Al                          
                    Fe      Cr   Ni                                
                                                                   
                                                                   
                                                                   
                                                                   
                                                                   

Positions:
   0 Al    12.548561    1.016060   10.161033    ( 0.0000,  0.0000,  0.0000)
   1 Ni     2.678159    1.106984   11.008678    ( 0.0000,  0.0000,  1.5000)
   2 Fe     4.767835    1.652675    9.206855    ( 0.0000,  0.0000,  2.0000)
   3 Cr     7.919101    1.202113    9.711778    ( 0.0000,  0.0000,  0.0000)
   4 Ni    10.236915    0.948543   10.001421    ( 0.0000,  0.0000,  1.5000)
   5 Cr    14.181401    3.285502   10.446442    ( 0.0000,  0.0000,  0.0000)
   6 Fe     4.054615    3.531757   11.069463    ( 0.0000,  0.0000,  2.0000)
   7 Co     6.305755    3.136141    9.726833    ( 0.0000,  0.0000,  2.1000)
   8 Fe     9.405342    3.363699   10.040145    ( 0.0000,  0.0000,  2.0000)
   9 Ni    11.601053    3.158010   10.181820    ( 0.0000,  0.0000,  1.5000)
  10 Ni    15.156126    5.449472   10.749181    ( 0.0000,  0.0000,  1.5000)
  11 Cr     5.313598    5.274864   10.476761    ( 0.0000,  0.0000,  0.0000)
  12 Co     7.924814    5.466548    9.402058    ( 0.0000,  0.0000,  2.1000)
  13 Cr    10.252760    5.510275    9.691487    ( 0.0000,  0.0000,  0.0000)
  14 Cr    12.958354    5.685258   10.312895    ( 0.0000,  0.0000,  0.0000)
  15 Ni    16.636218    7.451263   10.609615    ( 0.0000,  0.0000,  1.5000)
  16 Co     6.797722    7.160375   10.834442    ( 0.0000,  0.0000,  2.1000)
  17 Al     8.597127    7.820791    9.699589    ( 0.0000,  0.0000,  0.0000)
  18 Co    11.424857    7.567349    9.852172    ( 0.0000,  0.0000,  2.1000)
  19 Fe    13.950984    7.714955   10.394054    ( 0.0000,  0.0000,  2.0000)
  20 Cr    17.765036    9.413881   10.708917    ( 0.0000,  0.0000,  0.0000)
  21 Fe     7.707886    9.793396   10.815873    ( 0.0000,  0.0000,  2.0000)
  22 Co     9.907006   10.207051    9.337581    ( 0.0000,  0.0000,  2.1000)
  23 Al    12.662392   10.143945    9.675401    ( 0.0000,  0.0000,  0.0000)
  24 Ni    15.230623    9.897213   10.460764    ( 0.0000,  0.0000,  1.5000)
  25 Fe    -0.029875   -0.028781   12.396946    ( 0.0000,  0.0000,  2.0000)
  26 Fe     2.517876   -0.278218   12.899636    ( 0.0000,  0.0000,  2.0000)
  27 Fe     4.868222    0.107810   11.590725    ( 0.0000,  0.0000,  2.0000)
  28 Cr    13.557992   10.393761   12.110866    ( 0.0000,  0.0000,  0.0000)
  29 Fe    16.187147   10.888178   12.360898    ( 0.0000,  0.0000,  2.0000)
  30 Fe    13.658851    2.098191   12.664895    ( 0.0000,  0.0000,  2.0000)
  31 Cr     3.826052    1.684992   13.365470    ( 0.0000,  0.0000,  0.0000)
  32 Cr     5.876034    2.274144   11.956580    ( 0.0000,  0.0000,  0.0000)
  33 Al     8.509515    2.060271   12.021867    ( 0.0000,  0.0000,  0.0000)
  34 Fe    11.207344    1.980312   12.123234    ( 0.0000,  0.0000,  2.0000)
  35 Fe    15.026656    4.178376   12.972873    ( 0.0000,  0.0000,  2.0000)
  36 Al     5.256277    4.307392   13.020538    ( 0.0000,  0.0000,  0.0000)
  37 Cr     7.593127    4.285449   11.444056    ( 0.0000,  0.0000,  0.0000)
  38 Ni    10.085178    4.365270   12.313487    ( 0.0000,  0.0000,  1.5000)
  39 Fe    12.477376    4.237055   12.036570    ( 0.0000,  0.0000,  2.0000)
  40 Ni    16.486010    6.156896   13.142093    ( 0.0000,  0.0000,  1.5000)
  41 Co     6.853366    6.284949   13.338759    ( 0.0000,  0.0000,  2.1000)
  42 Fe     8.810361    6.319800   11.713659    ( 0.0000,  0.0000,  2.0000)
  43 Ni    11.487626    6.353889   12.121451    ( 0.0000,  0.0000,  1.5000)
  44 Co    13.910497    6.252554   12.506605    ( 0.0000,  0.0000,  2.1000)
  45 Al     5.442344    8.173080   12.707247    ( 0.0000,  0.0000,  0.0000)
  46 Ni     7.937206    8.434792   13.043421    ( 0.0000,  0.0000,  1.5000)
  47 Fe     9.940488    8.547411   11.459710    ( 0.0000,  0.0000,  2.0000)
  48 Co    12.212264    8.572065   11.974306    ( 0.0000,  0.0000,  2.1000)
  49 Al    15.208674    8.431539   12.624797    ( 0.0000,  0.0000,  0.0000)
  50 Co     1.208658    0.775860   14.824394    ( 0.0000,  0.0000,  2.1000)
  51 Ni     4.040268    0.926561   15.474761    ( 0.0000,  0.0000,  1.5000)
  52 Cr     6.233978    0.992996   14.048552    ( 0.0000,  0.0000,  0.0000)
  53 Co     8.790174    0.562760   14.498878    ( 0.0000,  0.0000,  2.1000)
  54 Ni    11.230964    0.701522   14.319909    ( 0.0000,  0.0000,  1.5000)
  55 Ni     2.105595    2.775198   14.830453    ( 0.0000,  0.0000,  1.5000)
  56 Ni     5.351656    2.981651   15.381452    ( 0.0000,  0.0000,  1.5000)
  57 Cr     7.596043    3.446696   14.044256    ( 0.0000,  0.0000,  0.0000)
  58 Ni     9.798558    2.815608   14.304317    ( 0.0000,  0.0000,  1.5000)
  59 Fe    12.220182    3.013062   14.427454    ( 0.0000,  0.0000,  2.0000)
  60 Cr     3.884851    4.917275   15.091445    ( 0.0000,  0.0000,  0.0000)
  61 Cr     6.366358    5.119548   15.502501    ( 0.0000,  0.0000,  0.0000)
  62 Co     8.925075    5.291758   14.185176    ( 0.0000,  0.0000,  2.1000)
  63 Cr    11.225389    5.153657   14.096592    ( 0.0000,  0.0000,  0.0000)
  64 Cr    13.563118    4.978782   14.727488    ( 0.0000,  0.0000,  0.0000)
  65 Ni     4.960634    7.199355   15.141029    ( 0.0000,  0.0000,  1.5000)
  66 Fe     7.700136    7.459539   15.405630    ( 0.0000,  0.0000,  2.0000)
  67 Co     9.810660    7.481776   14.183592    ( 0.0000,  0.0000,  2.1000)
  68 Ni    12.409337    7.310847   14.107880    ( 0.0000,  0.0000,  1.5000)
  69 Co    14.891849    6.998364   14.873181    ( 0.0000,  0.0000,  2.1000)
  70 Co     6.195363    9.413315   14.911962    ( 0.0000,  0.0000,  2.1000)
  71 Cr     9.078634    9.542091   15.346043    ( 0.0000,  0.0000,  0.0000)
  72 Al    11.072687    9.722436   13.761112    ( 0.0000,  0.0000,  0.0000)
  73 Cr    13.601342    9.456976   14.293493    ( 0.0000,  0.0000,  0.0000)
  74 Al    16.232696    9.406723   14.831521    ( 0.0000,  0.0000,  0.0000)
  75 Fe    12.224974    1.687810   16.883237    ( 0.0000,  0.0000,  2.0000)
  76 Fe     2.168593    1.836343   17.211709    ( 0.0000,  0.0000,  2.0000)
  77 Cr     4.846683    1.505370   17.543619    ( 0.0000,  0.0000,  0.0000)
  78 Co     7.362200    1.550499   16.066875    ( 0.0000,  0.0000,  2.1000)
  79 Cr     9.853020    1.630979   16.423352    ( 0.0000,  0.0000,  0.0000)
  80 Co    13.556870    3.753704   16.991417    ( 0.0000,  0.0000,  2.1000)
  81 Cr     3.646451    3.734705   17.235634    ( 0.0000,  0.0000,  0.0000)
  82 Ni     6.514698    3.515721   17.331088    ( 0.0000,  0.0000,  1.5000)
  83 Fe     8.662357    3.898421   16.253721    ( 0.0000,  0.0000,  2.0000)
  84 Ni    11.274311    3.996828   16.764742    ( 0.0000,  0.0000,  1.5000)
  85 Ni    15.084480    5.896975   17.147195    ( 0.0000,  0.0000,  1.5000)
  86 Al     5.095591    5.809973   17.283997    ( 0.0000,  0.0000,  0.0000)
  87 Cr     7.573859    5.890925   17.448648    ( 0.0000,  0.0000,  0.0000)
  88 Cr     9.776933    6.126482   16.201861    ( 0.0000,  0.0000,  0.0000)
  89 Co    12.582435    6.124453   16.855576    ( 0.0000,  0.0000,  2.1000)
  90 Fe    16.282052    7.937849   17.479446    ( 0.0000,  0.0000,  2.0000)
  91 Co     6.303312    8.083766   17.241748    ( 0.0000,  0.0000,  2.1000)
  92 Co     9.108661    7.943064   17.737816    ( 0.0000,  0.0000,  2.1000)
  93 Al    11.075360    8.050995   16.340462    ( 0.0000,  0.0000,  0.0000)
  94 Ni    13.769889    8.256161   16.761238    ( 0.0000,  0.0000,  1.5000)
  95 Ni    17.801441   10.251145   16.801566    ( 0.0000,  0.0000,  1.5000)
  96 Ni     7.635239   10.196789   17.298903    ( 0.0000,  0.0000,  1.5000)
  97 Ni    10.104164   10.136133   17.635880    ( 0.0000,  0.0000,  1.5000)
  98 Fe    12.404868   10.376651   16.267837    ( 0.0000,  0.0000,  2.0000)
  99 Co    15.009399   10.321222   16.696814    ( 0.0000,  0.0000,  2.1000)
 100 Co     0.015276    0.146376   19.088604    ( 0.0000,  0.0000,  2.1000)
 101 Co     2.381701    0.412118   19.565866    ( 0.0000,  0.0000,  2.1000)
 102 Cr     4.696605    0.222278   19.653749    ( 0.0000,  0.0000,  0.0000)
 103 Co    13.481378   11.087114   18.426807    ( 0.0000,  0.0000,  2.1000)
 104 Ni    16.228609   11.010495   18.795074    ( 0.0000,  0.0000,  1.5000)
 105 Fe     0.907110    2.565427   19.272163    ( 0.0000,  0.0000,  2.0000)
 106 Fe     3.622710    2.445791   19.300492    ( 0.0000,  0.0000,  2.0000)
 107 Co     6.149919    2.218378   19.282590    ( 0.0000,  0.0000,  2.1000)
 108 Al     8.505755    2.362414   18.109996    ( 0.0000,  0.0000,  0.0000)
 109 Fe    10.995975    2.411285   18.901160    ( 0.0000,  0.0000,  2.0000)
 110 Fe     2.227307    4.621627   19.561516    ( 0.0000,  0.0000,  2.0000)
 111 Cr     4.971277    4.428833   19.590178    ( 0.0000,  0.0000,  0.0000)
 112 Cr     7.392925    4.419310   19.574074    ( 0.0000,  0.0000,  0.0000)
 113 Fe     9.774525    4.643482   18.445813    ( 0.0000,  0.0000,  2.0000)
 114 Co    12.211390    4.806888   18.825657    ( 0.0000,  0.0000,  2.1000)
 115 Fe    16.191383    6.800695   19.552357    ( 0.0000,  0.0000,  2.0000)
 116 Ni     6.100664    6.718042   19.167405    ( 0.0000,  0.0000,  1.5000)
 117 Ni     8.907153    6.505314   19.806036    ( 0.0000,  0.0000,  1.5000)
 118 Co    11.101595    6.974124   18.594491    ( 0.0000,  0.0000,  2.1000)
 119 Cr    13.684850    6.787689   19.008150    ( 0.0000,  0.0000,  0.0000)
 120 Fe     4.823214    8.920676   19.174861    ( 0.0000,  0.0000,  2.0000)
 121 Co     7.662782    8.876017   19.443723    ( 0.0000,  0.0000,  2.1000)
 122 Ni     9.977333    8.688087   19.740398    ( 0.0000,  0.0000,  1.5000)
 123 Cr    12.200122    8.901852   18.431694    ( 0.0000,  0.0000,  0.0000)
 124 Co    14.762921    8.991787   18.904887    ( 0.0000,  0.0000,  2.1000)

Unit cell:
           periodic     x           y           z      points  spacing
  1. axis:    yes   12.530300    0.000000    0.000000    56     0.1938
  2. axis:    yes    6.259130   10.841100    0.000000    56     0.1936
  3. axis:    no     0.000000    0.000000   29.353100   128     0.2293

  Lengths:  12.530300  12.518233  29.353100
  Angles:   90.000000  90.000000  59.999929

Effective grid spacing dv^(1/3) = 0.2150

     iter     time        total  log10-change:  magmom
                         energy  eigst   dens
iter:   1 12:48:33 -1187.562288                  +159.1295
iter:   2 12:50:51 -1657.504957  +0.27  -1.10    +88.9747
iter:   3 12:53:10 -3483.655373  +1.46  -0.83    +60.8576
iter:   4 12:55:28 -1020.730393  +0.43  -0.53    +29.6387
iter:   5 12:57:45  -993.089852  -0.00  -1.18    +26.8541
iter:   6 13:00:02  -987.643394  -0.53  -1.21    +25.3903
iter:   7 13:02:19  -962.996112  -1.15  -1.22    +26.1640
iter:   8 13:04:37  -961.799564  -0.92  -1.26    +26.9253
iter:   9 13:06:55 -1455.120906  -0.57  -1.24    +30.2099
iter:  10 13:09:13  -947.520825  -0.99  -0.89    +27.2870
iter:  11 13:11:30  -965.210263  -1.61  -1.33    +27.9439
iter:  12 13:13:48  -930.109868  -1.47  -1.27    +30.3875
iter:  13 13:16:05  -954.826046  -1.52  -1.45    +31.4283
iter:  14 13:18:22  -964.329895  -1.43  -1.34    +34.6803
iter:  15 13:20:39  -921.299271  -1.58  -1.33    +33.7489
iter:  16 13:22:57  -942.963456  -1.65  -1.60    +36.7683
iter:  17 13:25:14 -1002.080493  -1.51  -1.41    +39.2332
iter:  18 13:27:32  -926.869115  -1.70  -1.24    +38.1646
iter:  19 13:29:49  -928.252157  -2.42  -1.54    +39.9491
iter:  20 13:32:07  -920.631332  -2.55  -1.53    +43.9953
iter:  21 13:34:24  -924.225418  -2.71  -1.65    +48.0787
iter:  22 13:36:42  -923.633097  -2.26  -1.61    +53.4824
iter:  23 13:39:00  -927.180423  -1.84  -1.70    +54.9045
iter:  24 13:41:17  -924.784539  -1.90  -1.79    +56.1550
iter:  25 13:43:36  -926.438060  -2.13  -1.80    +57.2768
iter:  26 13:45:54  -948.424442  -2.10  -1.75    +59.4133
iter:  27 13:48:12  -923.489336  -2.43  -1.46    +60.6254
iter:  28 13:50:30  -923.496908  -2.78  -1.91    +62.1878
iter:  29 13:52:49  -933.205576  -2.21  -1.92    +63.9525
iter:  30 13:55:07  -923.865820  -2.42  -1.73    +64.3577
iter:  31 13:57:25  -925.046772  -2.76  -2.00    +65.5902
iter:  32 13:59:44  -933.088748  -2.57  -1.97    +66.7951
iter:  33 14:02:02  -926.480800  -2.59  -1.71    +67.3915
iter:  34 14:04:21  -925.504217  -2.82  -1.94    +67.2148
iter:  35 14:06:39  -927.100006  -2.66  -2.04    +67.6519
iter:  36 14:08:57  -926.053647  -2.72  -2.01    +67.8561
iter:  37 14:11:16  -926.310354  -2.97  -2.09    +68.2331
iter:  38 14:13:35  -926.129918  -3.06  -2.09    +68.0880
iter:  39 14:15:53  -927.382175  -2.98  -2.18    +67.9915
iter:  40 14:18:11  -926.659388  -2.92  -2.07    +68.2117
iter:  41 14:20:31  -928.267302  -2.90  -2.15    +68.1495
iter:  42 14:22:49  -928.034687  -2.75  -2.04    +67.9241
iter:  43 14:25:08  -927.415760  -2.95  -2.06    +67.7354
iter:  44 14:27:27  -926.578603  -3.18  -2.14    +67.9627
iter:  45 14:29:46  -926.730481  -3.37  -2.37    +68.3671
iter:  46 14:32:04  -926.911257  -3.35  -2.36    +68.3651
iter:  47 14:34:22  -926.768324  -3.89  -2.31    +68.9428
iter:  48 14:36:41  -926.942103  -3.50  -2.41    +69.5049
iter:  49 14:38:59  -927.063666  -3.59  -2.47    +69.5953
iter:  50 14:41:18  -927.116433  -3.67  -2.41    +69.7706
iter:  51 14:43:36  -927.029678c -3.67  -2.46    +69.9906
iter:  52 14:45:56  -927.100689c -3.69  -2.67    +70.1505
iter:  53 14:48:15  -927.108704c -3.80  -2.64    +70.1247
iter:  54 14:50:34  -927.116388c -4.21  -2.75    +70.4796
iter:  55 14:52:54  -927.233554  -3.96  -2.84    +70.5686
iter:  56 14:55:13  -927.165390  -4.86  -2.74    +70.6063
iter:  57 14:57:33  -927.284822  -4.39  -2.86    +70.7138
iter:  58 14:59:52  -927.224225  -4.31  -2.70    +70.8046
iter:  59 15:02:12  -927.240865c -4.32  -2.76    +70.7798
iter:  60 15:04:31  -927.272001c -4.43  -2.81    +70.9497
iter:  61 15:06:51  -927.286706c -4.47  -2.77    +71.0264
iter:  62 15:09:10  -927.598412  -3.66  -2.74    +71.0758
iter:  63 15:11:29  -927.316585  -4.13  -2.41    +71.0422
iter:  64 15:13:48  -927.412306  -4.16  -2.71    +71.0186
iter:  65 15:16:08  -927.332666c -4.42  -2.55    +70.9860
iter:  66 15:18:28  -927.907476  -3.45  -2.69    +71.0001
iter:  67 15:20:47  -927.311126  -3.76  -2.32    +70.9805
iter:  68 15:23:06  -927.296275  -4.07  -2.81    +71.0734
iter:  69 15:25:26  -927.322748c -4.09  -2.94    +70.8526
iter:  70 15:27:45  -927.301066c -4.36  -2.91    +70.8642
iter:  71 15:30:04  -927.350242c -4.50  -3.07    +70.8110
iter:  72 15:32:23  -927.586545  -3.93  -2.85    +70.7759
iter:  73 15:34:43  -927.339345  -4.14  -2.48    +70.7871
iter:  74 15:37:02  -927.335023  -4.72  -2.98    +70.7062
iter:  75 15:39:21  -927.345413c -4.99  -3.12    +70.7386
iter:  76 15:41:40  -927.363833c -4.81  -3.09    +70.7231
iter:  77 15:44:00  -927.356585c -5.16  -3.05    +70.7583
iter:  78 15:46:19  -927.552239  -4.06  -3.00    +70.6846
iter:  79 15:48:39  -927.369055  -4.41  -2.55    +70.6694
iter:  80 15:50:58  -927.372786  -4.83  -3.03    +70.6148
iter:  81 15:53:17  -927.372782c -5.03  -3.11    +70.6345
iter:  82 15:55:37  -927.388531c -4.58  -3.18    +70.6337
iter:  83 15:57:56  -927.397990c -4.72  -3.14    +70.6602
iter:  84 16:00:17  -927.395670c -4.76  -3.08    +70.6122
iter:  85 16:02:36  -927.400970c -4.74  -3.27    +70.6032
iter:  86 16:04:55  -927.464454c -4.52  -3.25    +70.6078
iter:  87 16:07:14  -927.413903c -4.67  -2.86    +70.5656
iter:  88 16:09:32  -927.420623c -4.92  -3.24    +70.5425
iter:  89 16:11:51  -927.429643c -4.88  -3.34    +70.5151
iter:  90 16:14:10  -927.426012c -5.23  -3.22    +70.5218
iter:  91 16:16:29  -927.435010c -5.16  -3.48    +70.4901
iter:  92 16:18:48  -927.443908c -5.17  -3.44    +70.4674
iter:  93 16:21:06  -927.423182c -4.72  -3.37    +70.4660
iter:  94 16:23:25  -927.458571c -4.39  -3.34    +70.4632
iter:  95 16:25:45  -927.461605c -5.02  -3.28    +70.4806
iter:  96 16:28:04  -927.462144c -4.98  -3.12    +70.4913
iter:  97 16:30:23  -927.491876c -4.73  -3.38    +70.4524
iter:  98 16:32:42  -927.476200c -5.06  -3.04    +70.4306
iter:  99 16:35:01  -927.481525c -4.70  -3.25    +70.4748
iter: 100 16:37:21  -927.481760c -5.17  -3.32    +70.4458
iter: 101 16:39:40  -927.497747c -4.81  -3.39    +70.4510
iter: 102 16:41:59  -927.485400c -5.20  -3.09    +70.4583
iter: 103 16:44:19  -927.490228c -5.27  -3.45    +70.3512
iter: 104 16:46:37  -927.496221c -5.22  -3.57    +70.3205
iter: 105 16:48:56  -927.501919c -5.38  -3.51    +70.3165
iter: 106 16:51:15  -927.500463c -5.46  -3.41    +70.3184
iter: 107 16:53:34  -927.513702c -5.07  -3.50    +70.3461
iter: 108 16:55:54  -927.505683c -5.58  -3.15    +70.3731
iter: 109 16:58:13  -927.514974c -5.14  -3.38    +70.3299
iter: 110 17:00:33  -927.511143c -5.69  -3.32    +70.3159
iter: 111 17:02:54  -927.514180c -5.51  -3.52    +70.3063
iter: 112 17:05:13  -927.528251c -5.05  -3.51    +70.3159
iter: 113 17:07:33  -927.519437c -5.33  -3.20    +70.3101
iter: 114 17:09:52  -927.523019c -5.19  -3.32    +70.3901
iter: 115 17:12:11  -927.520651c -5.37  -3.29    +70.3829
iter: 116 17:14:31  -927.525103c -5.14  -3.42    +70.4029
iter: 117 17:16:50  -927.523750c -5.35  -3.32    +70.4272
iter: 118 17:19:09  -927.527752c -5.37  -3.51    +70.4164
iter: 119 17:21:29  -927.525852c -5.34  -3.40    +70.4092
iter: 120 17:23:48  -927.525089c -5.70  -3.33    +70.4488
iter: 121 17:26:06  -927.525699c -5.87  -3.58    +70.4580
iter: 122 17:28:25  -927.527301c -5.81  -3.63    +70.4586
iter: 123 17:30:44  -927.526698c -6.07  -3.57    +70.4572
iter: 124 17:33:03  -927.527348c -5.90  -3.52    +70.4729
iter: 125 17:35:22  -927.538493c -5.35  -3.58    +70.4612
iter: 126 17:37:40  -927.528199c -5.78  -3.26    +70.4727
iter: 127 17:39:59  -927.528760c -5.72  -3.68    +70.4761
iter: 128 17:42:17  -927.531807c -5.52  -3.65    +70.4943
iter: 129 17:44:36  -927.532786c -5.51  -3.41    +70.5235
iter: 130 17:46:54  -927.531188c -5.98  -3.50    +70.5153
iter: 131 17:49:13  -927.530186c -5.63  -3.59    +70.5322
iter: 132 17:51:32  -927.530612c -6.06  -3.51    +70.5218
iter: 133 17:53:50  -927.531410c -6.34  -3.75    +70.5228
iter: 134 17:56:09  -927.531433c -6.25  -3.71    +70.5163
iter: 135 17:58:28  -927.534531c -5.44  -3.73    +70.5062
iter: 136 18:00:47  -927.531030c -5.78  -3.35    +70.5128
iter: 137 18:03:06  -927.530413c -6.20  -3.86    +70.5323
iter: 138 18:05:25  -927.532020c -6.32  -3.96    +70.5305
iter: 139 18:07:44  -927.530487c -6.48  -3.80    +70.5385
iter: 140 18:10:03  -927.530900c -6.89  -4.18c   +70.5490
iter: 141 18:12:22  -927.531483c -6.83  -4.21c   +70.5530
iter: 142 18:14:41  -927.530848c -6.97  -3.97    +70.5512
iter: 143 18:17:00  -927.531165c -7.34  -4.30c   +70.5528
iter: 144 18:19:18  -927.530710c -6.78  -4.24c   +70.5540
iter: 145 18:21:38  -927.531351c -6.95  -4.06c   +70.5547
iter: 146 18:23:56  -927.530992c -7.04  -4.26c   +70.5588
iter: 147 18:26:15  -927.531080c -7.15  -4.39c   +70.5599
iter: 148 18:28:34  -927.531536c -6.84  -4.32c   +70.5615
iter: 149 18:30:53  -927.531078c -7.31  -4.13c   +70.5576
iter: 150 18:33:12  -927.531268c -7.68c -4.57c   +70.5583

Converged after 150 iterations.

Dipole moment: (69.692418, -3.098990, -0.115213) |e|*Ang

Total magnetic moment: (0.000000, 0.000000, 70.558339)
Local magnetic moments:
   0 Al ( 0.000000,  0.000000, -0.020065)
   1 Ni ( 0.000000,  0.000000,  0.415060)
   2 Fe ( 0.000000,  0.000000,  3.014995)
   3 Cr ( 0.000000,  0.000000, -3.000452)
   4 Ni ( 0.000000,  0.000000,  0.219684)
   5 Cr ( 0.000000,  0.000000, -2.899431)
   6 Fe ( 0.000000,  0.000000,  1.948705)
   7 Co ( 0.000000,  0.000000,  1.297300)
   8 Fe ( 0.000000,  0.000000,  2.294870)
   9 Ni ( 0.000000,  0.000000,  0.346761)
  10 Ni ( 0.000000,  0.000000,  0.117673)
  11 Cr ( 0.000000,  0.000000, -2.718650)
  12 Co ( 0.000000,  0.000000,  1.291066)
  13 Cr ( 0.000000,  0.000000, -2.820384)
  14 Cr ( 0.000000,  0.000000, -2.227754)
  15 Ni ( 0.000000,  0.000000, -0.056432)
  16 Co ( 0.000000,  0.000000,  1.111357)
  17 Al ( 0.000000,  0.000000, -0.049465)
  18 Co ( 0.000000,  0.000000,  1.164737)
  19 Fe ( 0.000000,  0.000000,  2.586509)
  20 Cr ( 0.000000,  0.000000, -2.584282)
  21 Fe ( 0.000000,  0.000000,  2.263622)
  22 Co ( 0.000000,  0.000000,  1.791800)
  23 Al ( 0.000000,  0.000000, -0.029391)
  24 Ni ( 0.000000,  0.000000,  0.284833)
  25 Fe ( 0.000000,  0.000000,  2.200980)
  26 Fe ( 0.000000,  0.000000,  2.291207)
  27 Fe ( 0.000000,  0.000000,  2.228025)
  28 Cr ( 0.000000,  0.000000,  0.871763)
  29 Fe ( 0.000000,  0.000000,  2.204178)
  30 Fe ( 0.000000,  0.000000,  2.343848)
  31 Cr ( 0.000000,  0.000000, -2.109901)
  32 Cr ( 0.000000,  0.000000, -1.525318)
  33 Al ( 0.000000,  0.000000, -0.018872)
  34 Fe ( 0.000000,  0.000000,  2.431083)
  35 Fe ( 0.000000,  0.000000,  2.308858)
  36 Al ( 0.000000,  0.000000, -0.009559)
  37 Cr ( 0.000000,  0.000000,  1.200080)
  38 Ni ( 0.000000,  0.000000,  0.343164)
  39 Fe ( 0.000000,  0.000000,  2.097812)
  40 Ni ( 0.000000,  0.000000,  0.117385)
  41 Co ( 0.000000,  0.000000,  1.088735)
  42 Fe ( 0.000000,  0.000000,  2.370790)
  43 Ni ( 0.000000,  0.000000,  0.249124)
  44 Co ( 0.000000,  0.000000,  1.350587)
  45 Al ( 0.000000,  0.000000, -0.019325)
  46 Ni ( 0.000000,  0.000000,  0.440319)
  47 Fe ( 0.000000,  0.000000,  2.494693)
  48 Co ( 0.000000,  0.000000,  1.082211)
  49 Al ( 0.000000,  0.000000, -0.013770)
  50 Co ( 0.000000,  0.000000,  1.660621)
  51 Ni ( 0.000000,  0.000000,  0.040943)
  52 Cr ( 0.000000,  0.000000,  1.483171)
  53 Co ( 0.000000,  0.000000,  0.963178)
  54 Ni ( 0.000000,  0.000000,  0.466146)
  55 Ni ( 0.000000,  0.000000,  0.418756)
  56 Ni ( 0.000000,  0.000000, -0.057557)
  57 Cr ( 0.000000,  0.000000, -1.764859)
  58 Ni ( 0.000000,  0.000000,  0.127099)
  59 Fe ( 0.000000,  0.000000,  2.361254)
  60 Cr ( 0.000000,  0.000000, -1.973284)
  61 Cr ( 0.000000,  0.000000,  1.447732)
  62 Co ( 0.000000,  0.000000,  0.679162)
  63 Cr ( 0.000000,  0.000000, -0.543774)
  64 Cr ( 0.000000,  0.000000, -1.053257)
  65 Ni ( 0.000000,  0.000000,  0.236304)
  66 Fe ( 0.000000,  0.000000,  2.389517)
  67 Co ( 0.000000,  0.000000,  0.242642)
  68 Ni ( 0.000000,  0.000000,  0.115374)
  69 Co ( 0.000000,  0.000000,  1.111012)
  70 Co ( 0.000000,  0.000000,  1.528023)
  71 Cr ( 0.000000,  0.000000, -2.609466)
  72 Al ( 0.000000,  0.000000, -0.022800)
  73 Cr ( 0.000000,  0.000000, -1.668314)
  74 Al ( 0.000000,  0.000000, -0.026636)
  75 Fe ( 0.000000,  0.000000,  2.583852)
  76 Fe ( 0.000000,  0.000000,  2.484299)
  77 Cr ( 0.000000,  0.000000, -1.383131)
  78 Co ( 0.000000,  0.000000,  0.973273)
  79 Cr ( 0.000000,  0.000000, -2.031214)
  80 Co ( 0.000000,  0.000000,  1.510266)
  81 Cr ( 0.000000,  0.000000,  1.729737)
  82 Ni ( 0.000000,  0.000000,  0.198826)
  83 Fe ( 0.000000,  0.000000,  2.024243)
  84 Ni ( 0.000000,  0.000000,  0.543939)
  85 Ni ( 0.000000,  0.000000,  0.364632)
  86 Al ( 0.000000,  0.000000,  0.003997)
  87 Cr ( 0.000000,  0.000000, -1.925519)
  88 Cr ( 0.000000,  0.000000, -1.390214)
  89 Co ( 0.000000,  0.000000,  1.337002)
  90 Fe ( 0.000000,  0.000000,  2.453676)
  91 Co ( 0.000000,  0.000000,  1.524550)
  92 Co ( 0.000000,  0.000000,  1.116730)
  93 Al ( 0.000000,  0.000000, -0.017972)
  94 Ni ( 0.000000,  0.000000,  0.225507)
  95 Ni ( 0.000000,  0.000000,  0.645343)
  96 Ni ( 0.000000,  0.000000,  0.554135)
  97 Ni ( 0.000000,  0.000000, -0.101017)
  98 Fe ( 0.000000,  0.000000,  2.391415)
  99 Co ( 0.000000,  0.000000,  1.335396)
 100 Co ( 0.000000,  0.000000,  1.812903)
 101 Co ( 0.000000,  0.000000,  1.607112)
 102 Cr ( 0.000000,  0.000000, -2.708378)
 103 Co ( 0.000000,  0.000000,  1.390441)
 104 Ni ( 0.000000,  0.000000,  0.568242)
 105 Fe ( 0.000000,  0.000000,  2.779495)
 106 Fe ( 0.000000,  0.000000,  2.045038)
 107 Co ( 0.000000,  0.000000,  0.684860)
 108 Al ( 0.000000,  0.000000, -0.047244)
 109 Fe ( 0.000000,  0.000000,  2.731144)
 110 Fe ( 0.000000,  0.000000,  2.826289)
 111 Cr ( 0.000000,  0.000000, -2.848529)
 112 Cr ( 0.000000,  0.000000,  2.837241)
 113 Fe ( 0.000000,  0.000000,  2.517039)
 114 Co ( 0.000000,  0.000000,  1.561543)
 115 Fe ( 0.000000,  0.000000,  2.748193)
 116 Ni ( 0.000000,  0.000000,  0.244861)
 117 Ni ( 0.000000,  0.000000,  0.486208)
 118 Co ( 0.000000,  0.000000,  0.874704)
 119 Cr ( 0.000000,  0.000000, -2.789985)
 120 Fe ( 0.000000,  0.000000,  2.712124)
 121 Co ( 0.000000,  0.000000,  1.848706)
 122 Ni ( 0.000000,  0.000000,  0.378666)
 123 Cr ( 0.000000,  0.000000, -2.259078)
 124 Co ( 0.000000,  0.000000,  1.478055)

Energy contributions relative to reference atoms: (reference = -4103091.665053)

Kinetic:       +319.671068
Potential:     -330.443017
External:        +0.000000
XC:            -953.414972
Entropy (-ST):   -5.220723
Local:          +39.266014
--------------------------
Free energy:   -930.141630
Extrapolated:  -927.531268

Dipole-layer corrected work functions: 4.533852, 4.687323 eV

Spin contamination: 56.180639 electrons
Showing all kpts
                      Up                     Down
 Kpt  Band  Eigenvalues  Occupancy  Eigenvalues  Occupancy
  0   566      0.10394    0.99844      1.05874    0.04380
  0   567      0.13294    0.99792      1.06653    0.04065
  0   568      0.14828    0.99758      1.07466    0.03760
  0   569      0.15458    0.99742      1.09114    0.03207

  1   566      0.13042    0.99797      1.06628    0.04075
  1   567      0.14226    0.99772      1.07978    0.03579
  1   568      0.15108    0.99751      1.08241    0.03489
  1   569      0.16386    0.99717      1.09691    0.03033


Fermi level: 0.75041

No gap

Forces in eV/Ang:
  0 Al    1.56261   -0.12277   -0.39457
  1 Ni    0.17608    0.11401   -1.18847
  2 Fe   -0.49580   -1.10492    1.43788
  3 Cr   -0.59435    1.13006   -0.23042
  4 Ni    0.30423    0.61665    0.75941
  5 Cr    0.08634   -0.39158    0.27592
  6 Fe   -0.38546   -1.72620   -0.45752
  7 Co    0.99797    0.90213    0.29178
  8 Fe   -1.90134   -0.31471   -0.60204
  9 Ni    0.88309    0.86649   -0.84618
 10 Ni    1.61124    0.45001   -0.14761
 11 Cr    0.42042    0.73368   -0.20698
 12 Co   -0.52021   -0.66874    0.77421
 13 Cr    0.07195    0.12395    0.75676
 14 Cr   -0.99107   -0.27521   -0.81051
 15 Ni   -0.68305   -0.24192    0.88859
 16 Co   -1.36392    0.27564    0.89192
 17 Al    1.08373    0.07396   -2.23816
 18 Co   -0.03888    0.65438    0.27153
 19 Fe    0.19531    0.79596    0.23041
 20 Cr    0.14906    1.59130   -1.68824
 21 Fe    0.29340   -0.00504   -0.13086
 22 Co    0.29819   -0.40788    1.72204
 23 Al   -1.31509   -1.70651   -0.08878
 24 Ni   -0.60597   -1.20345   -0.71188
 25 Fe    0.31721   -1.14580    1.44085
 26 Fe   -0.03842    0.51137    0.58057
 27 Fe   -0.34101    0.15372   -0.39429
 28 Cr   -0.11987    1.12042    0.81933
 29 Fe    0.38052   -1.05083    0.46318
 30 Fe    0.45028   -0.28041   -0.30208
 31 Cr   -0.30436    0.96870   -1.07682
 32 Cr    1.37026   -1.60657   -1.41579
 33 Al    0.53531   -0.62648    1.29590
 34 Fe   -0.67268    0.84138    0.80563
 35 Fe    0.36051   -0.16345   -0.59900
 36 Al    0.72538    0.03355    1.04021
 37 Cr   -0.80133    0.46016    0.83304
 38 Ni   -0.73447   -1.47180   -1.27276
 39 Fe    0.95851   -0.55275    1.43412
 40 Ni   -0.48559    1.57412   -1.50715
 41 Co   -0.31836   -1.02271    0.00429
 42 Fe    0.56862    0.64861    0.65883
 43 Ni   -1.46421    0.76191   -0.62226
 44 Co   -0.29469    0.53707    0.83766
 45 Al    0.19128   -0.49328    1.58193
 46 Ni   -0.46593   -0.19408   -0.03818
 47 Fe    0.53121    1.04701    1.09130
 48 Co    1.38400   -0.09304   -0.24718
 49 Al   -0.08126   -1.11964   -1.03975
 50 Co   -0.44449   -1.70044    0.33350
 51 Ni   -0.86020   -1.26560    0.22624
 52 Cr    0.20874    0.78667   -0.69454
 53 Co   -0.75348    0.85108   -1.02537
 54 Ni    0.24600    0.33122    1.01528
 55 Ni    1.29729    1.18695    1.39485
 56 Ni   -0.25364   -0.85719   -0.95065
 57 Cr   -1.85689   -0.47434   -0.04997
 58 Ni    0.72929    0.18029   -0.32470
 59 Fe    0.21788   -0.36340    0.40587
 60 Cr   -1.28441   -0.12612    1.22778
 61 Cr    1.53023    0.02496   -2.11434
 62 Co   -0.72519   -0.00721    0.31484
 63 Cr    0.44816    0.09833    1.76363
 64 Cr    0.06787    0.66907    0.32019
 65 Ni    0.35740    0.30070   -0.05111
 66 Fe    0.08048   -0.40854   -0.27062
 67 Co    1.20016    0.22136   -0.75881
 68 Ni    0.11610    0.20565    1.13111
 69 Co   -0.09442    0.58890   -0.21403
 70 Co    1.45503   -0.19784   -0.60161
 71 Cr   -1.27914   -0.05009    0.02456
 72 Al   -0.14745   -0.30640    0.34141
 73 Cr    0.26786    0.14164    0.77881
 74 Al    0.77543   -0.80445    0.67159
 75 Fe    0.51891   -0.36108   -0.01080
 76 Fe    0.60840   -2.02953    0.22493
 77 Cr    1.10505    1.04324   -0.41230
 78 Co   -0.37105    0.42132    0.40844
 79 Cr    1.95400   -0.63784   -1.59100
 80 Co    0.48019    0.90445   -0.04834
 81 Cr    0.40881   -0.27515   -0.30006
 82 Ni   -0.77235    0.48551    0.72869
 83 Fe    0.53626    0.42186   -0.55078
 84 Ni   -1.04214   -0.14614   -1.30417
 85 Ni   -0.55884   -0.20144   -0.15401
 86 Al   -1.66950    0.49377    1.02669
 87 Cr    0.93988   -0.13223    0.23279
 88 Cr   -0.18469   -1.83263    0.39611
 89 Co   -0.12309   -0.49150   -0.99343
 90 Fe   -0.53805    0.83143   -2.01690
 91 Co    0.38422    0.49737   -0.17807
 92 Co   -1.62452   -0.41310   -0.60730
 93 Al    1.52824    1.45706   -1.26344
 94 Ni    0.13765   -0.55606   -0.56073
 95 Ni   -1.81049    0.28401    0.73020
 96 Ni    0.06190   -0.00590   -0.30421
 97 Ni    0.08934    0.32559   -0.45424
 98 Fe   -0.41476   -0.19843    0.13387
 99 Co   -0.40976    0.37187    0.58839
100 Co   -0.38703    0.47182   -0.43128
101 Co   -0.51210   -0.45896   -1.17230
102 Cr    0.77786   -0.09060    0.98473
103 Co   -0.23983   -0.37395   -0.17413
104 Ni   -0.26524    0.34047   -0.98339
105 Fe    0.33392   -0.40380   -0.40091
106 Fe   -0.47479   -0.34242    0.38588
107 Co    0.06853   -0.39051    0.31067
108 Al   -1.03646    0.11628    3.05059
109 Fe    0.13177    0.15559   -0.42034
110 Fe    0.13673    0.05069   -0.97876
111 Cr   -0.37053    0.17012   -0.61630
112 Cr   -0.07418    0.33255   -0.11024
113 Fe    0.15416    0.57885    0.11703
114 Co    0.15630   -0.51760    0.08552
115 Fe   -0.36321   -0.62522   -0.26467
116 Ni    0.65119    0.32509    1.56456
117 Ni   -0.35995    0.19243   -1.11976
118 Co   -0.44826   -1.30052    0.13019
119 Cr    0.06292   -0.18413   -0.23869
120 Fe    1.13206    0.73740    0.50469
121 Co   -1.02769    0.00779   -0.77390
122 Ni    0.26923    1.00822    0.37877
123 Cr    0.33278    1.48955    0.74637
124 Co   -0.06790    0.43569   -0.19209

Timing:                              incl.     excl.
-----------------------------------------------------------
Forces:                             37.254    37.254   0.2% |
Hamiltonian:                         1.575     0.010   0.0% |
 Atomic:                             0.358     0.001   0.0% |
  XC Correction:                     0.357     0.357   0.0% |
 Calculate atomic Hamiltonians:      0.672     0.672   0.0% |
 Communicate:                        0.126     0.126   0.0% |
 Initialize Hamiltonian:             0.000     0.000   0.0% |
 Poisson:                            0.079     0.079   0.0% |
 XC 3D grid:                         0.329     0.329   0.0% |
LCAO initialization:               260.940     0.542   0.0% |
 LCAO eigensolver:                  12.519     0.010   0.0% |
  Calculate projections:             0.000     0.000   0.0% |
  DenseAtomicCorrection:             0.000     0.000   0.0% |
  Distribute overlap matrix:         7.894     7.894   0.0% |
  Orbital Layouts:                   4.567     4.567   0.0% |
  Potential matrix:                  0.006     0.006   0.0% |
  Sum over cells:                    0.043     0.043   0.0% |
 LCAO to grid:                     246.038   246.038   1.2% |
 Set positions (LCAO WFS):           1.841     1.567   0.0% |
  Basic WFS set positions:           0.004     0.004   0.0% |
  Basis functions set positions:     0.001     0.001   0.0% |
  P tci:                             0.000     0.000   0.0% |
  ST tci:                            0.105     0.105   0.0% |
  mktci:                             0.164     0.164   0.0% |
PWDescriptor:                        0.089     0.089   0.0% |
SCF-cycle:                       20831.800    32.693   0.2% |
 Davidson:                       20217.815  6658.340  31.5% |------------|
  Apply H:                         382.616   376.641   1.8% ||
   HMM T:                            5.975     5.975   0.0% |
  Subspace diag:                  2248.291     0.050   0.0% |
   calc_h_matrix:                  927.713   584.933   2.8% ||
    Apply H:                       342.780   336.764   1.6% ||
     HMM T:                          6.016     6.016   0.0% |
   diagonalize:                    189.249   189.249   0.9% |
   rotate_psi:                    1131.279  1131.279   5.4% |-|
  calc. matrices:                 5219.046  4577.689  21.7% |--------|
   Apply H:                        641.356   629.183   3.0% ||
    HMM T:                          12.173    12.173   0.1% |
  diagonalize:                    3318.978  3318.978  15.7% |-----|
  rotate_psi:                     2390.545  2390.545  11.3% |----|
 Density:                          315.389     0.004   0.0% |
  Atomic density matrices:           3.323     3.323   0.0% |
  Mix:                             142.475   142.475   0.7% |
  Multipole moments:                 0.090     0.090   0.0% |
  Pseudo density:                  169.497   169.490   0.8% |
   Symmetrize density:               0.007     0.007   0.0% |
 Hamiltonian:                      248.606     1.571   0.0% |
  Atomic:                           55.146     0.200   0.0% |
   XC Correction:                   54.947    54.947   0.3% |
  Calculate atomic Hamiltonians:   119.888   119.888   0.6% |
  Communicate:                      18.097    18.097   0.1% |
  Poisson:                           5.270     5.270   0.0% |
  XC 3D grid:                       48.633    48.633   0.2% |
 Orthonormalize:                    17.296     0.001   0.0% |
  calc_s_matrix:                     2.130     2.130   0.0% |
  inverse-cholesky:                  0.730     0.730   0.0% |
  projections:                      10.716    10.716   0.1% |
  rotate_psi_s:                      3.720     3.720   0.0% |
Set symmetry:                        0.001     0.001   0.0% |
Other:                               7.052     7.052   0.0% |
-----------------------------------------------------------
Total:                                     21138.711 100.0%

Date: Mon Apr 17 18:33:53 2023
