
  ___ ___ ___ _ _ _  
 |   |   |_  | | | | 
 | | | | | . | | | | 
 |__ |  _|___|_____|  22.8.0
 |___|_|             

User:   c.zeng@d0008
Date:   Mon Apr 17 16:57:08 2023
Arch:   x86_64
Pid:    74631
CWD:    /home/c.zeng/projects/hea-corrosion/hea-mlp/data-curation/surface-md/dft-jobs/67
Python: 3.8.1
gpaw:   /home/c.zeng/usr/installs/gpaw/source/gpaw-22.8.0/gpaw
_gpaw:  /home/c.zeng/usr/installs/gpaw/source/gpaw-22.8.0/
        _gpaw.cpython-38-x86_64-linux-gnu.so
ase:    /home/c.zeng/.local/lib/python3.8/site-packages/ase-3.22.1-py3.8.egg/ase (version 3.22.1)
numpy:  /home/c.zeng/.local/lib/python3.8/site-packages/numpy (version 1.24.2)
scipy:  /home/c.zeng/.local/lib/python3.8/site-packages/scipy (version 1.10.1)
libxc:  4.2.3
units:  Angstrom and eV
cores: 30
OpenMP: False
OMP_NUM_THREADS: 1

Input parameters:
  convergence: {energy: 0.0001}
  kpts: [2 2 1]
  maxiter: 666
  mode: {ecut: 350.0,
         name: pw}
  occupations: {fixmagmom: False,
                name: fermi-dirac,
                width: 0.1}
  poissonsolver: {dipolelayer: xy}
  spinpol: True
  symmetry: {point_group: False}
  xc: PBE

System changes: positions, numbers, cell, pbc, initial_charges, initial_magmoms 

Initialize ...

species:
  Cr:
    name: Chromium
    id: 33f258bda2ca9f93018e70263a35547b
    Z: 24.0
    valence: 6
    core: 18
    charge: 0.0
    file: /home/c.zeng/usr/data/gpaw-setups-0.9.20000/Cr.PBE.gz
    compensation charges: {type: gauss,
                           rc: 0.35,
                           lmax: 2}
    cutoffs: {filter: 2.14,
              core: 3.04}
    valence states:
      #              energy  rcut
      - 4s(1.00)    -4.007   1.164
      - 4p(0.00)    -0.989   1.217
      - 3d(5.00)    -2.913   1.111
      -  s          23.205   1.164
      -  p          26.223   1.217
      -  d          24.299   1.111
  
    # Using partial waves for Cr as LCAO basis

  Al:
    name: Aluminium
    id: 0292cae29f5d6237e50f6abdd43a7bdd
    Z: 13.0
    valence: 3
    core: 10
    charge: 0.0
    file: /home/c.zeng/usr/data/gpaw-setups-0.9.20000/Al.PBE.gz
    compensation charges: {type: gauss,
                           rc: 0.34,
                           lmax: 2}
    cutoffs: {filter: 1.91,
              core: 2.36}
    valence states:
      #              energy  rcut
      - 3s(2.00)    -7.753   1.085
      - 3p(1.00)    -2.712   1.085
      -  s          19.459   1.085
      -  p          24.499   1.085
      -  d           0.000   1.085
  
    # Using partial waves for Al as LCAO basis

  Fe:
    name: Iron
    id: 37abbd8d6c3c35915a9b583b742da910
    Z: 26.0
    valence: 8
    core: 18
    charge: 0.0
    file: /home/c.zeng/usr/data/gpaw-setups-0.9.20000/Fe.PBE.gz
    compensation charges: {type: gauss,
                           rc: 0.33,
                           lmax: 2}
    cutoffs: {filter: 2.06,
              core: 2.67}
    valence states:
      #              energy  rcut
      - 4s(2.00)    -5.291   1.164
      - 4p(0.00)    -1.326   1.058
      - 3d(6.00)    -7.505   1.058
      -  s          21.920   1.164
      -  p          25.885   1.058
      -  d          19.706   1.058
  
    # Using partial waves for Fe as LCAO basis

  Co:
    name: Cobalt
    id: 339d20d5b0b93d2de9531a1bee871d91
    Z: 27.0
    valence: 9
    core: 18
    charge: 0.0
    file: /home/c.zeng/usr/data/gpaw-setups-0.9.20000/Co.PBE.gz
    compensation charges: {type: gauss,
                           rc: 0.32,
                           lmax: 2}
    cutoffs: {filter: 1.87,
              core: 2.55}
    valence states:
      #              energy  rcut
      - 4s(2.00)    -5.469   1.005
      - 4p(0.00)    -1.277   1.058
      - 3d(7.00)    -8.205   1.005
      -  s          21.742   1.005
      -  p          25.934   1.058
      -  d          19.007   1.005
  
    # Using partial waves for Co as LCAO basis

  Ni:
    name: Nickel
    id: 0d9f38a9d6e76a2886f07bb4381f212b
    Z: 28.0
    valence: 16
    core: 12
    charge: 0.0
    file: /home/c.zeng/usr/data/gpaw-setups-0.9.20000/Ni.PBE.gz
    compensation charges: {type: gauss,
                           rc: 0.36,
                           lmax: 2}
    cutoffs: {filter: 2.14,
              core: 1.98}
    valence states:
      #              energy  rcut
      - 4s(2.00)    -5.642   1.164
      - 3p(6.00)   -71.394   1.207
      - 4p(0.00)    -1.226   1.207
      - 3d(8.00)    -8.875   1.138
      -  s          21.570   1.164
      -  d          18.337   1.138
  
    # Using partial waves for Ni as LCAO basis

Reference energy: -3927717.499734  # eV

Spin-polarized calculation.
Magnetic moment: 149.100000

Convergence criteria:
 Maximum [total energy] change in last 3 cyles: 0.0001 eV / electron
 Maximum integral of absolute [dens]ity change: 0.0001 electrons / valence electron
 Maximum integral of absolute [eigenst]ate change: 4e-08 eV^2 / valence electron
 Maximum number of scf [iter]ations: 666
 (Square brackets indicate name in SCF output, whereas a 'c' in
 the SCF output indicates the quantity has converged.)

Symmetries present (total): 1

  ( 1  0  0)
  ( 0  1  0)
  ( 0  0  1)

4 k-points: 2 x 2 x 1 Monkhorst-Pack grid
2 k-points in the irreducible part of the Brillouin zone
       k-points in crystal coordinates                weights
   0:     0.25000000   -0.25000000    0.00000000          2/4
   1:     0.25000000    0.25000000    0.00000000          2/4

Wave functions: Plane wave expansion
  Cutoff energy: 350.000 eV
  Number of coefficients (min, max): 60143, 60161
  Pulay-stress correction: 0.000000 eV/Ang^3 (de/decut=0.000000)
  Using FFTW library
  ScaLapack parameters: grid=1x1, blocksize=None
  Wavefunction extrapolation:
    Improved wavefunction reuse through dual PAW basis 

Occupation numbers: Fermi-Dirac:
  width: 0.1000  # eV
 

Eigensolver
   Davidson(niter=2) 

Densities:
  Coarse grid: 56*56*128 grid
  Fine grid: 112*112*256 grid
  Total Charge: 0.000000 

Density mixing:
  Method: difference
  Backend: pulay
  Linear mixing parameter: 0.05
  old densities: 5
  Damping of long wavelength oscillations: 50 

Hamiltonian:
  XC and Coulomb potentials evaluated on a 112*112*256 grid
  Using the PBE Exchange-Correlation functional
  External potential:
    NoExternalPotential
 

XC parameters: PBE with 2 nearest neighbor stencil

Memory estimate:
  Process memory now: 379.91 MiB
  Calculator: 2209.57 MiB
    Density: 18.91 MiB
      Arrays: 7.39 MiB
      Localized functions: 8.57 MiB
      Mixer: 2.95 MiB
    Hamiltonian: 5.75 MiB
      Arrays: 5.49 MiB
      XC: 0.00 MiB
      Poisson: 0.00 MiB
      vbar: 0.26 MiB
    Wavefunctions: 2184.92 MiB
      Arrays psit_nG: 1382.48 MiB
      Eigensolver: 782.37 MiB
      Projections: 3.31 MiB
      Projectors: 1.16 MiB
      PW-descriptor: 15.59 MiB

Total number of cores used: 30
Parallelization over k-points: 2
Domain decomposition: 1 x 3 x 5

Number of atoms: 125
Number of atomic orbitals: 1116
Number of bands in calculation: 753
Number of valence electrons: 1098
Bands to converge: occupied

... initialized

Initializing position-dependent things.

Density initialized from atomic densities
Creating initial wave functions:
  753 bands from LCAO basis set

                                                                 
                                                                 
                                                                 
                                                                 
                                                                 
                                                                 
                           Co           Fe    Ni   Fe            
                         Co    Fe               Cr               
                            Cr    CoNi  FeCoAlNi     Ni          
                    Al    Cr  CrAl Cr Co  Co     Co   Ni         
                     Fe   Ni     Co          Ni                  
         Cr     Fe    NiCo  NiNi  CrCr Ni  Ni    Al              
                 Co        CNi  Fe Cr  Al Al Fe    Ni            
           Cr    Fe    Fel Al    Fe          Ni                  
           Co     Co Fe Ni  AlNCo  NCr  AlCo  Cr    Cr           
             Cr          Co  NiCo  Ni Fe Co           Cr         
                   Fe          Ni   Co     Co  Cr                
        Co    Fe  CrCFe CrFNi FeCo    Fe   Al    Al    Al        
         Al    Co    Cr   Fe    FeAlFe Co          Fe            
                 Co        CrFe              Fe                  
                  Al Ni    Al    CrNi  CrCo   Ni                 
             Cr        NiFe          Cr                          
                  Al           Cr                                
                                                                 
                                                                 
                                                                 
                                                                 
                                                                 
                                                                 

Positions:
   0 Cr    12.615412    2.078461   10.593540    ( 0.0000,  0.0000,  0.0000)
   1 Cr     2.598912    2.028167   10.852161    ( 0.0000,  0.0000,  0.0000)
   2 Al     4.916921    1.971959    9.799511    ( 0.0000,  0.0000,  0.0000)
   3 Fe     7.668382    2.068798   10.617283    ( 0.0000,  0.0000,  2.0000)
   4 Cr    10.177582    2.283864    9.906173    ( 0.0000,  0.0000,  0.0000)
   5 Co    13.960694    4.032718   10.803353    ( 0.0000,  0.0000,  2.1000)
   6 Co     3.922905    3.969071   11.187913    ( 0.0000,  0.0000,  2.1000)
   7 Ni     6.392346    4.000637   10.165760    ( 0.0000,  0.0000,  1.5000)
   8 Fe     8.797573    4.333588   10.939538    ( 0.0000,  0.0000,  2.0000)
   9 Ni    11.185501    4.133872   10.664719    ( 0.0000,  0.0000,  1.5000)
  10 Ni    15.380939    5.932779    9.546409    ( 0.0000,  0.0000,  1.5000)
  11 Ni     5.055832    5.843775    9.889590    ( 0.0000,  0.0000,  1.5000)
  12 Al     7.653375    6.122827    9.447991    ( 0.0000,  0.0000,  0.0000)
  13 Cr     9.968277    6.306531    9.417716    ( 0.0000,  0.0000,  0.0000)
  14 Cr    12.483932    6.007418    9.554735    ( 0.0000,  0.0000,  0.0000)
  15 Fe    16.731932    8.027075   10.358915    ( 0.0000,  0.0000,  2.0000)
  16 Fe     6.539115    8.280615   10.289909    ( 0.0000,  0.0000,  2.0000)
  17 Fe     8.771442    8.489116    9.997107    ( 0.0000,  0.0000,  2.0000)
  18 Co    11.775659    8.449418   10.043997    ( 0.0000,  0.0000,  2.1000)
  19 Fe    14.219436    8.158416    9.665285    ( 0.0000,  0.0000,  2.0000)
  20 Al    17.795849   10.097630    9.738519    ( 0.0000,  0.0000,  0.0000)
  21 Ni     7.841823   10.690242   10.151737    ( 0.0000,  0.0000,  1.5000)
  22 Co    10.328677   10.301490   10.501037    ( 0.0000,  0.0000,  2.1000)
  23 Co    12.822909   10.520497   10.439299    ( 0.0000,  0.0000,  2.1000)
  24 Al    15.205336   10.910669    9.859510    ( 0.0000,  0.0000,  0.0000)
  25 Al     6.254771   11.024738   12.437115    ( 0.0000,  0.0000,  0.0000)
  26 Fe     8.786418   11.150431   12.792333    ( 0.0000,  0.0000,  2.0000)
  27 Al     5.134467    0.210153   12.701298    ( 0.0000,  0.0000,  0.0000)
  28 Ni    13.845664   11.031944   12.638575    ( 0.0000,  0.0000,  1.5000)
  29 Cr    16.467777   11.640041   11.725066    ( 0.0000,  0.0000,  0.0000)
  30 Al     1.147467    2.473303   12.928697    ( 0.0000,  0.0000,  0.0000)
  31 Co     3.737924    2.188014   12.905544    ( 0.0000,  0.0000,  2.1000)
  32 Cr     6.075004    2.750388   12.556143    ( 0.0000,  0.0000,  0.0000)
  33 Cr     8.529562    2.377020   12.697473    ( 0.0000,  0.0000,  0.0000)
  34 Al    11.198816    2.682139   12.714790    ( 0.0000,  0.0000,  0.0000)
  35 Ni     2.651119    4.557478   13.164149    ( 0.0000,  0.0000,  1.5000)
  36 Co     4.973491    4.771278   13.100577    ( 0.0000,  0.0000,  2.1000)
  37 Fe     7.514016    4.565403   12.911834    ( 0.0000,  0.0000,  2.0000)
  38 Fe    10.021218    4.926232   12.965201    ( 0.0000,  0.0000,  2.0000)
  39 Fe    12.531126    4.636972   13.022647    ( 0.0000,  0.0000,  2.0000)
  40 Cr     3.696586    6.242294   12.041227    ( 0.0000,  0.0000,  0.0000)
  41 Cr     6.321321    6.074187   11.687497    ( 0.0000,  0.0000,  0.0000)
  42 Fe     8.581568    6.712125   11.592556    ( 0.0000,  0.0000,  2.0000)
  43 Fe    11.131253    6.524766   11.391221    ( 0.0000,  0.0000,  2.0000)
  44 Al    13.965162    6.458380   11.626485    ( 0.0000,  0.0000,  0.0000)
  45 Cr    17.961351    8.475152   12.337863    ( 0.0000,  0.0000,  0.0000)
  46 Ni     7.666472    9.096129   12.171192    ( 0.0000,  0.0000,  1.5000)
  47 Ni     9.933365    8.897469   12.254637    ( 0.0000,  0.0000,  1.5000)
  48 Co    12.585753    8.784821   12.148008    ( 0.0000,  0.0000,  2.1000)
  49 Cr    15.107393    9.209175   11.682678    ( 0.0000,  0.0000,  0.0000)
  50 Co     1.004905    0.572867   15.148006    ( 0.0000,  0.0000,  2.1000)
  51 Fe     3.763486    0.553414   14.914762    ( 0.0000,  0.0000,  2.0000)
  52 Fe     6.348597    0.824963   14.802193    ( 0.0000,  0.0000,  2.0000)
  53 Ni     8.880247    0.929033   14.623752    ( 0.0000,  0.0000,  1.5000)
  54 Co    11.067547    0.751371   14.632907    ( 0.0000,  0.0000,  2.1000)
  55 Cr     2.477042    2.658505   15.201078    ( 0.0000,  0.0000,  0.0000)
  56 Fe     5.060108    2.803540   14.872605    ( 0.0000,  0.0000,  2.0000)
  57 Co     7.621248    3.138298   14.885330    ( 0.0000,  0.0000,  2.1000)
  58 Co    10.095406    3.110626   15.026799    ( 0.0000,  0.0000,  2.1000)
  59 Fe    12.706828    3.001025   15.116395    ( 0.0000,  0.0000,  2.0000)
  60 Fe     3.717602    5.206850   15.519984    ( 0.0000,  0.0000,  2.0000)
  61 Al     6.272284    5.406763   15.290971    ( 0.0000,  0.0000,  0.0000)
  62 Ni     8.906130    5.261001   15.085169    ( 0.0000,  0.0000,  1.5000)
  63 Cr    11.401373    5.308934   15.184018    ( 0.0000,  0.0000,  0.0000)
  64 Co    14.052470    5.304179   14.891935    ( 0.0000,  0.0000,  2.1000)
  65 Fe     4.840144    7.082189   14.091039    ( 0.0000,  0.0000,  2.0000)
  66 Al     7.693045    7.134082   13.811058    ( 0.0000,  0.0000,  0.0000)
  67 Ni    10.348733    7.110086   13.989963    ( 0.0000,  0.0000,  1.5000)
  68 Al    12.652037    7.139542   14.060228    ( 0.0000,  0.0000,  0.0000)
  69 Cr    14.928317    7.556687   13.614429    ( 0.0000,  0.0000,  0.0000)
  70 Cr     6.571332    9.326704   14.303063    ( 0.0000,  0.0000,  0.0000)
  71 Fe     8.956370    9.080039   14.341491    ( 0.0000,  0.0000,  2.0000)
  72 Al    11.647964    9.524393   14.685174    ( 0.0000,  0.0000,  0.0000)
  73 Fe    14.018629    9.705077   14.471412    ( 0.0000,  0.0000,  2.0000)
  74 Ni    16.574675    9.422157   14.081123    ( 0.0000,  0.0000,  1.5000)
  75 Cr    12.512681    1.463979   17.028233    ( 0.0000,  0.0000,  0.0000)
  76 Co     2.367219    1.004009   17.046930    ( 0.0000,  0.0000,  2.1000)
  77 Co     5.176044    1.389971   16.971538    ( 0.0000,  0.0000,  2.1000)
  78 Ni     7.630651    1.319088   16.734158    ( 0.0000,  0.0000,  1.5000)
  79 Co    10.214241    1.326092   16.710244    ( 0.0000,  0.0000,  2.1000)
  80 Al    14.094434    3.706232   17.170263    ( 0.0000,  0.0000,  0.0000)
  81 Co     4.129735    3.504685   17.289018    ( 0.0000,  0.0000,  2.1000)
  82 Fe     6.384830    3.410669   16.909996    ( 0.0000,  0.0000,  2.0000)
  83 Ni     8.645372    3.711713   17.241381    ( 0.0000,  0.0000,  1.5000)
  84 Cr    11.346220    3.597605   17.535221    ( 0.0000,  0.0000,  0.0000)
  85 Ni    14.958539    5.965635   17.565659    ( 0.0000,  0.0000,  1.5000)
  86 Fe     5.012741    5.782661   17.722024    ( 0.0000,  0.0000,  2.0000)
  87 Ni     7.355010    5.808778   17.834167    ( 0.0000,  0.0000,  1.5000)
  88 Co     9.872642    5.747683   17.814711    ( 0.0000,  0.0000,  2.1000)
  89 Ni    12.414045    5.782203   17.355583    ( 0.0000,  0.0000,  1.5000)
  90 Al    15.985034    7.860543   16.177619    ( 0.0000,  0.0000,  0.0000)
  91 Co     6.116295    7.423305   16.318244    ( 0.0000,  0.0000,  2.1000)
  92 Ni     8.595755    7.416888   16.402108    ( 0.0000,  0.0000,  1.5000)
  93 Cr    11.033867    7.312362   16.412523    ( 0.0000,  0.0000,  0.0000)
  94 Ni    13.718639    7.487438   16.132047    ( 0.0000,  0.0000,  1.5000)
  95 Ni    17.808261    9.906960   16.525820    ( 0.0000,  0.0000,  1.5000)
  96 Cr     7.686105    9.704585   16.625840    ( 0.0000,  0.0000,  0.0000)
  97 Cr    10.018083    9.707636   16.678052    ( 0.0000,  0.0000,  0.0000)
  98 Co    12.701115   10.016630   16.823560    ( 0.0000,  0.0000,  2.1000)
  99 Co    15.433876   10.315285   16.525688    ( 0.0000,  0.0000,  2.1000)
 100 Co     6.338161   10.333496   18.772686    ( 0.0000,  0.0000,  2.1000)
 101 Cr     2.522375   -0.439724   18.818606    ( 0.0000,  0.0000,  0.0000)
 102 Fe    11.545139   10.454761   19.191456    ( 0.0000,  0.0000,  2.0000)
 103 Ni    13.985819   10.741780   18.571335    ( 0.0000,  0.0000,  1.5000)
 104 Fe    16.418635   10.456369   18.706125    ( 0.0000,  0.0000,  2.0000)
 105 Cr     1.086523    1.861021   19.209589    ( 0.0000,  0.0000,  0.0000)
 106 Fe     3.891804    1.769266   18.918744    ( 0.0000,  0.0000,  2.0000)
 107 Ni     6.457052    1.856849   18.826670    ( 0.0000,  0.0000,  1.5000)
 108 Ni     8.882008    1.908495   18.911640    ( 0.0000,  0.0000,  1.5000)
 109 Cr    11.269015    1.855373   19.057458    ( 0.0000,  0.0000,  0.0000)
 110 Al    14.987086    4.083576   20.108026    ( 0.0000,  0.0000,  0.0000)
 111 Al     5.172216    4.155333   19.718073    ( 0.0000,  0.0000,  0.0000)
 112 Cr     7.431724    4.115740   19.347753    ( 0.0000,  0.0000,  0.0000)
 113 Al     9.932968    4.110004   19.560106    ( 0.0000,  0.0000,  0.0000)
 114 Co    12.680203    4.214512   19.704713    ( 0.0000,  0.0000,  2.1000)
 115 Cr    16.142793    6.669413   19.770139    ( 0.0000,  0.0000,  0.0000)
 116 Co     6.438284    6.327467   20.134671    ( 0.0000,  0.0000,  2.1000)
 117 Fe     8.894728    6.344015   20.066601    ( 0.0000,  0.0000,  2.0000)
 118 Ni    11.367664    6.218850   19.740020    ( 0.0000,  0.0000,  1.5000)
 119 Co    13.758980    6.374259   19.537669    ( 0.0000,  0.0000,  2.1000)
 120 Ni    17.654224    8.196489   18.694513    ( 0.0000,  0.0000,  1.5000)
 121 Cr     7.381144    7.887539   18.636653    ( 0.0000,  0.0000,  0.0000)
 122 Co     9.804884    8.034017   18.788066    ( 0.0000,  0.0000,  2.1000)
 123 Fe    12.214187    8.148576   18.349613    ( 0.0000,  0.0000,  2.0000)
 124 Ni    14.670017    8.493646   18.302650    ( 0.0000,  0.0000,  1.5000)

Unit cell:
           periodic     x           y           z      points  spacing
  1. axis:    yes   12.614700    0.000000    0.000000    56     0.1951
  2. axis:    yes    6.308550   10.926700    0.000000    56     0.1951
  3. axis:    no     0.000000    0.000000   29.353100   128     0.2293

  Lengths:  12.614700  12.617075  29.353100
  Angles:   90.000000  90.000000  59.999934

Effective grid spacing dv^(1/3) = 0.2160

     iter     time        total  log10-change:  magmom
                         energy  eigst   dens
iter:   1 17:03:49 -1151.988952                  +149.4302
iter:   2 17:06:06 -1455.968099  +0.32  -1.08    +80.0193
iter:   3 17:08:23 -3390.189452  +1.47  -0.88    +54.9383
iter:   4 17:10:40  -982.911047  +0.35  -0.52    +32.8287
iter:   5 17:12:58  -954.379356  +0.01  -1.17    +28.9729
iter:   6 17:15:15  -950.959650  -0.45  -1.21    +29.6108
iter:   7 17:17:32  -934.395624  -0.95  -1.23    +31.2296
iter:   8 17:19:50  -929.277231  -1.02  -1.26    +33.0230
iter:   9 17:22:07 -1556.150361  -0.37  -1.27    +36.4473
iter:  10 17:24:25  -932.158487  -0.77  -0.83    +34.2422
iter:  11 17:26:42  -916.262974  -1.64  -1.28    +34.6773
iter:  12 17:28:59 -1002.190315  -1.32  -1.37    +38.2365
iter:  13 17:31:16  -953.431743  -1.10  -1.16    +36.7574
iter:  14 17:33:33  -919.903371  -1.59  -1.27    +37.2580
iter:  15 17:35:51  -908.276036  -1.65  -1.41    +41.0045
iter:  16 17:38:08  -984.018039  -1.63  -1.49    +44.6913
iter:  17 17:40:25  -912.597198  -1.55  -1.20    +45.8517
iter:  18 17:42:42  -944.055774  -1.60  -1.47    +48.1237
iter:  19 17:45:00  -908.018836  -1.71  -1.34    +48.3157
iter:  20 17:47:17  -904.627945  -2.37  -1.54    +49.0580
iter:  21 17:49:35  -902.282399  -2.44  -1.57    +54.1583
iter:  22 17:51:52  -906.787312  -2.20  -1.61    +58.3519
iter:  23 17:54:10  -929.543985  -2.00  -1.59    +60.2418
iter:  24 17:56:27 -1469.422289  -0.44  -1.40    +61.9547
iter:  25 17:58:45  -902.693830  -1.01  -0.86    +57.9988
iter:  26 18:01:02  -901.564966  -1.74  -1.67    +58.0067
iter:  27 18:03:20  -903.113008  -2.34  -1.70    +60.4501
iter:  28 18:05:37  -902.126963  -3.01  -1.67    +62.2307
iter:  29 18:07:55  -901.579990  -2.80  -1.71    +65.3242
iter:  30 18:10:12  -925.601470  -1.91  -1.77    +66.3836
iter:  31 18:12:29  -918.200118  -1.91  -1.48    +65.8443
iter:  32 18:14:46  -902.981567  -2.49  -1.52    +65.1124
iter:  33 18:17:03  -903.271783  -2.62  -1.80    +67.1555
iter:  34 18:19:20  -902.736251  -2.52  -1.86    +67.1527
iter:  35 18:21:37  -902.707093  -2.75  -1.90    +67.9039
iter:  36 18:23:55  -901.896262  -2.52  -1.93    +68.2566
iter:  37 18:26:12  -902.243046  -2.93  -2.13    +68.0798
iter:  38 18:28:30  -904.581444  -2.69  -2.14    +67.0669
iter:  39 18:30:47  -902.260387  -3.05  -1.96    +67.7035
iter:  40 18:33:04  -902.954272  -3.09  -2.31    +68.0641
iter:  41 18:35:15  -902.796944  -3.59  -2.27    +67.9918
iter:  42 18:37:20  -903.392738  -3.30  -2.27    +67.9470
iter:  43 18:39:27  -903.846485  -3.09  -2.24    +68.1811
iter:  44 18:41:32  -904.899714  -2.77  -2.21    +68.7348
iter:  45 18:43:38  -903.995308  -3.24  -2.10    +68.8692
iter:  46 18:45:44  -904.949716  -3.26  -2.25    +69.2699
iter:  47 18:47:48  -904.179914  -3.38  -2.14    +69.2428
iter:  48 18:49:55  -903.975277  -3.13  -2.21    +69.4797
iter:  49 18:52:01  -907.014249  -2.80  -2.24    +69.7376
iter:  50 18:54:09  -903.811490  -3.16  -1.92    +69.7207
iter:  51 18:56:19  -904.194150  -2.94  -2.30    +69.7878
iter:  52 18:58:25  -904.416048  -2.89  -2.23    +69.8028
iter:  53 19:00:31  -905.050873  -2.99  -2.20    +69.5587
iter:  54 19:02:37  -904.108144  -3.55  -2.10    +69.5367
iter:  55 19:04:41  -903.769050  -3.39  -2.28    +69.5204
iter:  56 19:06:46  -903.973727  -3.77  -2.39    +69.6052
iter:  57 19:08:49  -903.927578  -4.04  -2.33    +69.7479
iter:  58 19:10:53  -904.008807c -3.93  -2.37    +69.7370
iter:  59 19:12:56  -910.879685  -2.52  -2.36    +69.8120
iter:  60 19:15:00  -903.967020  -2.79  -1.78    +69.9079
iter:  61 19:17:04  -904.076907  -3.46  -2.43    +69.8583
iter:  62 19:19:19  -904.035074  -3.27  -2.40    +69.8225
iter:  63 19:21:43  -903.794315  -3.68  -2.44    +69.8173
iter:  64 19:24:07  -903.812214  -3.97  -2.63    +69.9461
iter:  65 19:26:31  -903.822095c -4.10  -2.68    +69.8874
iter:  66 19:28:55  -903.851689c -4.14  -2.76    +69.8459
iter:  67 19:31:19  -904.003533  -3.99  -2.74    +69.7899
iter:  68 19:33:43  -903.891946  -3.98  -2.59    +69.7651
iter:  69 19:36:07  -903.924813  -4.23  -2.80    +69.7376
iter:  70 19:38:30  -903.960582c -4.17  -2.79    +69.7065
iter:  71 19:40:54  -903.940816c -4.10  -2.77    +69.7385
iter:  72 19:43:18  -903.978530c -4.30  -2.92    +69.5995
iter:  73 19:45:42  -904.382911  -3.76  -2.87    +69.6473
iter:  74 19:48:03  -904.091600  -3.75  -2.38    +69.5045
iter:  75 19:50:38  -904.088471  -4.27  -2.69    +69.4699
iter:  76 19:53:31  -904.108013c -4.35  -2.73    +69.4693
iter:  77 19:56:23  -904.288896  -3.87  -2.73    +69.4188
iter:  78 19:59:16  -904.301667  -4.54  -2.46    +69.4449
iter:  79 20:02:09  -904.339410c -3.38  -2.46    +69.5111
iter:  80 20:05:03  -904.156036  -3.46  -2.41    +69.4920
iter:  81 20:07:57  -904.140980  -3.45  -2.57    +69.3939
iter:  82 20:10:50  -904.167513c -3.49  -2.61    +69.3691
iter:  83 20:13:44  -904.057235  -3.81  -2.64    +69.0978
iter:  84 20:16:38  -904.036360  -4.40  -2.79    +68.9923
iter:  85 20:19:32  -904.044843c -4.26  -3.00    +68.9541
iter:  86 20:22:25  -904.062409c -4.70  -2.95    +68.8886
iter:  87 20:25:19  -904.042611c -4.97  -2.86    +68.8614
iter:  88 20:28:13  -904.164001  -4.48  -3.00    +68.8018
iter:  89 20:31:07  -904.056681  -4.61  -2.63    +68.8068
iter:  90 20:34:00  -904.061290c -4.43  -2.98    +68.7740
iter:  91 20:36:54  -904.143708c -4.37  -2.97    +68.7564
iter:  92 20:39:48  -904.087491c -4.93  -2.68    +68.7750
iter:  93 20:42:41  -904.049657c -4.48  -2.83    +68.7630
iter:  94 20:45:35  -904.155540c -3.99  -3.07    +68.7151
iter:  95 20:48:28  -904.104193c -4.23  -2.74    +68.6384
iter:  96 20:51:22  -904.046530c -4.78  -2.79    +68.6619
iter:  97 20:54:15  -904.065996c -4.50  -3.17    +68.6441
iter:  98 20:57:08  -904.043059c -4.94  -3.03    +68.6094
iter:  99 21:00:02  -904.047318c -5.16  -3.45    +68.5139
iter: 100 21:02:56  -904.048263c -5.51  -3.49    +68.5394
iter: 101 21:05:50  -904.059339c -5.01  -3.54    +68.5499
iter: 102 21:08:43  -904.039804c -4.53  -3.33    +68.5404
iter: 103 21:11:37  -904.054970c -4.72  -3.46    +68.4865
iter: 104 21:14:31  -904.057658c -5.16  -3.42    +68.5139
iter: 105 21:17:24  -904.060825c -5.27  -3.48    +68.4961
iter: 106 21:20:18  -904.072518c -5.36  -3.38    +68.4940
iter: 107 21:23:11  -904.067186c -5.78  -3.20    +68.4965
iter: 108 21:26:05  -904.072266c -5.05  -3.33    +68.5078
iter: 109 21:28:58  -904.071001c -5.54  -3.28    +68.4651
iter: 110 21:31:51  -904.078136c -4.69  -3.25    +68.4585
iter: 111 21:34:45  -904.070206c -4.64  -3.06    +68.4411
iter: 112 21:37:38  -904.083541c -4.76  -3.18    +68.4055
iter: 113 21:40:32  -904.166758c -4.14  -2.99    +68.4452
iter: 114 21:43:25  -904.065000c -4.61  -2.71    +68.4284
iter: 115 21:46:17  -904.067075c -4.82  -3.26    +68.4760
iter: 116 21:49:10  -904.072793c -5.14  -3.34    +68.4293
iter: 117 21:51:59  -904.077736c -5.25  -3.20    +68.4108
iter: 118 21:54:53  -904.075431c -5.49  -3.13    +68.3868
iter: 119 21:57:46  -904.065607c -4.97  -3.17    +68.3811
iter: 120 22:00:39  -904.190122  -4.28  -3.29    +68.4032
iter: 121 22:03:33  -904.072404  -4.48  -2.64    +68.4215
iter: 122 22:06:26  -904.072764  -5.30  -3.23    +68.4351
iter: 123 22:09:20  -904.068240c -5.33  -3.23    +68.4320
iter: 124 22:12:13  -904.105154c -4.63  -3.25    +68.4471
iter: 125 22:15:06  -904.066557c -5.27  -2.93    +68.4433
iter: 126 22:17:59  -904.080190c -4.68  -3.33    +68.4616
iter: 127 22:20:51  -904.099270c -4.69  -3.07    +68.4483
iter: 128 22:23:44  -904.069827c -5.54  -2.93    +68.4843
iter: 129 22:26:37  -904.070128c -5.69  -3.23    +68.4889
iter: 130 22:29:30  -904.064484c -5.41  -3.25    +68.5080
iter: 131 22:32:23  -904.067767c -5.74  -3.42    +68.5257
iter: 132 22:35:15  -904.062098c -5.85  -3.30    +68.5571
iter: 133 22:38:07  -904.062859c -6.15  -3.66    +68.5457
iter: 134 22:41:00  -904.063238c -5.67  -3.64    +68.6073
iter: 135 22:43:53  -904.062767c -6.28  -3.77    +68.6076
iter: 136 22:46:47  -904.063488c -5.97  -3.86    +68.6602
iter: 137 22:49:39  -904.064678c -5.84  -3.89    +68.6921
iter: 138 22:52:33  -904.070392c -5.02  -3.83    +68.7853
iter: 139 22:55:25  -904.063059c -4.75  -3.50    +68.6206
iter: 140 22:58:18  -904.063845c -5.10  -3.82    +68.5560
iter: 141 23:01:12  -904.060612c -5.77  -3.54    +68.5384
iter: 142 23:04:05  -904.063102c -6.20  -3.73    +68.5610
iter: 143 23:06:55  -904.062991c -6.07  -3.57    +68.5857
iter: 144 23:09:49  -904.060145c -5.70  -3.70    +68.5504
iter: 145 23:12:42  -904.063586c -5.24  -3.71    +68.6320
iter: 146 23:15:35  -904.062944c -6.26  -3.85    +68.6258
iter: 147 23:18:29  -904.066506c -5.49  -3.97    +68.6321
iter: 148 23:21:21  -904.063532c -5.43  -3.41    +68.6283
iter: 149 23:24:14  -904.064758c -5.26  -3.82    +68.6423
iter: 150 23:27:08  -904.064522c -4.89  -3.58    +68.6289
iter: 151 23:30:00  -904.064605c -5.47  -3.86    +68.6461
iter: 152 23:32:53  -904.065415c -6.25  -3.82    +68.6627
iter: 153 23:35:46  -904.064496c -5.72  -3.77    +68.6332
iter: 154 23:38:39  -904.064522c -4.93  -3.69    +68.5900
iter: 155 23:41:33  -904.066490c -5.60  -3.50    +68.6330
iter: 156 23:44:26  -904.072181c -5.28  -3.45    +68.6121
iter: 157 23:47:19  -904.065633c -5.35  -3.21    +68.6292
iter: 158 23:50:12  -904.065376c -5.52  -3.48    +68.6162
iter: 159 23:53:05  -904.073177c -4.89  -3.45    +68.6385
iter: 160 23:55:57  -904.067630c -4.87  -3.22    +68.6568
iter: 161 23:58:51  -904.063722c -5.24  -3.38    +68.6754
iter: 162 00:01:46  -904.066159c -5.38  -3.88    +68.6982
iter: 163 00:04:42  -904.064035c -6.03  -3.48    +68.7040
iter: 164 00:07:37  -904.064837c -5.84  -4.04c   +68.7304
iter: 165 00:10:31  -904.064594c -6.39  -3.70    +68.7471
iter: 166 00:13:26  -904.065224c -6.14  -3.99    +68.7773
iter: 167 00:16:22  -904.064500c -6.30  -3.93    +68.7419
iter: 168 00:19:18  -904.064265c -6.19  -4.03c   +68.7260
iter: 169 00:22:15  -904.064657c -6.39  -4.09c   +68.7559
iter: 170 00:25:15  -904.067029c -5.93  -3.98    +68.7247
iter: 171 00:28:17  -904.065183c -5.81  -3.54    +68.7700
iter: 172 00:31:23  -904.065264c -6.48  -3.92    +68.7744
iter: 173 00:34:30  -904.066112c -6.11  -3.86    +68.8136
iter: 174 00:37:36  -904.064735c -5.94  -3.79    +68.7587
iter: 175 00:40:42  -904.063398c -5.11  -4.10c   +68.6365
iter: 176 00:43:47  -904.063640c -6.04  -3.99    +68.6374
iter: 177 00:47:05  -904.064338c -6.29  -3.94    +68.6600
iter: 178 00:50:15  -904.064022c -6.54  -3.86    +68.6787
iter: 179 00:53:21  -904.063811c -7.18  -3.97    +68.6809
iter: 180 00:56:27  -904.064655c -5.94  -3.98    +68.6919
iter: 181 00:59:33  -904.066426c -5.39  -3.68    +68.7093
iter: 182 01:02:40  -904.063780c -5.66  -3.58    +68.7200
iter: 183 01:05:46  -904.064217c -6.03  -3.98    +68.7393
iter: 184 01:08:52  -904.068189c -5.70  -4.04c   +68.7529
iter: 185 01:12:14  -904.064816c -5.98  -3.38    +68.7683
iter: 186 01:15:21  -904.065628c -5.97  -4.24c   +68.7925
iter: 187 01:18:28  -904.064540c -5.51  -4.05c   +68.7332
iter: 188 01:21:35  -904.064071c -6.21  -4.02c   +68.7322
iter: 189 01:24:40  -904.064440c -6.52  -4.10c   +68.7574
iter: 190 01:27:58  -904.063500c -5.45  -4.07c   +68.6572
iter: 191 01:31:06  -904.064019c -5.29  -3.87    +68.5846
iter: 192 01:34:12  -904.065153c -5.90  -3.76    +68.5917
iter: 193 01:37:18  -904.064442c -6.51  -3.68    +68.6028
iter: 194 01:40:28  -904.065061c -6.46  -3.72    +68.6125
iter: 195 01:43:44  -904.064562c -6.58  -3.69    +68.6133
iter: 196 01:46:51  -904.071614c -4.67  -3.74    +68.6239
iter: 197 01:49:57  -904.139862c -4.47  -3.23    +68.6274
iter: 198 01:53:03  -904.065866c -4.64  -2.75    +68.6803
iter: 199 01:56:10  -904.062671c -5.29  -3.50    +68.6877
iter: 200 01:59:20  -904.063806c -5.51  -3.85    +68.7502
iter: 201 02:02:38  -904.065928c -5.42  -4.06c   +68.7802
iter: 202 02:05:44  -904.065656c -5.67  -3.72    +68.7958
iter: 203 02:08:50  -904.069486c -5.74  -3.94    +68.8091
iter: 204 02:11:55  -904.067497c -5.70  -3.37    +68.8439
iter: 205 02:15:01  -904.068818c -5.73  -3.79    +68.8720
iter: 206 02:18:17  -904.068299c -5.91  -3.68    +68.8258
iter: 207 02:21:24  -904.069566c -5.48  -3.62    +68.9028
iter: 208 02:24:31  -904.068627c -5.63  -3.64    +68.9118
iter: 209 02:27:37  -904.086709c -5.09  -3.56    +68.9699
iter: 210 02:30:43  -904.071417c -5.14  -3.07    +68.9884
iter: 211 02:33:49  -904.074304c -5.05  -3.46    +68.9632
iter: 212 02:36:55  -904.078178c -4.88  -3.40    +68.9596
iter: 213 02:40:01  -904.070865c -5.31  -3.22    +68.9931
iter: 214 02:43:07  -904.069492c -5.24  -3.36    +69.0406
iter: 215 02:46:13  -904.068796c -5.52  -3.54    +69.0544
iter: 216 02:49:18  -904.067804c -5.68  -3.59    +69.0579
iter: 217 02:52:36  -904.068512c -6.23  -3.81    +69.0569
iter: 218 02:55:45  -904.067306c -6.44  -3.57    +69.0649
iter: 219 02:58:51  -904.068084c -6.17  -3.73    +69.0745
iter: 220 03:01:57  -904.067840c -6.43  -3.85    +69.0754
iter: 221 03:05:03  -904.078238c -5.25  -3.68    +69.0813
iter: 222 03:08:09  -904.068658c -5.41  -3.22    +69.0812
iter: 223 03:11:15  -904.067469c -5.99  -3.51    +69.0964
iter: 224 03:14:21  -904.068097c -6.19  -3.94    +69.0904
iter: 225 03:17:27  -904.067551c -6.26  -3.63    +69.0956
iter: 226 03:20:33  -904.067294c -6.12  -3.61    +69.1045
iter: 227 03:23:39  -904.067027c -6.22  -3.94    +69.1059
iter: 228 03:26:44  -904.067203c -6.44  -4.25c   +69.1042
iter: 229 03:29:51  -904.067106c -6.51  -4.22c   +69.1004
iter: 230 03:32:56  -904.067239c -6.83  -4.05c   +69.1067
iter: 231 03:36:02  -904.067256c -7.73c -4.36c   +69.1064

Converged after 231 iterations.

Dipole moment: (35.281984, 36.185997, -0.117396) |e|*Ang

Total magnetic moment: (0.000000, 0.000000, 69.106361)
Local magnetic moments:
   0 Cr ( 0.000000,  0.000000,  2.666167)
   1 Cr ( 0.000000,  0.000000, -2.285003)
   2 Al ( 0.000000,  0.000000, -0.020108)
   3 Fe ( 0.000000,  0.000000,  2.217889)
   4 Cr ( 0.000000,  0.000000, -2.756516)
   5 Co ( 0.000000,  0.000000,  1.099919)
   6 Co ( 0.000000,  0.000000,  0.888313)
   7 Ni ( 0.000000,  0.000000,  0.244408)
   8 Fe ( 0.000000,  0.000000,  2.317254)
   9 Ni ( 0.000000,  0.000000,  0.130855)
  10 Ni ( 0.000000,  0.000000,  0.266599)
  11 Ni ( 0.000000,  0.000000,  0.099386)
  12 Al ( 0.000000,  0.000000, -0.025885)
  13 Cr ( 0.000000,  0.000000, -2.975477)
  14 Cr ( 0.000000,  0.000000, -3.126704)
  15 Fe ( 0.000000,  0.000000,  1.988502)
  16 Fe ( 0.000000,  0.000000,  1.873544)
  17 Fe ( 0.000000,  0.000000,  2.477665)
  18 Co ( 0.000000,  0.000000,  1.655358)
  19 Fe ( 0.000000,  0.000000,  2.659630)
  20 Al ( 0.000000,  0.000000, -0.032166)
  21 Ni ( 0.000000,  0.000000,  0.469285)
  22 Co ( 0.000000,  0.000000,  1.623921)
  23 Co ( 0.000000,  0.000000,  1.527338)
  24 Al ( 0.000000,  0.000000, -0.020999)
  25 Al ( 0.000000,  0.000000, -0.026156)
  26 Fe ( 0.000000,  0.000000,  2.480832)
  27 Al ( 0.000000,  0.000000, -0.026230)
  28 Ni ( 0.000000,  0.000000,  0.296682)
  29 Cr ( 0.000000,  0.000000,  2.206595)
  30 Al ( 0.000000,  0.000000, -0.022393)
  31 Co ( 0.000000,  0.000000,  0.855767)
  32 Cr ( 0.000000,  0.000000, -2.015640)
  33 Cr ( 0.000000,  0.000000, -1.633579)
  34 Al ( 0.000000,  0.000000, -0.038694)
  35 Ni ( 0.000000,  0.000000,  0.211342)
  36 Co ( 0.000000,  0.000000,  0.419376)
  37 Fe ( 0.000000,  0.000000,  1.572178)
  38 Fe ( 0.000000,  0.000000,  2.347565)
  39 Fe ( 0.000000,  0.000000,  2.276711)
  40 Cr ( 0.000000,  0.000000, -1.191326)
  41 Cr ( 0.000000,  0.000000, -1.033304)
  42 Fe ( 0.000000,  0.000000,  1.806893)
  43 Fe ( 0.000000,  0.000000,  2.118850)
  44 Al ( 0.000000,  0.000000, -0.012189)
  45 Cr ( 0.000000,  0.000000, -0.763889)
  46 Ni ( 0.000000,  0.000000,  0.120758)
  47 Ni ( 0.000000,  0.000000,  0.577337)
  48 Co ( 0.000000,  0.000000,  1.328072)
  49 Cr ( 0.000000,  0.000000, -2.245358)
  50 Co ( 0.000000,  0.000000,  0.893048)
  51 Fe ( 0.000000,  0.000000,  2.201552)
  52 Fe ( 0.000000,  0.000000,  2.357336)
  53 Ni ( 0.000000,  0.000000,  0.502467)
  54 Co ( 0.000000,  0.000000,  1.592823)
  55 Cr ( 0.000000,  0.000000, -2.273830)
  56 Fe ( 0.000000,  0.000000,  2.417046)
  57 Co ( 0.000000,  0.000000,  1.408865)
  58 Co ( 0.000000,  0.000000,  1.485206)
  59 Fe ( 0.000000,  0.000000,  2.068638)
  60 Fe ( 0.000000,  0.000000,  2.638986)
  61 Al ( 0.000000,  0.000000, -0.052094)
  62 Ni ( 0.000000,  0.000000,  0.256150)
  63 Cr ( 0.000000,  0.000000, -2.042939)
  64 Co ( 0.000000,  0.000000,  1.364409)
  65 Fe ( 0.000000,  0.000000,  1.814379)
  66 Al ( 0.000000,  0.000000, -0.023367)
  67 Ni ( 0.000000,  0.000000,  0.230737)
  68 Al ( 0.000000,  0.000000, -0.021028)
  69 Cr ( 0.000000,  0.000000,  1.809767)
  70 Cr ( 0.000000,  0.000000, -1.903291)
  71 Fe ( 0.000000,  0.000000,  2.149832)
  72 Al ( 0.000000,  0.000000, -0.044715)
  73 Fe ( 0.000000,  0.000000,  2.365135)
  74 Ni ( 0.000000,  0.000000,  0.182574)
  75 Cr ( 0.000000,  0.000000,  1.104862)
  76 Co ( 0.000000,  0.000000,  0.342478)
  77 Co ( 0.000000,  0.000000,  1.603641)
  78 Ni ( 0.000000,  0.000000,  0.568098)
  79 Co ( 0.000000,  0.000000,  1.571178)
  80 Al ( 0.000000,  0.000000, -0.004551)
  81 Co ( 0.000000,  0.000000,  1.509620)
  82 Fe ( 0.000000,  0.000000,  2.509984)
  83 Ni ( 0.000000,  0.000000,  0.334540)
  84 Cr ( 0.000000,  0.000000, -1.951272)
  85 Ni ( 0.000000,  0.000000,  0.354851)
  86 Fe ( 0.000000,  0.000000,  2.624345)
  87 Ni ( 0.000000,  0.000000,  0.192404)
  88 Co ( 0.000000,  0.000000,  1.113462)
  89 Ni ( 0.000000,  0.000000,  0.072462)
  90 Al ( 0.000000,  0.000000, -0.031950)
  91 Co ( 0.000000,  0.000000,  1.231022)
  92 Ni ( 0.000000,  0.000000,  0.139060)
  93 Cr ( 0.000000,  0.000000,  0.686366)
  94 Ni ( 0.000000,  0.000000,  0.240817)
  95 Ni ( 0.000000,  0.000000,  0.511271)
  96 Cr ( 0.000000,  0.000000,  1.553925)
  97 Cr ( 0.000000,  0.000000, -1.744602)
  98 Co ( 0.000000,  0.000000,  1.622844)
  99 Co ( 0.000000,  0.000000,  1.615994)
 100 Co ( 0.000000,  0.000000,  1.300164)
 101 Cr ( 0.000000,  0.000000, -2.663294)
 102 Fe ( 0.000000,  0.000000,  3.047033)
 103 Ni ( 0.000000,  0.000000,  0.670625)
 104 Fe ( 0.000000,  0.000000,  2.924581)
 105 Cr ( 0.000000,  0.000000, -2.714045)
 106 Fe ( 0.000000,  0.000000,  2.652815)
 107 Ni ( 0.000000,  0.000000,  0.440747)
 108 Ni ( 0.000000,  0.000000,  0.374246)
 109 Cr ( 0.000000,  0.000000,  2.021249)
 110 Al ( 0.000000,  0.000000, -0.005435)
 111 Al ( 0.000000,  0.000000, -0.009376)
 112 Cr ( 0.000000,  0.000000, -2.455516)
 113 Al ( 0.000000,  0.000000, -0.025025)
 114 Co ( 0.000000,  0.000000,  1.161343)
 115 Cr ( 0.000000,  0.000000, -3.223052)
 116 Co ( 0.000000,  0.000000,  1.516306)
 117 Fe ( 0.000000,  0.000000,  2.767554)
 118 Ni ( 0.000000,  0.000000,  0.536839)
 119 Co ( 0.000000,  0.000000,  1.593120)
 120 Ni ( 0.000000,  0.000000,  0.256898)
 121 Cr ( 0.000000,  0.000000, -1.933484)
 122 Co ( 0.000000,  0.000000,  1.377030)
 123 Fe ( 0.000000,  0.000000,  2.547985)
 124 Ni ( 0.000000,  0.000000,  0.451335)

Energy contributions relative to reference atoms: (reference = -3927717.499734)

Kinetic:       +295.696313
Potential:     -302.619517
External:        +0.000000
XC:            -931.482491
Entropy (-ST):   -5.130869
Local:          +36.903874
--------------------------
Free energy:   -906.632690
Extrapolated:  -904.067256

Dipole-layer corrected work functions: 4.451375, 4.605492 eV

Spin contamination: 52.048519 electrons
Showing all kpts
                      Up                     Down
 Kpt  Band  Eigenvalues  Occupancy  Eigenvalues  Occupancy
  0   547      0.13071    0.99790      1.06295    0.04077
  0   548      0.14355    0.99761      1.06680    0.03929
  0   549      0.16430    0.99707      1.07024    0.03801
  0   550      0.17910    0.99660      1.07831    0.03517

  1   547      0.12416    0.99803      1.05505    0.04397
  1   548      0.13322    0.99785      1.06210    0.04110
  1   549      0.14793    0.99751      1.07200    0.03737
  1   550      0.16026    0.99718      1.08486    0.03301


Fermi level: 0.74713

No gap

Forces in eV/Ang:
  0 Cr   -0.02933   -0.96727   -0.26735
  1 Cr   -0.50774   -0.97540   -0.27977
  2 Al    1.05089   -0.41230    0.87155
  3 Fe   -0.28920   -0.71877    0.02819
  4 Cr   -0.60356   -0.95822    0.34051
  5 Co    0.03629    1.03934    0.38329
  6 Co    0.69085   -0.08959   -1.36160
  7 Ni    0.18406   -0.65021    0.90371
  8 Fe   -0.44076   -0.10557   -0.51458
  9 Ni    1.26184    1.40475    0.48115
 10 Ni   -0.99924    0.22862    1.48916
 11 Ni    0.05068    0.67599   -0.74871
 12 Al   -2.52750   -0.37602   -0.80465
 13 Cr    1.09712    0.08174   -0.00112
 14 Cr    1.56761   -0.40368   -0.49030
 15 Fe   -0.86095   -0.57275   -0.22949
 16 Fe   -0.35980   -1.27181   -0.20593
 17 Fe    1.39435   -0.37881   -0.24917
 18 Co   -0.54455   -0.56928   -0.17705
 19 Fe   -0.32076    0.52444    0.51975
 20 Al    0.34754    1.95388    0.32444
 21 Ni   -0.51263    0.06133    0.87636
 22 Co   -0.06405    1.42152   -0.29453
 23 Co    0.06494    0.36989    0.05279
 24 Al   -1.16858   -0.76415   -1.59152
 25 Al   -0.24441    0.28429   -0.24130
 26 Fe   -0.00244   -0.28647   -0.34739
 27 Al   -0.55588   -0.19649   -1.34516
 28 Ni    0.20363    1.34016   -0.74857
 29 Cr   -0.65757   -0.74904    0.92891
 30 Al    1.04623    0.06184    0.26735
 31 Co   -0.15963    1.10051    0.34425
 32 Cr    0.05369   -0.34880   -0.29381
 33 Cr    1.27547    0.42036    0.08626
 34 Al   -0.77384   -0.04767    0.82584
 35 Ni   -1.07567   -0.89291   -0.07392
 36 Co    0.77298   -0.55122    1.66022
 37 Fe    0.29822    0.73233    0.70034
 38 Fe    0.08454   -0.45611    0.08743
 39 Fe    0.37952    0.89645   -0.22244
 40 Cr    0.93970    1.57663   -1.25407
 41 Cr   -0.17211    0.47043    0.71538
 42 Fe    0.78239    0.29510    0.42285
 43 Fe    0.14330    0.56718    1.53268
 44 Al   -1.54985    0.06066   -0.40543
 45 Cr   -0.88822   -0.27731   -0.42280
 46 Ni   -0.29774   -0.42893   -0.07340
 47 Ni    2.00752   -0.75419   -0.20694
 48 Co    0.52810   -0.12005    0.83574
 49 Cr    0.30835   -1.23015    0.86144
 50 Co   -0.08534    0.18923   -1.61540
 51 Fe   -0.45120   -0.01306    0.37963
 52 Fe    0.30994    0.55026   -0.17589
 53 Ni   -1.09792    0.02420   -0.60993
 54 Co    2.47863    0.08177   -0.19857
 55 Cr    1.00568   -0.01366   -1.02365
 56 Fe   -0.30171    1.01010    0.18200
 57 Co   -0.08429   -0.32017    0.02424
 58 Co    0.09084    0.02375    0.12538
 59 Fe   -0.78607    0.35401   -0.14116
 60 Fe    0.12555   -0.04015   -0.51410
 61 Al    0.58919   -1.83568   -0.26457
 62 Ni   -0.44828    0.13857    0.67383
 63 Cr   -0.39594   -1.82587    0.53471
 64 Co   -1.07680   -0.01953    1.55480
 65 Fe    0.53160    0.27975   -0.14524
 66 Al   -0.30312   -1.00431    0.53151
 67 Ni   -1.10012    0.62348   -0.63067
 68 Al   -0.70346    0.10168   -0.70017
 69 Cr    2.14142   -0.22059    0.23647
 70 Cr   -0.80860    0.38790    1.86502
 71 Fe    0.31903    1.50368    1.44260
 72 Al   -1.16884   -1.57220   -0.18403
 73 Fe    0.60881   -1.15898    0.62352
 74 Ni   -0.39462    0.51615    0.34771
 75 Cr    1.00333   -1.07730   -0.25093
 76 Co    0.89594    0.69266    0.03297
 77 Co   -1.13835   -1.79308   -0.72511
 78 Ni    0.43810    0.44000   -0.03374
 79 Co   -0.33379    1.06090    0.71783
 80 Al   -0.46100    0.47741    1.10486
 81 Co   -1.51085    0.55755   -0.13648
 82 Fe   -0.45085    0.77195    0.64179
 83 Ni    1.49635   -0.34508   -0.85077
 84 Cr    0.29231   -0.48362   -0.73759
 85 Ni    0.86452   -0.28867   -0.18228
 86 Fe   -0.86988    0.34500    0.09836
 87 Ni    0.57490   -0.69028   -1.53889
 88 Co    0.16856    0.41532   -0.83398
 89 Ni    1.07952   -0.50290    1.40356
 90 Al    1.50781    0.11901    0.09085
 91 Co   -0.51790    1.74727    0.17791
 92 Ni    0.29975    0.36555   -0.27461
 93 Cr   -0.48187    1.22218   -0.73815
 94 Ni   -1.04338    0.93852    0.09909
 95 Ni   -0.03832    0.06548   -0.21076
 96 Cr   -0.31146   -0.13806    0.88439
 97 Cr    0.40189   -0.06242    0.53755
 98 Co    0.03855   -0.46668   -0.34885
 99 Co   -1.29950   -1.30621   -0.01254
100 Co   -0.05477    0.27411   -0.69137
101 Cr    0.04549   -0.67412    0.70325
102 Fe   -0.39411    0.00390   -1.20007
103 Ni    0.17236    0.16418    0.84214
104 Fe    0.15405   -0.37361   -0.41591
105 Cr   -0.12037    0.11346   -0.29287
106 Fe   -0.31571    0.07995    0.43910
107 Ni   -0.36786    0.39757    1.11515
108 Ni    0.10631    0.02668   -0.27834
109 Cr    0.24807    0.19780    0.47361
110 Al    0.68377    0.27405   -0.62708
111 Al   -2.42002   -0.55971    0.14593
112 Cr    1.71049   -0.62763    0.46209
113 Al    0.75092   -0.53446    1.03325
114 Co   -0.58892   -0.22765   -1.39209
115 Cr    0.24039   -0.28333   -0.33847
116 Co   -0.56279   -0.13020   -1.13257
117 Fe   -0.49556   -0.11397   -0.39119
118 Ni   -0.51224    0.16093   -0.59194
119 Co   -0.22892   -0.23042   -0.27770
120 Ni   -0.28045    0.35688   -0.72758
121 Cr    0.32068    1.67008    0.03227
122 Co    0.51070    0.67014   -0.79742
123 Fe    0.31559    0.08636    0.15353
124 Ni    0.53715   -0.55026   -0.10446

Timing:                              incl.     excl.
-----------------------------------------------------------
Forces:                             52.982    52.982   0.1% |
Hamiltonian:                         1.398     0.010   0.0% |
 Atomic:                             0.369     0.001   0.0% |
  XC Correction:                     0.368     0.368   0.0% |
 Calculate atomic Hamiltonians:      0.450     0.450   0.0% |
 Communicate:                        0.135     0.135   0.0% |
 Initialize Hamiltonian:             0.000     0.000   0.0% |
 Poisson:                            0.089     0.089   0.0% |
 XC 3D grid:                         0.344     0.344   0.0% |
LCAO initialization:               245.977     0.570   0.0% |
 LCAO eigensolver:                  11.095     0.014   0.0% |
  Calculate projections:             0.000     0.000   0.0% |
  DenseAtomicCorrection:             0.000     0.000   0.0% |
  Distribute overlap matrix:         6.682     6.682   0.0% |
  Orbital Layouts:                   4.353     4.353   0.0% |
  Potential matrix:                  0.006     0.006   0.0% |
  Sum over cells:                    0.040     0.040   0.0% |
 LCAO to grid:                     232.231   232.231   0.6% |
 Set positions (LCAO WFS):           2.081     1.799   0.0% |
  Basic WFS set positions:           0.004     0.004   0.0% |
  Basis functions set positions:     0.001     0.001   0.0% |
  P tci:                             0.000     0.000   0.0% |
  ST tci:                            0.105     0.105   0.0% |
  mktci:                             0.172     0.172   0.0% |
PWDescriptor:                        0.099     0.099   0.0% |
SCF-cycle:                       38083.261     6.131   0.0% |
 Davidson:                       36709.628 11245.030  29.3% |-----------|
  Apply H:                         711.986   700.212   1.8% ||
   HMM T:                           11.774    11.774   0.0% |
  Subspace diag:                  3742.494     0.104   0.0% |
   calc_h_matrix:                 1608.118   958.333   2.5% ||
    Apply H:                       649.784   637.471   1.7% ||
     HMM T:                         12.314    12.314   0.0% |
   diagonalize:                    314.910   314.910   0.8% |
   rotate_psi:                    1819.364  1819.364   4.7% |-|
  calc. matrices:                 8743.420  7518.094  19.6% |-------|
   Apply H:                       1225.325  1201.198   3.1% ||
    HMM T:                          24.127    24.127   0.1% |
  diagonalize:                    8424.745  8424.745  21.9% |--------|
  rotate_psi:                     3841.953  3841.953  10.0% |---|
 Density:                          762.519     0.009   0.0% |
  Atomic density matrices:           5.935     5.935   0.0% |
  Mix:                             406.968   406.968   1.1% |
  Multipole moments:                 0.178     0.178   0.0% |
  Pseudo density:                  349.430   349.418   0.9% |
   Symmetrize density:               0.012     0.012   0.0% |
 Hamiltonian:                      587.898     3.335   0.0% |
  Atomic:                           89.751     0.352   0.0% |
   XC Correction:                   89.399    89.399   0.2% |
  Calculate atomic Hamiltonians:   362.251   362.251   0.9% |
  Communicate:                      31.629    31.629   0.1% |
  Poisson:                          10.053    10.053   0.0% |
  XC 3D grid:                       90.878    90.878   0.2% |
 Orthonormalize:                    17.085     0.000   0.0% |
  calc_s_matrix:                     2.038     2.038   0.0% |
  inverse-cholesky:                  0.759     0.759   0.0% |
  projections:                      10.683    10.683   0.0% |
  rotate_psi_s:                      3.605     3.605   0.0% |
Set symmetry:                        0.001     0.001   0.0% |
Other:                               7.537     7.537   0.0% |
-----------------------------------------------------------
Total:                                     38391.255 100.0%

Date: Tue Apr 18 03:36:59 2023
