
  ___ ___ ___ _ _ _  
 |   |   |_  | | | | 
 | | | | | . | | | | 
 |__ |  _|___|_____|  22.8.0
 |___|_|             

User:   c.zeng@d0149
Date:   Sat Apr  8 09:37:55 2023
Arch:   x86_64
Pid:    5360
CWD:    /home/c.zeng/projects/hea-corrosion/hea-mlp/data-curation/volume/dft-jobs/42
Python: 3.8.1
gpaw:   /home/c.zeng/usr/installs/gpaw/source/gpaw-22.8.0/gpaw
_gpaw:  /home/c.zeng/usr/installs/gpaw/source/gpaw-22.8.0/
        _gpaw.cpython-38-x86_64-linux-gnu.so
ase:    /home/c.zeng/.local/lib/python3.8/site-packages/ase-3.22.1-py3.8.egg/ase (version 3.22.1)
numpy:  /shared/centos7/python/3.8.1/lib/python3.8/site-packages/numpy (version 1.17.4)
scipy:  /shared/centos7/python/3.8.1/lib/python3.8/site-packages/scipy (version 1.4.1)
libxc:  4.2.3
units:  Angstrom and eV
cores: 64
OpenMP: False
OMP_NUM_THREADS: 1

Input parameters:
  convergence: {energy: 0.0001}
  kpts: [2 2 2]
  maxiter: 666
  mode: {ecut: 350.0,
         name: pw}
  occupations: {fixmagmom: False,
                name: fermi-dirac,
                width: 0.1}
  spinpol: True
  xc: PBE

System changes: positions, numbers, cell, pbc, initial_charges, initial_magmoms 

Initialize ...

species:
  Cr:
    name: Chromium
    id: 33f258bda2ca9f93018e70263a35547b
    Z: 24.0
    valence: 6
    core: 18
    charge: 0.0
    file: /home/c.zeng/usr/data/gpaw-setups-0.9.20000/Cr.PBE.gz
    compensation charges: {type: gauss,
                           rc: 0.35,
                           lmax: 2}
    cutoffs: {filter: 2.14,
              core: 3.04}
    valence states:
      #              energy  rcut
      - 4s(1.00)    -4.007   1.164
      - 4p(0.00)    -0.989   1.217
      - 3d(5.00)    -2.913   1.111
      -  s          23.205   1.164
      -  p          26.223   1.217
      -  d          24.299   1.111
  
    # Using partial waves for Cr as LCAO basis

  Al:
    name: Aluminium
    id: 0292cae29f5d6237e50f6abdd43a7bdd
    Z: 13.0
    valence: 3
    core: 10
    charge: 0.0
    file: /home/c.zeng/usr/data/gpaw-setups-0.9.20000/Al.PBE.gz
    compensation charges: {type: gauss,
                           rc: 0.34,
                           lmax: 2}
    cutoffs: {filter: 1.91,
              core: 2.36}
    valence states:
      #              energy  rcut
      - 3s(2.00)    -7.753   1.085
      - 3p(1.00)    -2.712   1.085
      -  s          19.459   1.085
      -  p          24.499   1.085
      -  d           0.000   1.085
  
    # Using partial waves for Al as LCAO basis

  Co:
    name: Cobalt
    id: 339d20d5b0b93d2de9531a1bee871d91
    Z: 27.0
    valence: 9
    core: 18
    charge: 0.0
    file: /home/c.zeng/usr/data/gpaw-setups-0.9.20000/Co.PBE.gz
    compensation charges: {type: gauss,
                           rc: 0.32,
                           lmax: 2}
    cutoffs: {filter: 1.87,
              core: 2.55}
    valence states:
      #              energy  rcut
      - 4s(2.00)    -5.469   1.005
      - 4p(0.00)    -1.277   1.058
      - 3d(7.00)    -8.205   1.005
      -  s          21.742   1.005
      -  p          25.934   1.058
      -  d          19.007   1.005
  
    # Using partial waves for Co as LCAO basis

  Fe:
    name: Iron
    id: 37abbd8d6c3c35915a9b583b742da910
    Z: 26.0
    valence: 8
    core: 18
    charge: 0.0
    file: /home/c.zeng/usr/data/gpaw-setups-0.9.20000/Fe.PBE.gz
    compensation charges: {type: gauss,
                           rc: 0.33,
                           lmax: 2}
    cutoffs: {filter: 2.06,
              core: 2.67}
    valence states:
      #              energy  rcut
      - 4s(2.00)    -5.291   1.164
      - 4p(0.00)    -1.326   1.058
      - 3d(6.00)    -7.505   1.058
      -  s          21.920   1.164
      -  p          25.885   1.058
      -  d          19.706   1.058
  
    # Using partial waves for Fe as LCAO basis

  Ni:
    name: Nickel
    id: 0d9f38a9d6e76a2886f07bb4381f212b
    Z: 28.0
    valence: 16
    core: 12
    charge: 0.0
    file: /home/c.zeng/usr/data/gpaw-setups-0.9.20000/Ni.PBE.gz
    compensation charges: {type: gauss,
                           rc: 0.36,
                           lmax: 2}
    cutoffs: {filter: 2.14,
              core: 1.98}
    valence states:
      #              energy  rcut
      - 4s(2.00)    -5.642   1.164
      - 3p(6.00)   -71.394   1.207
      - 4p(0.00)    -1.226   1.207
      - 3d(8.00)    -8.875   1.138
      -  s          21.570   1.164
      -  d          18.337   1.138
  
    # Using partial waves for Ni as LCAO basis

Reference energy: -3699400.456887  # eV

Spin-polarized calculation.
Magnetic moment: 143.500000

Convergence criteria:
 Maximum [total energy] change in last 3 cyles: 0.0001 eV / electron
 Maximum integral of absolute [dens]ity change: 0.0001 electrons / valence electron
 Maximum integral of absolute [eigenst]ate change: 4e-08 eV^2 / valence electron
 Maximum number of scf [iter]ations: 666
 (Square brackets indicate name in SCF output, whereas a 'c' in
 the SCF output indicates the quantity has converged.)

Symmetries present (total): 1

  ( 1  0  0)
  ( 0  1  0)
  ( 0  0  1)

8 k-points: 2 x 2 x 2 Monkhorst-Pack grid
4 k-points in the irreducible part of the Brillouin zone
       k-points in crystal coordinates                weights
   0:     0.25000000   -0.25000000   -0.25000000          2/8
   1:     0.25000000   -0.25000000    0.25000000          2/8
   2:     0.25000000    0.25000000   -0.25000000          2/8
   3:     0.25000000    0.25000000    0.25000000          2/8

Wave functions: Plane wave expansion
  Cutoff energy: 350.000 eV
  Number of coefficients (min, max): 18052, 18052
  Pulay-stress correction: 0.000000 eV/Ang^3 (de/decut=0.000000)
  Using FFTW library
  ScaLapack parameters: grid=1x1, blocksize=None
  Wavefunction extrapolation:
    Improved wavefunction reuse through dual PAW basis 

Occupation numbers: Fermi-Dirac:
  width: 0.1000  # eV
 

Eigensolver
   Davidson(niter=2) 

Densities:
  Coarse grid: 48*48*48 grid
  Fine grid: 96*96*96 grid
  Total Charge: 0.000000 

Density mixing:
  Method: difference
  Backend: pulay
  Linear mixing parameter: 0.05
  old densities: 5
  Damping of long wavelength oscillations: 50 

Hamiltonian:
  XC and Coulomb potentials evaluated on a 96*96*96 grid
  Using the PBE Exchange-Correlation functional
  External potential:
    NoExternalPotential
 

XC parameters: PBE with 2 nearest neighbor stencil

Memory estimate:
  Process memory now: 170.55 MiB
  Calculator: 671.38 MiB
    Density: 5.00 MiB
      Arrays: 1.85 MiB
      Localized functions: 2.41 MiB
      Mixer: 0.74 MiB
    Hamiltonian: 1.44 MiB
      Arrays: 1.37 MiB
      XC: 0.00 MiB
      Poisson: 0.00 MiB
      vbar: 0.07 MiB
    Wavefunctions: 664.94 MiB
      Arrays psit_nG: 387.29 MiB
      Eigensolver: 270.45 MiB
      Projections: 2.57 MiB
      Projectors: 0.33 MiB
      PW-descriptor: 4.30 MiB

Total number of cores used: 64
Parallelization over k-points: 4
Domain decomposition: 4 x 2 x 2

Number of atoms: 108
Number of atomic orbitals: 1025
Number of bands in calculation: 703
Number of valence electrons: 1020
Bands to converge: occupied

... initialized

Initializing position-dependent things.

Density initialized from atomic densities
Creating initial wave functions:
  703 bands from LCAO basis set

        Cr------------------------.  
       /|  Ni                Cr   |  
      Cr|   Fe         Al         |  
     / Ni      Cr       Fe        |  
    /   CFe      Co       Cr      |  
   /o   | NiFe     CrFe    CrNi   |  
  /  NiCo  FeCo     CrNiFe        |  
 *    FeCo  CrNiNi     CoCo       |  
 |     NiCoCr  CoNi Co  AlCrFe    |  
 | Ni   FeFeCoAl CoNiNiCo  Ni     |  
 |   FeCr  NiCoCo   FeFeCr   Fe   |  
 |    CrNi  CrCoFeCr NiNiNi   Ni  |  
 |     NiNiNi  Co CrCo  CrFeCo    |  
 |      .-FeCrNi-FeCoCoFe--CrFe---.  
 |   CoFe    FeAl   CrNiNi       /   
 |    / Fe    CoCr       Co     /    
 |   /            Fe           /     
 |Al/      Cr       Co        /      
 | /                         /       
 |/            Fe           /        
 *----------------Cr-------*         

Positions:
   0 Cr     0.005277   -0.016348   10.639802    ( 0.0000,  0.0000,  0.0000)
   1 Al    10.672340    1.801319    1.786848    ( 0.0000,  0.0000,  0.0000)
   2 Cr     1.795716   10.626014    1.782238    ( 0.0000,  0.0000,  0.0000)
   3 Co     1.780765    1.796186   10.644573    ( 0.0000,  0.0000,  2.1000)
   4 Fe     3.523539   -0.014525    0.017249    ( 0.0000,  0.0000,  2.0000)
   5 Cr     3.522536    1.781640    1.746637    ( 0.0000,  0.0000,  0.0000)
   6 Ni     5.320942   10.642385    1.763178    ( 0.0000,  0.0000,  1.5000)
   7 Fe     5.342125    1.828799    0.007448    ( 0.0000,  0.0000,  2.0000)
   8 Cr     7.144906    0.019214    0.012068    ( 0.0000,  0.0000,  0.0000)
   9 Co     7.143497    1.798117    1.764950    ( 0.0000,  0.0000,  2.1000)
  10 Ni     8.891394   10.651627    1.788342    ( 0.0000,  0.0000,  1.5000)
  11 Fe     8.888747    1.804883   10.642662    ( 0.0000,  0.0000,  2.0000)
  12 Co     0.008701    3.581615   10.650229    ( 0.0000,  0.0000,  2.1000)
  13 Co     0.019038    5.332702    1.789751    ( 0.0000,  0.0000,  2.1000)
  14 Fe     1.778161    3.600909    1.759998    ( 0.0000,  0.0000,  2.0000)
  15 Fe     1.790498    5.343278   -0.017833    ( 0.0000,  0.0000,  2.0000)
  16 Fe     3.542812    3.589842   -0.015676    ( 0.0000,  0.0000,  2.0000)
  17 Fe     3.526847    5.358485    1.765782    ( 0.0000,  0.0000,  2.0000)
  18 Cr     5.336650    3.606480    1.755815    ( 0.0000,  0.0000,  0.0000)
  19 Co     5.300345    5.323674   -0.012851    ( 0.0000,  0.0000,  2.1000)
  20 Fe     7.122826    3.584912   10.659534    ( 0.0000,  0.0000,  2.0000)
  21 Ni     7.120436    5.315211    1.805556    ( 0.0000,  0.0000,  1.5000)
  22 Co     8.892013    3.591027    1.773146    ( 0.0000,  0.0000,  2.1000)
  23 Cr     8.925308    5.301562   -0.003122    ( 0.0000,  0.0000,  0.0000)
  24 Cr     0.023105    7.096616   -0.007933    ( 0.0000,  0.0000,  0.0000)
  25 Ni     0.019204    8.871149    1.787488    ( 0.0000,  0.0000,  1.5000)
  26 Fe     1.784426    7.104535    1.776411    ( 0.0000,  0.0000,  2.0000)
  27 Ni     1.779965    8.867606   10.659396    ( 0.0000,  0.0000,  1.5000)
  28 Co     3.547807    7.097940    0.009195    ( 0.0000,  0.0000,  2.1000)
  29 Co     3.541148    8.858141    1.788257    ( 0.0000,  0.0000,  2.1000)
  30 Co     5.295041    7.099391    1.787937    ( 0.0000,  0.0000,  2.1000)
  31 Cr     5.303685    8.873860    0.029886    ( 0.0000,  0.0000,  0.0000)
  32 Al     7.106787    7.088687   10.645127    ( 0.0000,  0.0000,  0.0000)
  33 Cr     7.111013    8.901084    1.809472    ( 0.0000,  0.0000,  0.0000)
  34 Cr     8.939395    7.093319    1.799206    ( 0.0000,  0.0000,  0.0000)
  35 Cr     8.919930    8.915778   10.664955    ( 0.0000,  0.0000,  0.0000)
  36 Fe    10.679704   10.658851    3.584453    ( 0.0000,  0.0000,  2.0000)
  37 Co    10.670910    1.796357    5.340268    ( 0.0000,  0.0000,  2.1000)
  38 Cr     1.770296   10.648991    5.343523    ( 0.0000,  0.0000,  0.0000)
  39 Fe     1.791789    1.784671    3.584891    ( 0.0000,  0.0000,  2.0000)
  40 Co     3.529686   10.626399    3.565308    ( 0.0000,  0.0000,  2.1000)
  41 Ni     3.535737    1.793433    5.367342    ( 0.0000,  0.0000,  1.5000)
  42 Ni     5.311508    0.001558    5.366307    ( 0.0000,  0.0000,  1.5000)
  43 Al     5.332670    1.768023    3.580825    ( 0.0000,  0.0000,  0.0000)
  44 Fe     7.137009   10.673941    3.563782    ( 0.0000,  0.0000,  2.0000)
  45 Co     7.136838    1.794073    5.358944    ( 0.0000,  0.0000,  2.1000)
  46 Fe     8.925970   10.673514    5.347568    ( 0.0000,  0.0000,  2.0000)
  47 Ni     8.883827    1.779079    3.582383    ( 0.0000,  0.0000,  1.5000)
  48 Fe    -0.010059    3.572320    3.580985    ( 0.0000,  0.0000,  2.0000)
  49 Fe    10.685573    5.328892    5.338550    ( 0.0000,  0.0000,  2.0000)
  50 Ni     1.784191    3.582917    5.348379    ( 0.0000,  0.0000,  1.5000)
  51 Ni     1.766369    5.339446    3.565255    ( 0.0000,  0.0000,  1.5000)
  52 Cr     3.522408    3.604943    3.574080    ( 0.0000,  0.0000,  0.0000)
  53 Co     3.543581    5.347279    5.347962    ( 0.0000,  0.0000,  2.1000)
  54 Fe     5.334004    3.591646    5.360651    ( 0.0000,  0.0000,  2.0000)
  55 Cr     5.336426    5.346298    3.560164    ( 0.0000,  0.0000,  0.0000)
  56 Co     7.143070    3.570143    3.572138    ( 0.0000,  0.0000,  2.1000)
  57 Fe     7.120265    5.347525    5.345700    ( 0.0000,  0.0000,  2.0000)
  58 Ni     8.888256    3.570687    5.342029    ( 0.0000,  0.0000,  1.5000)
  59 Fe     8.904573    5.339105    3.577442    ( 0.0000,  0.0000,  2.0000)
  60 Cr     0.020357    7.105015    3.565223    ( 0.0000,  0.0000,  0.0000)
  61 Ni     0.010825    8.875920    5.335306    ( 0.0000,  0.0000,  1.5000)
  62 Fe     1.776112    7.099060    5.335498    ( 0.0000,  0.0000,  2.0000)
  63 Ni     1.782697    8.879954    3.566664    ( 0.0000,  0.0000,  1.5000)
  64 Co     3.540390    7.112880    3.549920    ( 0.0000,  0.0000,  2.1000)
  65 Co     3.550112    8.855633    5.319501    ( 0.0000,  0.0000,  2.1000)
  66 Ni     5.302288    7.072819    5.331720    ( 0.0000,  0.0000,  1.5000)
  67 Fe     5.308680    8.888747    3.547252    ( 0.0000,  0.0000,  2.0000)
  68 Ni     7.110404    7.091131    3.542578    ( 0.0000,  0.0000,  1.5000)
  69 Al     7.111365    8.868268    5.343310    ( 0.0000,  0.0000,  0.0000)
  70 Ni     8.928862    7.090939    5.344985    ( 0.0000,  0.0000,  1.5000)
  71 Fe     8.912812    8.874650    3.555810    ( 0.0000,  0.0000,  2.0000)
  72 Cr     0.013195   10.658947    7.109743    ( 0.0000,  0.0000,  0.0000)
  73 Fe    10.669438    1.787478    8.884201    ( 0.0000,  0.0000,  2.0000)
  74 Fe     1.768599   10.665468    8.879922    ( 0.0000,  0.0000,  2.0000)
  75 Cr     1.779602    1.805396    7.118291    ( 0.0000,  0.0000,  0.0000)
  76 Cr     3.512110   10.665905    7.084493    ( 0.0000,  0.0000,  0.0000)
  77 Cr     3.526186    1.824252    8.897978    ( 0.0000,  0.0000,  0.0000)
  78 Al     5.331154    0.023541    8.896687    ( 0.0000,  0.0000,  0.0000)
  79 Co     5.335295    1.825341    7.095667    ( 0.0000,  0.0000,  2.1000)
  80 Cr     7.148620    0.023830    7.114161    ( 0.0000,  0.0000,  0.0000)
  81 Co     7.139986    1.808416    8.892717    ( 0.0000,  0.0000,  2.1000)
  82 Co     8.906857    0.013065    8.882355    ( 0.0000,  0.0000,  2.1000)
  83 Cr     8.894094    1.797712    7.127981    ( 0.0000,  0.0000,  0.0000)
  84 Ni     0.021833    3.574998    7.113798    ( 0.0000,  0.0000,  1.5000)
  85 Ni     0.023507    5.326576    8.882152    ( 0.0000,  0.0000,  1.5000)
  86 Co     1.768109    3.569897    8.891671    ( 0.0000,  0.0000,  2.1000)
  87 Co     1.775227    5.350011    7.118760    ( 0.0000,  0.0000,  2.1000)
  88 Co     3.546377    3.587847    7.119913    ( 0.0000,  0.0000,  2.1000)
  89 Co     3.540315    5.336085    8.886218    ( 0.0000,  0.0000,  2.1000)
  90 Ni     5.331998    3.563515    8.882056    ( 0.0000,  0.0000,  1.5000)
  91 Ni     5.316299    5.330770    7.117053    ( 0.0000,  0.0000,  1.5000)
  92 Ni     7.104087    3.574998    7.111568    ( 0.0000,  0.0000,  1.5000)
  93 Ni     7.108697    5.307805    8.854384    ( 0.0000,  0.0000,  1.5000)
  94 Co     8.907583    3.561413    8.890369    ( 0.0000,  0.0000,  2.1000)
  95 Cr     8.917806    5.336352    7.100234    ( 0.0000,  0.0000,  0.0000)
  96 Fe     0.016286    7.101974    7.111685    ( 0.0000,  0.0000,  2.0000)
  97 Ni     0.000789    8.895118    8.883902    ( 0.0000,  0.0000,  1.5000)
  98 Ni     1.771214    7.105100    8.888608    ( 0.0000,  0.0000,  1.5000)
  99 Fe     1.775109    8.850265    7.108473    ( 0.0000,  0.0000,  2.0000)
 100 Ni     3.530369    7.086489    7.104930    ( 0.0000,  0.0000,  1.5000)
 101 Cr     3.524820    8.851055    8.894755    ( 0.0000,  0.0000,  0.0000)
 102 Cr     5.310611    7.102945    8.871075    ( 0.0000,  0.0000,  0.0000)
 103 Cr     5.290613    8.850340    7.104844    ( 0.0000,  0.0000,  0.0000)
 104 Co     7.129037    7.083394    7.142740    ( 0.0000,  0.0000,  2.1000)
 105 Fe     7.143252    8.903186    8.854416    ( 0.0000,  0.0000,  2.0000)
 106 Cr     8.926504    7.115858    8.862367    ( 0.0000,  0.0000,  0.0000)
 107 Ni     8.932949    8.877638    7.127490    ( 0.0000,  0.0000,  1.5000)

Unit cell:
           periodic     x           y           z      points  spacing
  1. axis:    yes   10.671700    0.000000    0.000000    48     0.2223
  2. axis:    yes    0.000000   10.671700    0.000000    48     0.2223
  3. axis:    yes    0.000000    0.000000   10.671700    48     0.2223

  Lengths:  10.671700  10.671700  10.671700
  Angles:   90.000000  90.000000  90.000000

Effective grid spacing dv^(1/3) = 0.2223

     iter     time        total  log10-change:  magmom
                         energy  eigst   dens
iter:   1 09:40:14 -1058.540446                  +143.7773
iter:   2 09:41:11  -939.124721  -0.23  -1.20    +81.6442
iter:   3 09:42:07  -922.092404  -0.90  -1.22    +69.7692
iter:   4 09:43:03  -902.334606  -1.30  -1.29    +65.6139
iter:   5 09:43:59  -887.712347  -1.59  -1.32    +62.5193
iter:   6 09:44:56  -886.775168  -1.27  -1.39    +63.0160
iter:   7 09:45:52  -883.374177  -1.28  -1.48    +62.1150
iter:   8 09:46:48  -870.860211  -1.76  -1.57    +61.7835
iter:   9 09:47:45  -869.164326  -2.18  -1.76    +63.0255
iter:  10 09:48:41  -869.256288  -2.63  -1.85    +64.1287
iter:  11 09:49:37  -869.856900  -2.59  -1.86    +65.4261
iter:  12 09:50:33  -871.054077  -2.46  -1.91    +66.6137
iter:  13 09:51:30  -870.997481  -2.48  -1.94    +67.1124
iter:  14 09:52:26  -870.844509  -2.56  -2.02    +67.9714
iter:  15 09:53:22  -870.922323  -2.81  -2.05    +68.6214
iter:  16 09:54:19  -870.461954  -2.98  -2.09    +68.8776
iter:  17 09:55:15  -870.538507  -3.23  -2.19    +69.4147
iter:  18 09:56:11  -870.391025  -3.28  -2.20    +69.7544
iter:  19 09:57:08  -870.643922  -3.13  -2.31    +70.1039
iter:  20 09:58:04  -870.426520  -3.23  -2.29    +70.1917
iter:  21 09:59:01  -870.483108  -3.43  -2.41    +70.5199
iter:  22 09:59:57  -870.449865c -3.49  -2.41    +70.6176
iter:  23 10:00:53  -870.432361c -3.46  -2.45    +70.5561
iter:  24 10:01:49  -870.371965c -3.68  -2.51    +70.6775
iter:  25 10:02:45  -870.408380c -3.66  -2.57    +70.6879
iter:  26 10:03:40  -870.413576c -3.77  -2.60    +70.6916
iter:  27 10:04:37  -870.378874c -3.86  -2.59    +70.7105
iter:  28 10:05:33  -870.417816c -3.91  -2.66    +70.7690
iter:  29 10:06:29  -870.413417c -4.04  -2.67    +70.8236
iter:  30 10:07:24  -870.412709c -4.11  -2.69    +70.7266
iter:  31 10:08:20  -870.392434c -4.37  -2.72    +70.7304
iter:  32 10:09:16  -870.474503c -3.98  -2.80    +70.7108
iter:  33 10:10:11  -870.416996c -4.17  -2.71    +70.7189
iter:  34 10:11:07  -870.419533c -4.41  -2.83    +70.6713
iter:  35 10:12:02  -870.436205c -4.42  -2.85    +70.6281
iter:  36 10:12:58  -870.426850c -4.41  -2.86    +70.6573
iter:  37 10:13:54  -870.424445c -4.61  -2.93    +70.6191
iter:  38 10:14:50  -870.443895c -4.59  -2.98    +70.5864
iter:  39 10:15:45  -870.444371c -4.51  -2.97    +70.5612
iter:  40 10:16:41  -870.452179c -4.50  -2.99    +70.5438
iter:  41 10:17:36  -870.451683c -4.61  -2.99    +70.5604
iter:  42 10:18:32  -870.447222c -4.70  -3.04    +70.4565
iter:  43 10:19:28  -870.450269c -4.80  -3.16    +70.4531
iter:  44 10:20:24  -870.452260c -5.00  -3.13    +70.4291
iter:  45 10:21:21  -870.458694c -4.97  -3.21    +70.3992
iter:  46 10:22:16  -870.459441c -4.90  -3.19    +70.3611
iter:  47 10:23:13  -870.460780c -5.17  -3.19    +70.3053
iter:  48 10:24:09  -870.460896c -5.24  -3.27    +70.2908
iter:  49 10:25:06  -870.465845c -5.20  -3.31    +70.2373
iter:  50 10:26:01  -870.464949c -5.47  -3.29    +70.2105
iter:  51 10:26:56  -870.468872c -5.32  -3.36    +70.1370
iter:  52 10:27:53  -870.471988c -5.26  -3.34    +70.1314
iter:  53 10:28:49  -870.471887c -5.38  -3.33    +70.1049
iter:  54 10:29:44  -870.474626c -5.31  -3.39    +70.0302
iter:  55 10:30:40  -870.476306c -5.39  -3.42    +70.0230
iter:  56 10:31:38  -870.476153c -5.60  -3.39    +69.9869
iter:  57 10:32:34  -870.477586c -5.78  -3.47    +69.9589
iter:  58 10:33:30  -870.478799c -5.92  -3.48    +69.9196
iter:  59 10:34:26  -870.481797c -5.62  -3.49    +69.8520
iter:  60 10:35:22  -870.486553c -5.23  -3.45    +69.7048
iter:  61 10:36:18  -870.491598c -5.26  -3.42    +69.6122
iter:  62 10:37:14  -870.488678c -5.93  -3.35    +69.6914
iter:  63 10:38:10  -870.499601c -4.58  -3.38    +69.3843
iter:  64 10:39:06  -870.501044c -5.03  -3.30    +69.2932
iter:  65 10:40:01  -870.504658c -5.11  -3.34    +69.2491
iter:  66 10:40:57  -870.504980c -4.85  -3.33    +69.2649
iter:  67 10:41:53  -870.501323c -5.07  -3.29    +69.2370
iter:  68 10:42:49  -870.501295c -5.01  -3.46    +69.1901
iter:  69 10:43:45  -870.499825c -5.28  -3.46    +69.1794
iter:  70 10:44:41  -870.499013c -5.74  -3.57    +69.1536
iter:  71 10:45:37  -870.498031c -6.13  -3.69    +69.1420
iter:  72 10:46:34  -870.498486c -6.21  -3.82    +69.0991
iter:  73 10:47:29  -870.498378c -6.29  -3.83    +69.0937
iter:  74 10:48:26  -870.498544c -6.39  -3.83    +69.0760
iter:  75 10:49:22  -870.498774c -6.18  -3.87    +69.0533
iter:  76 10:50:18  -870.498649c -6.15  -3.93    +69.0387
iter:  77 10:51:15  -870.499126c -6.21  -3.86    +69.0286
iter:  78 10:52:10  -870.498683c -6.46  -3.91    +69.0244
iter:  79 10:53:06  -870.498932c -6.57  -4.00c   +69.0011
iter:  80 10:54:02  -870.498946c -6.53  -4.04c   +68.9902
iter:  81 10:54:58  -870.498890c -6.99  -4.01c   +68.9834
iter:  82 10:55:54  -870.499059c -6.88  -4.10c   +68.9686
iter:  83 10:56:50  -870.498975c -6.89  -4.11c   +68.9589
iter:  84 10:57:46  -870.499233c -7.00  -4.11c   +68.9467
iter:  85 10:58:42  -870.499212c -7.05  -4.13c   +68.9398
iter:  86 10:59:39  -870.499449c -6.65  -4.16c   +68.9284
iter:  87 11:00:34  -870.499412c -6.78  -4.08c   +68.9212
iter:  88 11:01:30  -870.499398c -6.92  -4.13c   +68.9113
iter:  89 11:02:26  -870.499712c -6.90  -4.19c   +68.9054
iter:  90 11:03:22  -870.499473c -6.91  -4.17c   +68.8990
iter:  91 11:04:18  -870.499572c -7.21  -4.19c   +68.8863
iter:  92 11:05:13  -870.499633c -7.41c -4.25c   +68.8772

Converged after 92 iterations.

Dipole moment: (-9.625759, 8.076216, 8.215182) |e|*Ang

Total magnetic moment: (0.000000, 0.000000, 68.877170)
Local magnetic moments:
   0 Cr ( 0.000000,  0.000000, -0.904588)
   1 Al ( 0.000000,  0.000000, -0.041463)
   2 Cr ( 0.000000,  0.000000, -1.125817)
   3 Co ( 0.000000,  0.000000,  0.733771)
   4 Fe ( 0.000000,  0.000000,  1.773678)
   5 Cr ( 0.000000,  0.000000, -0.811071)
   6 Ni ( 0.000000,  0.000000,  0.191051)
   7 Fe ( 0.000000,  0.000000,  2.076016)
   8 Cr ( 0.000000,  0.000000, -1.168282)
   9 Co ( 0.000000,  0.000000,  1.222761)
  10 Ni ( 0.000000,  0.000000,  0.177391)
  11 Fe ( 0.000000,  0.000000,  2.244803)
  12 Co ( 0.000000,  0.000000,  1.366410)
  13 Co ( 0.000000,  0.000000,  1.002739)
  14 Fe ( 0.000000,  0.000000,  2.001995)
  15 Fe ( 0.000000,  0.000000,  2.272056)
  16 Fe ( 0.000000,  0.000000,  2.037051)
  17 Fe ( 0.000000,  0.000000,  1.899069)
  18 Cr ( 0.000000,  0.000000, -1.121612)
  19 Co ( 0.000000,  0.000000,  1.268676)
  20 Fe ( 0.000000,  0.000000,  2.282865)
  21 Ni ( 0.000000,  0.000000,  0.255240)
  22 Co ( 0.000000,  0.000000,  1.280697)
  23 Cr ( 0.000000,  0.000000, -0.943211)
  24 Cr ( 0.000000,  0.000000, -0.883806)
  25 Ni ( 0.000000,  0.000000,  0.173954)
  26 Fe ( 0.000000,  0.000000,  2.278913)
  27 Ni ( 0.000000,  0.000000,  0.220784)
  28 Co ( 0.000000,  0.000000,  1.175584)
  29 Co ( 0.000000,  0.000000,  1.152636)
  30 Co ( 0.000000,  0.000000,  1.138229)
  31 Cr ( 0.000000,  0.000000,  1.024492)
  32 Al ( 0.000000,  0.000000, -0.010897)
  33 Cr ( 0.000000,  0.000000, -1.484001)
  34 Cr ( 0.000000,  0.000000,  0.817092)
  35 Cr ( 0.000000,  0.000000,  0.988875)
  36 Fe ( 0.000000,  0.000000,  2.256845)
  37 Co ( 0.000000,  0.000000,  0.965914)
  38 Cr ( 0.000000,  0.000000, -1.215600)
  39 Fe ( 0.000000,  0.000000,  2.022840)
  40 Co ( 0.000000,  0.000000,  1.088208)
  41 Ni ( 0.000000,  0.000000,  0.155215)
  42 Ni ( 0.000000,  0.000000,  0.264475)
  43 Al ( 0.000000,  0.000000, -0.022465)
  44 Fe ( 0.000000,  0.000000,  2.333175)
  45 Co ( 0.000000,  0.000000,  1.176950)
  46 Fe ( 0.000000,  0.000000,  1.959583)
  47 Ni ( 0.000000,  0.000000,  0.495097)
  48 Fe ( 0.000000,  0.000000,  2.373614)
  49 Fe ( 0.000000,  0.000000,  2.234464)
  50 Ni ( 0.000000,  0.000000,  0.386206)
  51 Ni ( 0.000000,  0.000000,  0.403572)
  52 Cr ( 0.000000,  0.000000, -0.931897)
  53 Co ( 0.000000,  0.000000,  1.376617)
  54 Fe ( 0.000000,  0.000000,  2.208408)
  55 Cr ( 0.000000,  0.000000, -1.138967)
  56 Co ( 0.000000,  0.000000,  1.342280)
  57 Fe ( 0.000000,  0.000000,  2.309736)
  58 Ni ( 0.000000,  0.000000,  0.358072)
  59 Fe ( 0.000000,  0.000000,  2.173811)
  60 Cr ( 0.000000,  0.000000, -1.804270)
  61 Ni ( 0.000000,  0.000000,  0.301514)
  62 Fe ( 0.000000,  0.000000,  2.309213)
  63 Ni ( 0.000000,  0.000000,  0.378921)
  64 Co ( 0.000000,  0.000000,  1.375970)
  65 Co ( 0.000000,  0.000000,  1.090341)
  66 Ni ( 0.000000,  0.000000,  0.346944)
  67 Fe ( 0.000000,  0.000000,  2.366245)
  68 Ni ( 0.000000,  0.000000,  0.186556)
  69 Al ( 0.000000,  0.000000, -0.032716)
  70 Ni ( 0.000000,  0.000000,  0.344971)
  71 Fe ( 0.000000,  0.000000,  2.103003)
  72 Cr ( 0.000000,  0.000000,  0.062341)
  73 Fe ( 0.000000,  0.000000,  1.865235)
  74 Fe ( 0.000000,  0.000000,  1.481600)
  75 Cr ( 0.000000,  0.000000, -0.383807)
  76 Cr ( 0.000000,  0.000000,  0.532126)
  77 Cr ( 0.000000,  0.000000, -1.403360)
  78 Al ( 0.000000,  0.000000, -0.022000)
  79 Co ( 0.000000,  0.000000,  1.164121)
  80 Cr ( 0.000000,  0.000000, -1.355789)
  81 Co ( 0.000000,  0.000000,  0.956730)
  82 Co ( 0.000000,  0.000000, -0.009504)
  83 Cr ( 0.000000,  0.000000, -1.206884)
  84 Ni ( 0.000000,  0.000000,  0.321357)
  85 Ni ( 0.000000,  0.000000,  0.260061)
  86 Co ( 0.000000,  0.000000,  1.195527)
  87 Co ( 0.000000,  0.000000,  1.605745)
  88 Co ( 0.000000,  0.000000,  1.332463)
  89 Co ( 0.000000,  0.000000,  1.428443)
  90 Ni ( 0.000000,  0.000000,  0.419800)
  91 Ni ( 0.000000,  0.000000,  0.465325)
  92 Ni ( 0.000000,  0.000000,  0.316092)
  93 Ni ( 0.000000,  0.000000,  0.103425)
  94 Co ( 0.000000,  0.000000,  1.171659)
  95 Cr ( 0.000000,  0.000000, -1.803067)
  96 Fe ( 0.000000,  0.000000,  2.222306)
  97 Ni ( 0.000000,  0.000000,  0.161697)
  98 Ni ( 0.000000,  0.000000,  0.386165)
  99 Fe ( 0.000000,  0.000000,  1.770629)
 100 Ni ( 0.000000,  0.000000,  0.385962)
 101 Cr ( 0.000000,  0.000000, -1.167858)
 102 Cr ( 0.000000,  0.000000, -1.020637)
 103 Cr ( 0.000000,  0.000000,  1.100614)
 104 Co ( 0.000000,  0.000000,  0.895431)
 105 Fe ( 0.000000,  0.000000,  1.575116)
 106 Cr ( 0.000000,  0.000000, -0.601098)
 107 Ni ( 0.000000,  0.000000,  0.147818)

Energy contributions relative to reference atoms: (reference = -3699400.456887)

Kinetic:       +155.933414
Potential:     -204.680570
External:        +0.000000
XC:            -857.501281
Entropy (-ST):   -4.588450
Local:          +38.043029
--------------------------
Free energy:   -872.793858
Extrapolated:  -870.499633

Spin contamination: 27.375690 electrons
Showing only first 2 kpts
                      Up                     Down
 Kpt  Band  Eigenvalues  Occupancy  Eigenvalues  Occupancy
  0   508      9.61533    0.99558     10.56462    0.01670
  0   509      9.62621    0.99507     10.58167    0.01412
  0   510      9.64076    0.99431     10.58915    0.01311
  0   511      9.65687    0.99332     10.59428    0.01247

  1   508      9.61283    0.99569     10.56025    0.01743
  1   509      9.63037    0.99487     10.57095    0.01569
  1   510      9.64167    0.99426     10.58690    0.01341
  1   511      9.65153    0.99366     10.59148    0.01282


Fermi level: 10.15706

No gap

Forces in eV/Ang:
  0 Cr    0.08259   -0.18303   -0.60651
  1 Al   -0.29436    0.23313    0.01991
  2 Cr    0.51174   -0.26117   -0.01791
  3 Co    0.33171   -0.06848    0.03780
  4 Fe   -0.16102    0.32495    0.09541
  5 Cr   -0.39877    0.10471   -0.36680
  6 Ni   -0.04934    0.43796   -0.00399
  7 Fe    0.00804   -0.35256    0.27579
  8 Cr    0.29854   -0.00292    0.00379
  9 Co    0.05661   -0.06975    0.02279
 10 Ni    0.06415    0.17548   -0.02137
 11 Fe   -0.17161   -0.34370    0.14311
 12 Co   -0.07601    0.19825   -0.13746
 13 Co   -0.04609   -0.08859   -0.03385
 14 Fe    0.29661   -0.07930    0.05802
 15 Fe   -0.33852    0.05385   -0.31706
 16 Fe    0.16973   -0.15653   -0.18689
 17 Fe    0.45400   -0.18588    0.53435
 18 Cr   -0.07040   -0.03152   -0.09785
 19 Co   -0.29151    0.01222    0.10636
 20 Fe   -0.08220    0.32197    0.06045
 21 Ni    0.01498    0.19672   -0.08791
 22 Co   -0.10314    0.00225    0.09679
 23 Cr    0.58447   -0.50934   -0.04995
 24 Cr   -0.13924    0.09616    0.15042
 25 Ni   -0.01567    0.27517   -0.11622
 26 Fe   -0.20351    0.09170    0.25494
 27 Ni   -0.13495    0.21782    0.10711
 28 Co    0.23502   -0.11550   -0.13704
 29 Co   -0.15056    0.28752   -0.02512
 30 Co    0.15907   -0.13501    0.09102
 31 Cr   -0.14099    0.13479    0.19227
 32 Al   -0.24220   -0.53607    0.43129
 33 Cr    0.00879    0.00843    0.55404
 34 Cr   -0.15566   -0.31808   -0.00725
 35 Cr    0.25177    0.28151    0.05112
 36 Fe    0.15195   -0.02348    0.10066
 37 Co    0.04322    0.03526    0.14411
 38 Cr    0.16122   -0.07501   -0.15089
 39 Fe    0.37325   -0.06093    0.12182
 40 Co   -0.17116    0.14382   -0.10003
 41 Ni    0.09359    0.12465   -0.15087
 42 Ni    0.14415   -0.00877    0.03188
 43 Al    0.19312   -0.39697    0.13847
 44 Fe    0.19384    0.14087   -0.28497
 45 Co   -0.03914    0.03295    0.01343
 46 Fe   -0.07518    0.15436    0.21060
 47 Ni   -0.05549    0.01110   -0.13842
 48 Fe    0.01752    0.01599    0.14875
 49 Fe   -0.03417   -0.13247    0.23222
 50 Ni    0.09876   -0.05500    0.08288
 51 Ni    0.37443   -0.08919   -0.09921
 52 Cr   -0.38526    0.08819   -0.19849
 53 Co   -0.03668   -0.20637   -0.26838
 54 Fe   -0.14714   -0.16273   -0.02909
 55 Cr   -0.15638   -0.08065   -0.15937
 56 Co   -0.07705    0.06856   -0.03802
 57 Fe   -0.03432    0.20043    0.14961
 58 Ni    0.02245   -0.17851    0.09612
 59 Fe   -0.07763   -0.00352   -0.31228
 60 Cr   -0.27174   -0.07257   -0.24676
 61 Ni   -0.07740    0.14423    0.03347
 62 Fe    0.20868    0.11453   -0.18870
 63 Ni   -0.00859    0.08809    0.03469
 64 Co    0.31065   -0.25892    0.01947
 65 Co   -0.03771    0.18481    0.18245
 66 Ni    0.10716    0.15364    0.14429
 67 Fe   -0.40768   -0.09472   -0.18808
 68 Ni    0.03687   -0.00305   -0.07580
 69 Al    0.32781   -0.72177   -0.23384
 70 Ni   -0.25474    0.05328   -0.13081
 71 Fe    0.23558    0.26892   -0.10392
 72 Cr    0.07954    0.04331    0.30232
 73 Fe    0.15609    0.12016   -0.12152
 74 Fe    0.00231   -0.08093    0.26521
 75 Cr   -0.28034   -0.01890   -0.16209
 76 Cr   -0.08753    0.26145   -0.25157
 77 Cr   -0.45870    0.39712    0.22769
 78 Al    0.13149    0.23958   -0.07665
 79 Co   -0.03589   -0.31655    0.15978
 80 Cr    0.08525    0.10807    0.11510
 81 Co    0.07179   -0.15755   -0.27420
 82 Co   -0.11733    0.08487   -0.15806
 83 Cr    0.28543    0.29462   -0.05234
 84 Ni   -0.20876   -0.28679    0.02925
 85 Ni   -0.25781   -0.12633    0.14510
 86 Co    0.08584   -0.32335   -0.04223
 87 Co    0.08463   -0.18368    0.00487
 88 Co   -0.10548   -0.16106    0.07523
 89 Co    0.10048    0.01110    0.05221
 90 Ni   -0.13508   -0.11895    0.02222
 91 Ni    0.06616    0.22728   -0.08552
 92 Ni    0.30051   -0.20757   -0.03697
 93 Ni    0.19688    0.39748    0.34075
 94 Co    0.08360   -0.06196   -0.16668
 95 Cr   -0.15912   -0.19289    0.12575
 96 Fe   -0.17207   -0.02572    0.11025
 97 Ni    0.18889    0.08041    0.04156
 98 Ni    0.12989   -0.10795   -0.00469
 99 Fe    0.33149    0.43966    0.12736
100 Ni    0.13490    0.10764    0.11284
101 Cr   -0.63375   -0.00380   -0.01173
102 Cr   -0.05408    0.04945   -0.59304
103 Cr   -0.44564   -0.02607    0.19612
104 Co   -0.23841   -0.09607    0.26296
105 Fe    0.06130   -0.04941   -0.18698
106 Cr   -0.00225    0.03951   -0.29050
107 Ni   -0.19795    0.22136   -0.05629

Timing:                              incl.     excl.
-----------------------------------------------------------
Forces:                             12.539    12.539   0.2% |
Hamiltonian:                         0.582     0.003   0.0% |
 Atomic:                             0.167     0.104   0.0% |
  XC Correction:                     0.063     0.063   0.0% |
 Calculate atomic Hamiltonians:      0.320     0.320   0.0% |
 Communicate:                        0.016     0.016   0.0% |
 Initialize Hamiltonian:             0.000     0.000   0.0% |
 Poisson:                            0.000     0.000   0.0% |
 XC 3D grid:                         0.076     0.076   0.0% |
LCAO initialization:                66.756     0.814   0.0% |
 LCAO eigensolver:                   6.372     0.009   0.0% |
  Calculate projections:             0.084     0.084   0.0% |
  DenseAtomicCorrection:             0.092     0.092   0.0% |
  Distribute overlap matrix:         1.498     1.498   0.0% |
  Orbital Layouts:                   2.846     2.846   0.1% |
  Potential matrix:                  1.610     1.610   0.0% |
  Sum over cells:                    0.233     0.233   0.0% |
 LCAO to grid:                      57.628    57.628   1.1% |
 Set positions (LCAO WFS):           1.942     1.355   0.0% |
  Basic WFS set positions:           0.003     0.003   0.0% |
  Basis functions set positions:     0.001     0.001   0.0% |
  P tci:                             0.162     0.162   0.0% |
  ST tci:                            0.149     0.149   0.0% |
  mktci:                             0.273     0.273   0.0% |
PWDescriptor:                        0.066     0.066   0.0% |
SCF-cycle:                        5169.589   205.381   3.9% |-|
 Davidson:                        4825.601  1445.292  27.5% |----------|
  Apply H:                          73.592    72.739   1.4% ||
   HMM T:                            0.853     0.853   0.0% |
  Subspace diag:                   384.577     0.029   0.0% |
   calc_h_matrix:                  137.657    80.449   1.5% ||
    Apply H:                        57.209    56.195   1.1% |
     HMM T:                          1.013     1.013   0.0% |
   diagonalize:                     99.002    99.002   1.9% ||
   rotate_psi:                     147.889   147.889   2.8% ||
  calc. matrices:                 1017.062   916.731  17.5% |------|
   Apply H:                        100.331    98.621   1.9% ||
    HMM T:                           1.710     1.710   0.0% |
  diagonalize:                    1520.549  1520.549  28.9% |-----------|
  rotate_psi:                      384.528   384.528   7.3% |--|
 Density:                           64.735     0.002   0.0% |
  Atomic density matrices:           1.319     1.319   0.0% |
  Mix:                              31.847    31.847   0.6% |
  Multipole moments:                 0.039     0.039   0.0% |
  Pseudo density:                   31.528    31.524   0.6% |
   Symmetrize density:               0.003     0.003   0.0% |
 Hamiltonian:                       67.888     4.554   0.1% |
  Atomic:                           19.905    13.833   0.3% |
   XC Correction:                    6.072     6.072   0.1% |
  Calculate atomic Hamiltonians:    25.250    25.250   0.5% |
  Communicate:                       4.829     4.829   0.1% |
  Poisson:                           0.034     0.034   0.0% |
  XC 3D grid:                       13.317    13.317   0.3% |
 Orthonormalize:                     5.984     0.001   0.0% |
  calc_s_matrix:                     0.492     0.492   0.0% |
  inverse-cholesky:                  0.791     0.791   0.0% |
  projections:                       3.405     3.405   0.1% |
  rotate_psi_s:                      1.295     1.295   0.0% |
Set symmetry:                        0.001     0.001   0.0% |
Other:                               3.121     3.121   0.1% |
-----------------------------------------------------------
Total:                                      5252.654 100.0%

Date: Sat Apr  8 11:05:27 2023
