
  ___ ___ ___ _ _ _  
 |   |   |_  | | | | 
 | | | | | . | | | | 
 |__ |  _|___|_____|  22.8.0
 |___|_|             

User:   c.zeng@d0081
Date:   Wed Apr 19 15:20:47 2023
Arch:   x86_64
Pid:    38809
CWD:    /home/c.zeng/projects/hea-corrosion/hea-mlp/data-curation/surface-mcmc/dft-jobs/210
Python: 3.8.1
gpaw:   /home/c.zeng/usr/installs/gpaw/source/gpaw-22.8.0/gpaw
_gpaw:  /home/c.zeng/usr/installs/gpaw/source/gpaw-22.8.0/
        _gpaw.cpython-38-x86_64-linux-gnu.so
ase:    /home/c.zeng/.local/lib/python3.8/site-packages/ase-3.22.1-py3.8.egg/ase (version 3.22.1)
numpy:  /home/c.zeng/.local/lib/python3.8/site-packages/numpy (version 1.24.2)
scipy:  /home/c.zeng/.local/lib/python3.8/site-packages/scipy (version 1.10.1)
libxc:  4.2.3
units:  Angstrom and eV
cores: 30
OpenMP: False
OMP_NUM_THREADS: 1

Input parameters:
  convergence: {energy: 0.0001}
  kpts: [2 2 1]
  maxiter: 666
  mode: {ecut: 350.0,
         name: pw}
  occupations: {fixmagmom: False,
                name: fermi-dirac,
                width: 0.1}
  poissonsolver: {dipolelayer: xy}
  spinpol: True
  symmetry: {point_group: False}
  xc: PBE

System changes: positions, numbers, cell, pbc, initial_charges, initial_magmoms 

Initialize ...

species:
  Co:
    name: Cobalt
    id: 339d20d5b0b93d2de9531a1bee871d91
    Z: 27.0
    valence: 9
    core: 18
    charge: 0.0
    file: /home/c.zeng/usr/data/gpaw-setups-0.9.20000/Co.PBE.gz
    compensation charges: {type: gauss,
                           rc: 0.32,
                           lmax: 2}
    cutoffs: {filter: 1.87,
              core: 2.55}
    valence states:
      #              energy  rcut
      - 4s(2.00)    -5.469   1.005
      - 4p(0.00)    -1.277   1.058
      - 3d(7.00)    -8.205   1.005
      -  s          21.742   1.005
      -  p          25.934   1.058
      -  d          19.007   1.005
  
    # Using partial waves for Co as LCAO basis

  Al:
    name: Aluminium
    id: 0292cae29f5d6237e50f6abdd43a7bdd
    Z: 13.0
    valence: 3
    core: 10
    charge: 0.0
    file: /home/c.zeng/usr/data/gpaw-setups-0.9.20000/Al.PBE.gz
    compensation charges: {type: gauss,
                           rc: 0.34,
                           lmax: 2}
    cutoffs: {filter: 1.91,
              core: 2.36}
    valence states:
      #              energy  rcut
      - 3s(2.00)    -7.753   1.085
      - 3p(1.00)    -2.712   1.085
      -  s          19.459   1.085
      -  p          24.499   1.085
      -  d           0.000   1.085
  
    # Using partial waves for Al as LCAO basis

  Cr:
    name: Chromium
    id: 33f258bda2ca9f93018e70263a35547b
    Z: 24.0
    valence: 6
    core: 18
    charge: 0.0
    file: /home/c.zeng/usr/data/gpaw-setups-0.9.20000/Cr.PBE.gz
    compensation charges: {type: gauss,
                           rc: 0.35,
                           lmax: 2}
    cutoffs: {filter: 2.14,
              core: 3.04}
    valence states:
      #              energy  rcut
      - 4s(1.00)    -4.007   1.164
      - 4p(0.00)    -0.989   1.217
      - 3d(5.00)    -2.913   1.111
      -  s          23.205   1.164
      -  p          26.223   1.217
      -  d          24.299   1.111
  
    # Using partial waves for Cr as LCAO basis

  Ni:
    name: Nickel
    id: 0d9f38a9d6e76a2886f07bb4381f212b
    Z: 28.0
    valence: 16
    core: 12
    charge: 0.0
    file: /home/c.zeng/usr/data/gpaw-setups-0.9.20000/Ni.PBE.gz
    compensation charges: {type: gauss,
                           rc: 0.36,
                           lmax: 2}
    cutoffs: {filter: 2.14,
              core: 1.98}
    valence states:
      #              energy  rcut
      - 4s(2.00)    -5.642   1.164
      - 3p(6.00)   -71.394   1.207
      - 4p(0.00)    -1.226   1.207
      - 3d(8.00)    -8.875   1.138
      -  s          21.570   1.164
      -  d          18.337   1.138
  
    # Using partial waves for Ni as LCAO basis

  Fe:
    name: Iron
    id: 37abbd8d6c3c35915a9b583b742da910
    Z: 26.0
    valence: 8
    core: 18
    charge: 0.0
    file: /home/c.zeng/usr/data/gpaw-setups-0.9.20000/Fe.PBE.gz
    compensation charges: {type: gauss,
                           rc: 0.33,
                           lmax: 2}
    cutoffs: {filter: 2.06,
              core: 2.67}
    valence states:
      #              energy  rcut
      - 4s(2.00)    -5.291   1.164
      - 4p(0.00)    -1.326   1.058
      - 3d(6.00)    -7.505   1.058
      -  s          21.920   1.164
      -  p          25.885   1.058
      -  d          19.706   1.058
  
    # Using partial waves for Fe as LCAO basis

Reference energy: -3726899.091688  # eV

Spin-polarized calculation.
Magnetic moment: 140.000000

Convergence criteria:
 Maximum [total energy] change in last 3 cyles: 0.0001 eV / electron
 Maximum integral of absolute [dens]ity change: 0.0001 electrons / valence electron
 Maximum integral of absolute [eigenst]ate change: 4e-08 eV^2 / valence electron
 Maximum number of scf [iter]ations: 666
 (Square brackets indicate name in SCF output, whereas a 'c' in
 the SCF output indicates the quantity has converged.)

Symmetries present (total): 1

  ( 1  0  0)
  ( 0  1  0)
  ( 0  0  1)

4 k-points: 2 x 2 x 1 Monkhorst-Pack grid
2 k-points in the irreducible part of the Brillouin zone
       k-points in crystal coordinates                weights
   0:     0.25000000   -0.25000000    0.00000000          2/4
   1:     0.25000000    0.25000000    0.00000000          2/4

Wave functions: Plane wave expansion
  Cutoff energy: 350.000 eV
  Number of coefficients (min, max): 60935, 60955
  Pulay-stress correction: 0.000000 eV/Ang^3 (de/decut=0.000000)
  Using FFTW library
  ScaLapack parameters: grid=1x1, blocksize=None
  Wavefunction extrapolation:
    Improved wavefunction reuse through dual PAW basis 

Occupation numbers: Fermi-Dirac:
  width: 0.1000  # eV
 

Eigensolver
   Davidson(niter=2) 

Densities:
  Coarse grid: 56*56*128 grid
  Fine grid: 112*112*256 grid
  Total Charge: 0.000000 

Density mixing:
  Method: difference
  Backend: pulay
  Linear mixing parameter: 0.05
  old densities: 5
  Damping of long wavelength oscillations: 50 

Hamiltonian:
  XC and Coulomb potentials evaluated on a 112*112*256 grid
  Using the PBE Exchange-Correlation functional
  External potential:
    NoExternalPotential
 

XC parameters: PBE with 2 nearest neighbor stencil

Memory estimate:
  Process memory now: 377.73 MiB
  Calculator: 2131.41 MiB
    Density: 19.02 MiB
      Arrays: 7.39 MiB
      Localized functions: 8.68 MiB
      Mixer: 2.95 MiB
    Hamiltonian: 5.75 MiB
      Arrays: 5.49 MiB
      XC: 0.00 MiB
      Poisson: 0.00 MiB
      vbar: 0.26 MiB
    Wavefunctions: 2106.64 MiB
      Arrays psit_nG: 1335.62 MiB
      Eigensolver: 751.15 MiB
      Projections: 3.10 MiB
      Projectors: 1.18 MiB
      PW-descriptor: 15.59 MiB

Total number of cores used: 30
Parallelization over k-points: 2
Domain decomposition: 1 x 3 x 5

Number of atoms: 125
Number of atomic orbitals: 1075
Number of bands in calculation: 718
Number of valence electrons: 1050
Bands to converge: occupied

... initialized

Initializing position-dependent things.

Density initialized from atomic densities
Creating initial wave functions:
  718 bands from LCAO basis set

                                                                  
                                                                  
                                                                  
                                                                  
                          Fe    Al           Cr    Fe             
                                  Cr                              
                      Cr    Ni          Cr    Cr                  
                       Al    NAl   CFe   AAl    Fe    Al          
                   Al   NCr   CrAl   CNi   NFe   Ni               
        Al                 Fe    Co                               
               Ni   CCo  NNi   CCr    NCr   FNi   Cr              
                Fe   AAl   CCr   CFe     Cr   Al                  
           Ni    Co     Al    AlCo  Ni  Cr               Co       
                 Ni   CFe   FAl   NCo   CFe    Co                 
            Co   CFe    Fe    CCo   NAl                           
        Ni    Al    Ni    Cr Fe Co Al    CCr    Co    Al          
             Al    Ni   FNi    Cr    FFe   Fe    Fe               
               Fe   AAl   CNi   FFe    Ni    Co                   
                 Fe          Ni        Cr                         
                Cr    CAl   Co    Al    Co                        
           Al    Cr     Cr    Ni    Co                            
                                                                  
                                                                  
                                                                  
                                                                  
                                                                  

Positions:
   0 Co    12.697578    1.490688   10.582791    ( 0.0000,  0.0000,  2.1000)
   1 Al     2.542164    1.500437   10.627261    ( 0.0000,  0.0000,  2.0000)
   2 Cr     5.051596    1.499469   10.598054    ( 0.0000,  0.0000,  2.1000)
   3 Cr     7.634905    1.492702   10.546246    ( 0.0000,  0.0000,  2.0000)
   4 Ni    10.187798    1.493538   10.639090    ( 0.0000,  0.0000,  2.1000)
   5 Co    13.968644    3.696637   10.562654    ( 0.0000,  0.0000,  2.0000)
   6 Cr     3.815030    3.662669   10.568965    ( 0.0000,  0.0000,  2.1000)
   7 Cr     6.371550    3.676864   10.379256    ( 0.0000,  0.0000,  0.0000)
   8 Co     8.929883    3.680660   10.627114    ( 0.0000,  0.0000,  2.1000)
   9 Al    11.419281    3.649344   10.658345    ( 0.0000,  0.0000,  2.1000)
  10 Co    15.274513    5.897370   10.548477    ( 0.0000,  0.0000,  2.0000)
  11 Al     5.059810    5.865944   10.632192    ( 0.0000,  0.0000,  2.0000)
  12 Co     7.645770    5.857944   10.631253    ( 0.0000,  0.0000,  2.1000)
  13 Fe    10.112359    5.849582   10.633748    ( 0.0000,  0.0000,  2.1000)
  14 Cr    12.664006    5.872612   10.350226    ( 0.0000,  0.0000,  0.0000)
  15 Fe    16.518089    8.029617   10.573985    ( 0.0000,  0.0000,  2.0000)
  16 Fe     6.372474    8.042931   10.433618    ( 0.0000,  0.0000,  0.0000)
  17 Co     8.899359    8.058149   10.655528    ( 0.0000,  0.0000,  2.1000)
  18 Fe    11.347730    8.053396   10.581235    ( 0.0000,  0.0000,  0.0000)
  19 Fe    13.974474    8.072476   10.508234    ( 0.0000,  0.0000,  1.5000)
  20 Al    17.786763   10.267487   10.540522    ( 0.0000,  0.0000,  1.5000)
  21 Fe     7.620185   10.288537   10.551618    ( 0.0000,  0.0000,  1.5000)
  22 Al    10.097013   10.262150   10.527196    ( 0.0000,  0.0000,  0.0000)
  23 Co    12.628341   10.288140   10.200907    ( 0.0000,  0.0000,  0.0000)
  24 Co    15.305799   10.302687   10.215701    ( 0.0000,  0.0000,  0.0000)
  25 Co    18.929799   10.964438   12.614348    ( 0.0000,  0.0000,  0.0000)
  26 Co     8.907314   10.932825   12.633339    ( 0.0000,  0.0000,  0.0000)
  27 Fe     5.161938    0.027744   12.591364    ( 0.0000,  0.0000,  0.0000)
  28 Al     7.639849   -0.017272   12.455019    ( 0.0000,  0.0000,  2.0000)
  29 Ni    10.112151   -0.034156   12.574340    ( 0.0000,  0.0000,  0.0000)
  30 Ni    13.898459    2.274577   12.629494    ( 0.0000,  0.0000,  0.0000)
  31 Fe     3.834283    2.207500   12.641705    ( 0.0000,  0.0000,  1.5000)
  32 Al     6.373751    2.258204   12.578625    ( 0.0000,  0.0000,  1.5000)
  33 Ni     8.903971    2.228935   12.670354    ( 0.0000,  0.0000,  0.0000)
  34 Fe    11.398903    2.240324   12.667418    ( 0.0000,  0.0000,  2.1000)
  35 Al     2.693918    4.433332   12.569320    ( 0.0000,  0.0000,  0.0000)
  36 Ni     5.180997    4.392564   12.579271    ( 0.0000,  0.0000,  2.0000)
  37 Ni     7.640404    4.433761   12.623682    ( 0.0000,  0.0000,  1.5000)
  38 Cr    10.149737    4.418753   12.659728    ( 0.0000,  0.0000,  2.1000)
  39 Fe    12.642941    4.469149   12.588547    ( 0.0000,  0.0000,  0.0000)
  40 Co     3.879740    6.581821   12.636392    ( 0.0000,  0.0000,  2.0000)
  41 Ni     6.395207    6.593022   12.619455    ( 0.0000,  0.0000,  0.0000)
  42 Cr     8.882544    6.578464   12.632987    ( 0.0000,  0.0000,  2.0000)
  43 Ni    11.378039    6.588192   12.568968    ( 0.0000,  0.0000,  1.5000)
  44 Cr    13.955999    6.597324   12.503922    ( 0.0000,  0.0000,  0.0000)
  45 Co     5.115939    8.711196   12.577128    ( 0.0000,  0.0000,  2.0000)
  46 Fe     7.617963    8.744371   12.628555    ( 0.0000,  0.0000,  1.5000)
  47 Ni    10.162962    8.726392   12.644406    ( 0.0000,  0.0000,  1.5000)
  48 Cr    12.676321    8.832597   12.504509    ( 0.0000,  0.0000,  1.5000)
  49 Co    15.240247    8.741951   12.606188    ( 0.0000,  0.0000,  0.0000)
  50 Ni     1.269616    0.713733   14.695512    ( 0.0000,  0.0000,  2.1000)
  51 Al     3.799097    0.728240   14.717292    ( 0.0000,  0.0000,  0.0000)
  52 Ni     6.399959    0.810401   14.610329    ( 0.0000,  0.0000,  2.1000)
  53 Cr     8.880072    0.764388   14.691902    ( 0.0000,  0.0000,  1.5000)
  54 Co    11.370392    0.737436   14.704406    ( 0.0000,  0.0000,  1.5000)
  55 Co     2.596190    2.870472   14.732086    ( 0.0000,  0.0000,  0.0000)
  56 Fe     5.091424    2.954792   14.649428    ( 0.0000,  0.0000,  0.0000)
  57 Fe     7.608212    2.991224   14.707811    ( 0.0000,  0.0000,  2.1000)
  58 Co    10.154418    2.949686   14.778640    ( 0.0000,  0.0000,  2.1000)
  59 Al    12.643335    2.944834   14.730413    ( 0.0000,  0.0000,  0.0000)
  60 Ni     3.883223    5.134376   14.743182    ( 0.0000,  0.0000,  0.0000)
  61 Fe     6.365651    5.154303   14.674026    ( 0.0000,  0.0000,  2.1000)
  62 Al     8.874207    5.127400   14.687176    ( 0.0000,  0.0000,  2.1000)
  63 Co    11.381160    5.128401   14.701764    ( 0.0000,  0.0000,  1.5000)
  64 Fe    13.994437    5.150045   14.709073    ( 0.0000,  0.0000,  0.0000)
  65 Al     5.105303    7.314819   14.691491    ( 0.0000,  0.0000,  0.0000)
  66 Co     7.621049    7.313641   14.679104    ( 0.0000,  0.0000,  2.0000)
  67 Co    10.101824    7.296971   14.657206    ( 0.0000,  0.0000,  0.0000)
  68 Cr    12.701036    7.418890   14.544344    ( 0.0000,  0.0000,  0.0000)
  69 Al    15.272539    7.347367   14.706285    ( 0.0000,  0.0000,  2.0000)
  70 Ni     6.372338    9.509071   14.708838    ( 0.0000,  0.0000,  0.0000)
  71 Co     8.874214    9.489484   14.713828    ( 0.0000,  0.0000,  1.5000)
  72 Ni    11.385336    9.581859   14.631493    ( 0.0000,  0.0000,  2.1000)
  73 Fe    13.954574    9.609885   14.606455    ( 0.0000,  0.0000,  2.1000)
  74 Cr    16.558825    9.502579   14.642677    ( 0.0000,  0.0000,  0.0000)
  75 Ni    12.678535    1.403816   16.741746    ( 0.0000,  0.0000,  0.0000)
  76 Ni     2.534863    1.419242   16.733997    ( 0.0000,  0.0000,  2.1000)
  77 Co     5.032024    1.508844   16.664371    ( 0.0000,  0.0000,  1.5000)
  78 Al     7.624501    1.526769   16.714506    ( 0.0000,  0.0000,  2.0000)
  79 Al    10.140089    1.502748   16.858366    ( 0.0000,  0.0000,  2.0000)
  80 Cr    14.024748    3.670735   16.858777    ( 0.0000,  0.0000,  0.0000)
  81 Cr     3.842392    3.667775   16.756276    ( 0.0000,  0.0000,  0.0000)
  82 Al     6.334927    3.681056   16.705378    ( 0.0000,  0.0000,  0.0000)
  83 Cr     8.882482    3.670933   16.761471    ( 0.0000,  0.0000,  2.1000)
  84 Fe    11.419526    3.695856   16.803945    ( 0.0000,  0.0000,  2.0000)
  85 Ni    15.257368    5.911564   16.801303    ( 0.0000,  0.0000,  1.5000)
  86 Cr     5.087177    5.870422   16.771246    ( 0.0000,  0.0000,  0.0000)
  87 Ni     7.609371    5.857537   16.712716    ( 0.0000,  0.0000,  2.0000)
  88 Cr    10.109019    5.830149   16.764730    ( 0.0000,  0.0000,  1.5000)
  89 Cr    12.675452    5.872392   16.756129    ( 0.0000,  0.0000,  2.1000)
  90 Ni    16.524277    8.015940   16.738312    ( 0.0000,  0.0000,  2.1000)
  91 Ni     6.365933    8.035031   16.712716    ( 0.0000,  0.0000,  2.1000)
  92 Cr     8.835843    8.056003   16.741658    ( 0.0000,  0.0000,  2.0000)
  93 Co    11.351160    8.059051   16.752372    ( 0.0000,  0.0000,  0.0000)
  94 Ni    13.956058    8.042161   16.704057    ( 0.0000,  0.0000,  1.5000)
  95 Al    17.805404   10.218279   16.745210    ( 0.0000,  0.0000,  0.0000)
  96 Ni     7.627525   10.221888   16.720318    ( 0.0000,  0.0000,  2.1000)
  97 Co    10.100033   10.295513   16.718880    ( 0.0000,  0.0000,  1.5000)
  98 Al    12.667792   10.363481   16.695163    ( 0.0000,  0.0000,  0.0000)
  99 Fe    15.313358   10.247516   16.718322    ( 0.0000,  0.0000,  0.0000)
 100 Fe     6.385878   10.951211   18.797109    ( 0.0000,  0.0000,  0.0000)
 101 Al     8.871549   10.998570   18.734029    ( 0.0000,  0.0000,  0.0000)
 102 Fe     5.012222    0.026603   18.714245    ( 0.0000,  0.0000,  2.0000)
 103 Cr    13.906085   10.955272   18.815278    ( 0.0000,  0.0000,  0.0000)
 104 Fe    16.555065   10.890208   19.190793    ( 0.0000,  0.0000,  0.0000)
 105 Al     1.301962    2.175788   18.880296    ( 0.0000,  0.0000,  0.0000)
 106 Ni     3.763381    2.154408   18.701741    ( 0.0000,  0.0000,  2.0000)
 107 Co     6.282513    2.143955   18.673151    ( 0.0000,  0.0000,  1.5000)
 108 Fe     8.786510    2.178935   18.943933    ( 0.0000,  0.0000,  0.0000)
 109 Co    11.486117    2.202240   18.868055    ( 0.0000,  0.0000,  0.0000)
 110 Fe    15.251278    4.387183   18.855257    ( 0.0000,  0.0000,  1.5000)
 111 Al     5.107352    4.303073   18.990839    ( 0.0000,  0.0000,  0.0000)
 112 Cr     7.597350    4.408838   18.714597    ( 0.0000,  0.0000,  2.0000)
 113 Al    10.211555    4.416706   18.931135    ( 0.0000,  0.0000,  0.0000)
 114 Ni    12.733768    4.452313   18.836295    ( 0.0000,  0.0000,  1.5000)
 115 Fe    16.467351    6.659351   18.958316    ( 0.0000,  0.0000,  0.0000)
 116 Al     6.329237    6.609791   18.727483    ( 0.0000,  0.0000,  1.5000)
 117 Al     8.815790    6.680885   18.889219    ( 0.0000,  0.0000,  0.0000)
 118 Fe    11.427553    6.639820   18.779556    ( 0.0000,  0.0000,  2.0000)
 119 Al    13.906938    6.631006   18.740193    ( 0.0000,  0.0000,  0.0000)
 120 Cr     5.095653    8.774950   18.707200    ( 0.0000,  0.0000,  2.0000)
 121 Ni     7.571098    8.829550   18.729127    ( 0.0000,  0.0000,  1.5000)
 122 Cr    10.146396    8.866884   18.778117    ( 0.0000,  0.0000,  1.5000)
 123 Cr    12.685104    8.811284   18.742072    ( 0.0000,  0.0000,  2.0000)
 124 Cr    15.188299    8.776017   18.730565    ( 0.0000,  0.0000,  2.0000)

Unit cell:
           periodic     x           y           z      points  spacing
  1. axis:    yes   12.688900    0.000000    0.000000    56     0.1962
  2. axis:    yes    6.352870   11.003500    0.000000    56     0.1965
  3. axis:    no     0.000000    0.000000   29.353100   128     0.2293

  Lengths:  12.688900  12.705746  29.353100
  Angles:   90.000000  90.000000  60.000014

Effective grid spacing dv^(1/3) = 0.2169

     iter     time        total  log10-change:  magmom
                         energy  eigst   dens
iter:   1 15:26:29 -1028.863406                  +139.2899
iter:   2 15:28:23 -2468.790966  +0.84  -1.13    +98.8647
iter:   3 15:30:17 -1185.372291  +0.73  -0.66    +70.5792
iter:   4 15:32:11  -957.666126  -0.34  -0.99    +52.5139
iter:   5 15:34:05  -937.941011  -0.89  -1.22    +45.8177
iter:   6 15:35:58  -919.680403  -1.44  -1.24    +41.7951
iter:   7 15:37:52  -915.852845  -1.59  -1.29    +40.9032
iter:   8 15:39:46 -1114.596100  -0.89  -1.30    +42.2941
iter:   9 15:41:40  -920.168871  -1.10  -1.01    +39.6561
iter:  10 15:43:34  -902.415197  -1.69  -1.30    +39.0103
iter:  11 15:45:28  -898.667197  -1.51  -1.39    +41.2722
iter:  12 15:47:22  -926.750518  -1.57  -1.47    +42.1436
iter:  13 15:49:16  -917.805458  -1.38  -1.33    +43.7312
iter:  14 15:51:10  -929.336287  -1.41  -1.39    +43.2457
iter:  15 15:53:04  -892.572154  -1.66  -1.37    +36.4871
iter:  16 15:54:58  -896.437029  -2.09  -1.60    +38.4555
iter:  17 15:56:51  -891.746464  -2.19  -1.56    +40.3258
iter:  18 15:58:45  -891.314397  -2.42  -1.66    +42.4796
iter:  19 16:00:40  -961.102038  -1.58  -1.71    +43.2004
iter:  20 16:02:34  -895.126434  -1.69  -1.23    +43.9782
iter:  21 16:04:27  -890.086221  -2.27  -1.72    +44.8818
iter:  22 16:06:22  -895.256080  -2.41  -1.82    +46.2572
iter:  23 16:08:16  -890.361959  -2.54  -1.70    +46.7582
iter:  24 16:10:10  -889.812864  -2.92  -1.87    +47.5261
iter:  25 16:12:04  -891.893463  -2.59  -1.91    +49.3800
iter:  26 16:13:58  -891.282403  -2.73  -1.87    +50.6865
iter:  27 16:15:52  -891.918146  -2.55  -1.92    +52.6726
iter:  28 16:17:45  -891.809927  -2.59  -1.97    +53.5836
iter:  29 16:19:39  -892.330529  -2.74  -2.05    +55.1708
iter:  30 16:21:33  -892.574920  -2.69  -2.05    +56.5892
iter:  31 16:23:28  -892.477306  -2.98  -2.11    +58.0076
iter:  32 16:25:22  -892.792571  -3.03  -2.16    +58.7428
iter:  33 16:27:16  -892.646333  -3.48  -2.20    +59.3462
iter:  34 16:29:10  -893.092900  -3.25  -2.28    +60.2771
iter:  35 16:31:04  -894.431972  -3.09  -2.26    +61.3654
iter:  36 16:32:58  -893.908018  -3.12  -2.07    +62.4206
iter:  37 16:34:52  -894.114313  -3.19  -2.18    +63.3058
iter:  38 16:36:46  -894.180661  -3.15  -2.17    +62.6267
iter:  39 16:38:40  -895.710706  -2.87  -2.24    +62.7817
iter:  40 16:40:34  -894.202202  -3.29  -2.02    +62.4466
iter:  41 16:42:27  -895.707774  -2.70  -2.28    +62.7353
iter:  42 16:44:21  -895.141669  -2.86  -2.07    +63.2209
iter:  43 16:46:16  -894.462002  -3.45  -2.13    +63.3414
iter:  44 16:48:10  -894.601938  -3.35  -2.33    +63.3692
iter:  45 16:50:04  -894.986402  -3.06  -2.35    +63.1790
iter:  46 16:51:58  -894.690457  -3.29  -2.26    +63.6743
iter:  47 16:53:52  -894.489462  -3.67  -2.36    +63.7586
iter:  48 16:55:46  -894.902890  -3.18  -2.57    +64.1951
iter:  49 16:57:40  -894.658665  -3.56  -2.38    +64.4244
iter:  50 16:59:34  -894.578462  -3.87  -2.51    +64.7791
iter:  51 17:01:28  -894.678309c -3.97  -2.73    +65.1734
iter:  52 17:03:22  -894.786167  -3.65  -2.64    +65.3192
iter:  53 17:05:16  -894.652678  -4.08  -2.53    +65.6502
iter:  54 17:07:10  -894.722864  -3.99  -2.80    +66.0710
iter:  55 17:09:04  -894.701529c -4.24  -2.72    +66.3533
iter:  56 17:10:59  -894.722602c -3.96  -2.81    +66.4763
iter:  57 17:12:52  -894.729124c -4.06  -2.83    +66.6141
iter:  58 17:14:46  -894.700712c -4.20  -2.84    +66.9839
iter:  59 17:16:40  -894.708715c -4.59  -3.08    +67.1077
iter:  60 17:19:14  -894.712072c -4.78  -3.12    +67.2125
iter:  61 17:21:57  -894.737798c -4.68  -3.10    +67.2906
iter:  62 17:24:39  -894.715837c -5.04  -2.93    +67.3742
iter:  63 17:27:23  -894.723337c -5.02  -3.17    +67.5096
iter:  64 17:30:06  -894.722750c -5.42  -3.14    +67.5630
iter:  65 17:32:49  -894.728955c -4.96  -3.20    +67.7307
iter:  66 17:35:33  -894.728739c -4.98  -3.18    +67.7519
iter:  67 17:38:16  -894.746645c -4.76  -3.33    +67.8060
iter:  68 17:41:00  -894.804351c -4.41  -3.07    +67.7934
iter:  69 17:43:44  -894.734440c -4.75  -2.74    +67.8505
iter:  70 17:46:28  -894.737558c -5.06  -3.43    +67.9732
iter:  71 17:49:11  -894.739086c -5.47  -3.39    +68.0026
iter:  72 17:51:55  -894.739726c -5.53  -3.39    +68.1034
iter:  73 17:54:38  -894.741575c -5.56  -3.45    +68.1808
iter:  74 17:57:22  -894.746304c -5.44  -3.49    +68.2304
iter:  75 18:00:05  -894.745991c -5.41  -3.33    +68.2751
iter:  76 18:02:48  -894.746065c -5.79  -3.33    +68.3351
iter:  77 18:05:32  -894.750760c -5.30  -3.42    +68.4546
iter:  78 18:08:16  -894.749391c -5.82  -3.34    +68.3688
iter:  79 18:11:00  -894.761042c -5.03  -3.38    +68.4462
iter:  80 18:13:43  -894.750173c -5.35  -3.15    +68.3941
iter:  81 18:16:26  -894.751763c -5.52  -3.46    +68.4700
iter:  82 18:19:09  -894.755483c -5.40  -3.52    +68.5216
iter:  83 18:21:53  -894.754518c -5.22  -3.34    +68.5264
iter:  84 18:24:36  -894.753613c -5.58  -3.47    +68.5313
iter:  85 18:27:20  -894.756851c -5.43  -3.63    +68.5710
iter:  86 18:30:03  -894.754824c -5.73  -3.43    +68.6276
iter:  87 18:32:46  -894.755367c -6.13  -3.63    +68.6655
iter:  88 18:35:29  -894.759387c -5.56  -3.66    +68.7087
iter:  89 18:38:10  -894.756078c -5.65  -3.42    +68.6692
iter:  90 18:40:53  -894.757622c -5.53  -3.62    +68.7076
iter:  91 18:43:35  -894.758264c -5.56  -3.61    +68.7180
iter:  92 18:46:18  -894.762244c -5.49  -3.56    +68.7711
iter:  93 18:49:01  -894.759024c -6.20  -3.31    +68.7789
iter:  94 18:51:45  -894.759128c -5.88  -3.54    +68.8007
iter:  95 18:54:29  -894.759925c -5.63  -3.61    +68.8024
iter:  96 18:57:12  -894.760299c -5.84  -3.59    +68.8257
iter:  97 18:59:54  -894.760873c -5.67  -3.65    +68.8554
iter:  98 19:02:37  -894.761496c -5.82  -3.65    +68.9097
iter:  99 19:05:20  -894.764912c -5.26  -3.63    +68.9207
iter: 100 19:08:03  -894.761331c -5.49  -3.43    +68.9446
iter: 101 19:10:43  -894.761443c -6.16  -3.76    +68.9803
iter: 102 19:13:27  -894.761977c -5.97  -3.92    +69.0135
iter: 103 19:16:10  -894.762179c -6.33  -3.86    +69.0204
iter: 104 19:18:53  -894.763407c -5.94  -3.89    +69.0334
iter: 105 19:21:37  -894.762431c -6.25  -3.59    +69.0503
iter: 106 19:24:20  -894.763314c -6.05  -3.98    +69.0817
iter: 107 19:27:04  -894.762853c -6.51  -3.81    +69.1046
iter: 108 19:29:48  -894.763249c -6.55  -4.10c   +69.1356
iter: 109 19:32:31  -894.763398c -6.66  -4.08c   +69.1533
iter: 110 19:35:15  -894.763653c -6.73  -4.10c   +69.1771
iter: 111 19:37:58  -894.763297c -6.82  -4.02c   +69.1254
iter: 112 19:40:42  -894.763023c -6.20  -4.11c   +69.0531
iter: 113 19:43:25  -894.763779c -6.08  -3.93    +69.1653
iter: 114 19:46:07  -894.763697c -6.44  -3.93    +69.1316
iter: 115 19:48:50  -894.763861c -6.24  -4.02c   +69.2072
iter: 116 19:51:32  -894.764299c -6.49  -4.12c   +69.2315
iter: 117 19:54:14  -894.764753c -6.37  -4.05c   +69.2924
iter: 118 19:56:56  -894.765786c -6.18  -4.04c   +69.2992
iter: 119 19:59:39  -894.765156c -6.41  -3.68    +69.3304
iter: 120 20:02:22  -894.765758c -6.26  -3.93    +69.3585
iter: 121 20:05:04  -894.765828c -6.73  -3.91    +69.3546
iter: 122 20:07:48  -894.766283c -6.10  -3.84    +69.3859
iter: 123 20:10:31  -894.767665c -5.60  -3.90    +69.3739
iter: 124 20:13:14  -894.767783c -5.91  -3.65    +69.4038
iter: 125 20:15:58  -894.767733c -5.81  -3.62    +69.4061
iter: 126 20:18:41  -894.766886c -6.30  -3.64    +69.4186
iter: 127 20:21:23  -894.766930c -6.83  -3.99    +69.4270
iter: 128 20:24:06  -894.767296c -6.45  -4.05c   +69.4468
iter: 129 20:26:50  -894.767565c -6.66  -4.03c   +69.4498
iter: 130 20:29:33  -894.767520c -6.75  -3.93    +69.4739
iter: 131 20:32:16  -894.767644c -7.17  -3.99    +69.4869
iter: 132 20:34:59  -894.768455c -6.27  -3.97    +69.5405
iter: 133 20:37:43  -894.768020c -6.53  -3.74    +69.4925
iter: 134 20:40:26  -894.768330c -6.05  -3.79    +69.5876
iter: 135 20:43:08  -894.769288c -6.30  -3.85    +69.5980
iter: 136 20:45:50  -894.768458c -6.64  -3.62    +69.6193
iter: 137 20:48:31  -894.771444c -5.61  -3.85    +69.6388
iter: 138 20:51:15  -894.768661c -6.10  -3.49    +69.6291
iter: 139 20:53:59  -894.768682c -6.90  -3.94    +69.6309
iter: 140 20:56:42  -894.769078c -6.59  -4.02c   +69.6196
iter: 141 20:59:25  -894.770010c -6.12  -3.94    +69.6186
iter: 142 21:02:09  -894.768997c -6.22  -3.66    +69.6182
iter: 143 21:04:52  -894.769016c -6.26  -4.06c   +69.6123
iter: 144 21:07:35  -894.769069c -6.48  -3.84    +69.6188
iter: 145 21:10:18  -894.769143c -6.58  -4.10c   +69.6246
iter: 146 21:13:00  -894.769122c -6.81  -4.16c   +69.6046
iter: 147 21:15:41  -894.769122c -6.94  -4.17c   +69.5977
iter: 148 21:18:25  -894.769188c -7.26  -4.23c   +69.6077
iter: 149 21:21:08  -894.769281c -7.05  -4.26c   +69.6204
iter: 150 21:23:51  -894.769450c -6.99  -4.24c   +69.6175
iter: 151 21:26:34  -894.769403c -7.08  -4.22c   +69.6249
iter: 152 21:29:19  -894.769407c -7.36  -4.34c   +69.6252
iter: 153 21:32:02  -894.769557c -7.20  -4.51c   +69.6281
iter: 154 21:34:45  -894.769536c -7.04  -4.22c   +69.6294
iter: 155 21:37:27  -894.769546c -7.21  -4.20c   +69.6368
iter: 156 21:40:10  -894.769437c -7.34  -4.51c   +69.6395
iter: 157 21:42:52  -894.769542c -7.59c -4.58c   +69.6400

Converged after 157 iterations.

Dipole moment: (62.869236, 51.218246, 0.033625) |e|*Ang

Total magnetic moment: (0.000000, 0.000000, 69.639973)
Local magnetic moments:
   0 Co ( 0.000000,  0.000000,  1.505508)
   1 Al ( 0.000000,  0.000000, -0.049784)
   2 Cr ( 0.000000,  0.000000,  1.325991)
   3 Cr ( 0.000000,  0.000000,  2.412429)
   4 Ni ( 0.000000,  0.000000,  0.449078)
   5 Co ( 0.000000,  0.000000,  1.162447)
   6 Cr ( 0.000000,  0.000000,  1.591757)
   7 Cr ( 0.000000,  0.000000, -2.696428)
   8 Co ( 0.000000,  0.000000,  1.212277)
   9 Al ( 0.000000,  0.000000, -0.040896)
  10 Co ( 0.000000,  0.000000,  1.114144)
  11 Al ( 0.000000,  0.000000, -0.044436)
  12 Co ( 0.000000,  0.000000,  1.284761)
  13 Fe ( 0.000000,  0.000000,  2.367187)
  14 Cr ( 0.000000,  0.000000, -2.839930)
  15 Fe ( 0.000000,  0.000000,  2.521009)
  16 Fe ( 0.000000,  0.000000,  2.697736)
  17 Co ( 0.000000,  0.000000,  1.409134)
  18 Fe ( 0.000000,  0.000000,  2.535576)
  19 Fe ( 0.000000,  0.000000,  2.529975)
  20 Al ( 0.000000,  0.000000, -0.062454)
  21 Fe ( 0.000000,  0.000000,  2.514720)
  22 Al ( 0.000000,  0.000000, -0.058835)
  23 Co ( 0.000000,  0.000000,  1.446137)
  24 Co ( 0.000000,  0.000000,  1.593616)
  25 Co ( 0.000000,  0.000000,  1.634190)
  26 Co ( 0.000000,  0.000000,  1.396964)
  27 Fe ( 0.000000,  0.000000,  2.263332)
  28 Al ( 0.000000,  0.000000, -0.030022)
  29 Ni ( 0.000000,  0.000000,  0.309851)
  30 Ni ( 0.000000,  0.000000,  0.377499)
  31 Fe ( 0.000000,  0.000000,  1.942074)
  32 Al ( 0.000000,  0.000000, -0.031060)
  33 Ni ( 0.000000,  0.000000,  0.264840)
  34 Fe ( 0.000000,  0.000000,  2.413045)
  35 Al ( 0.000000,  0.000000, -0.038696)
  36 Ni ( 0.000000,  0.000000,  0.202978)
  37 Ni ( 0.000000,  0.000000,  0.272667)
  38 Cr ( 0.000000,  0.000000, -1.606685)
  39 Fe ( 0.000000,  0.000000,  1.961500)
  40 Co ( 0.000000,  0.000000,  1.094224)
  41 Ni ( 0.000000,  0.000000,  0.424668)
  42 Cr ( 0.000000,  0.000000,  0.641015)
  43 Ni ( 0.000000,  0.000000,  0.267107)
  44 Cr ( 0.000000,  0.000000,  1.426563)
  45 Co ( 0.000000,  0.000000,  1.351917)
  46 Fe ( 0.000000,  0.000000,  2.579936)
  47 Ni ( 0.000000,  0.000000,  0.354222)
  48 Cr ( 0.000000,  0.000000, -1.677519)
  49 Co ( 0.000000,  0.000000,  1.103618)
  50 Ni ( 0.000000,  0.000000,  0.407845)
  51 Al ( 0.000000,  0.000000, -0.042800)
  52 Ni ( 0.000000,  0.000000,  0.286624)
  53 Cr ( 0.000000,  0.000000,  1.518907)
  54 Co ( 0.000000,  0.000000,  1.014461)
  55 Co ( 0.000000,  0.000000,  1.025558)
  56 Fe ( 0.000000,  0.000000,  1.967448)
  57 Fe ( 0.000000,  0.000000,  1.581550)
  58 Co ( 0.000000,  0.000000,  0.729645)
  59 Al ( 0.000000,  0.000000, -0.035692)
  60 Ni ( 0.000000,  0.000000,  0.186232)
  61 Fe ( 0.000000,  0.000000,  2.206573)
  62 Al ( 0.000000,  0.000000, -0.012440)
  63 Co ( 0.000000,  0.000000,  0.923125)
  64 Fe ( 0.000000,  0.000000,  2.241539)
  65 Al ( 0.000000,  0.000000, -0.018317)
  66 Co ( 0.000000,  0.000000,  1.084518)
  67 Co ( 0.000000,  0.000000,  1.067936)
  68 Cr ( 0.000000,  0.000000, -1.355120)
  69 Al ( 0.000000,  0.000000, -0.018306)
  70 Ni ( 0.000000,  0.000000,  0.213772)
  71 Co ( 0.000000,  0.000000,  1.492669)
  72 Ni ( 0.000000,  0.000000,  0.313550)
  73 Fe ( 0.000000,  0.000000,  2.001071)
  74 Cr ( 0.000000,  0.000000, -1.779059)
  75 Ni ( 0.000000,  0.000000,  0.017459)
  76 Ni ( 0.000000,  0.000000,  0.224582)
  77 Co ( 0.000000,  0.000000,  0.980452)
  78 Al ( 0.000000,  0.000000,  0.002747)
  79 Al ( 0.000000,  0.000000, -0.010248)
  80 Cr ( 0.000000,  0.000000, -1.891488)
  81 Cr ( 0.000000,  0.000000,  1.034215)
  82 Al ( 0.000000,  0.000000, -0.035216)
  83 Cr ( 0.000000,  0.000000, -1.086453)
  84 Fe ( 0.000000,  0.000000,  1.890219)
  85 Ni ( 0.000000,  0.000000,  0.113024)
  86 Cr ( 0.000000,  0.000000, -1.476682)
  87 Ni ( 0.000000,  0.000000,  0.138807)
  88 Cr ( 0.000000,  0.000000,  0.988755)
  89 Cr ( 0.000000,  0.000000,  0.864042)
  90 Ni ( 0.000000,  0.000000,  0.086449)
  91 Ni ( 0.000000,  0.000000,  0.129113)
  92 Cr ( 0.000000,  0.000000, -1.573460)
  93 Co ( 0.000000,  0.000000,  0.576305)
  94 Ni ( 0.000000,  0.000000,  0.137241)
  95 Al ( 0.000000,  0.000000,  0.007192)
  96 Ni ( 0.000000,  0.000000,  0.130414)
  97 Co ( 0.000000,  0.000000,  1.181678)
  98 Al ( 0.000000,  0.000000, -0.018700)
  99 Fe ( 0.000000,  0.000000,  1.485170)
 100 Fe ( 0.000000,  0.000000, -2.391286)
 101 Al ( 0.000000,  0.000000, -0.008217)
 102 Fe ( 0.000000,  0.000000,  2.107449)
 103 Cr ( 0.000000,  0.000000, -2.102357)
 104 Fe ( 0.000000,  0.000000, -2.644987)
 105 Al ( 0.000000,  0.000000,  0.001522)
 106 Ni ( 0.000000,  0.000000,  0.243496)
 107 Co ( 0.000000,  0.000000,  0.780522)
 108 Fe ( 0.000000,  0.000000, -2.283974)
 109 Co ( 0.000000,  0.000000,  0.707118)
 110 Fe ( 0.000000,  0.000000,  2.383412)
 111 Al ( 0.000000,  0.000000, -0.017139)
 112 Cr ( 0.000000,  0.000000,  2.079071)
 113 Al ( 0.000000,  0.000000, -0.017713)
 114 Ni ( 0.000000,  0.000000,  0.137108)
 115 Fe ( 0.000000,  0.000000, -2.175816)
 116 Al ( 0.000000,  0.000000, -0.001164)
 117 Al ( 0.000000,  0.000000, -0.014438)
 118 Fe ( 0.000000,  0.000000,  1.845663)
 119 Al ( 0.000000,  0.000000, -0.020553)
 120 Cr ( 0.000000,  0.000000,  2.442918)
 121 Ni ( 0.000000,  0.000000, -0.038522)
 122 Cr ( 0.000000,  0.000000,  1.708619)
 123 Cr ( 0.000000,  0.000000,  1.391453)
 124 Cr ( 0.000000,  0.000000,  1.591386)

Energy contributions relative to reference atoms: (reference = -3726899.091688)

Kinetic:       +418.215871
Potential:     -383.759611
External:        +0.000000
XC:            -961.986159
Entropy (-ST):   -5.025181
Local:          +35.272948
--------------------------
Free energy:   -897.282132
Extrapolated:  -894.769542

Dipole-layer corrected work functions: 4.837157, 4.793578 eV

Spin contamination: 36.099181 electrons
Showing all kpts
                      Up                     Down
 Kpt  Band  Eigenvalues  Occupancy  Eigenvalues  Occupancy
  0   523     -0.04756    0.99316      0.81653    0.02502
  0   524     -0.03009    0.99186      0.83131    0.02165
  0   525     -0.01876    0.99090      0.84892    0.01822
  0   526     -0.01160    0.99023      0.85281    0.01754

  1   523     -0.05959    0.99393      0.82460    0.02312
  1   524     -0.04274    0.99282      0.83146    0.02162
  1   525     -0.03470    0.99223      0.84452    0.01902
  1   526     -0.02859    0.99174      0.85741    0.01676


Fermi level: 0.45024

Gap: 0.008 eV
Transition (v -> c):
  (s=0, k=0, n=559, [0.25, -0.25, 0.00]) -> (s=0, k=0, n=560, [0.25, -0.25, 0.00])

Forces in eV/Ang:
  0 Co    0.18696   -0.10635    0.47044
  1 Al   -1.42516    0.21199   -0.61403
  2 Cr    0.38290    0.17006   -0.70726
  3 Cr    0.36178    0.16081   -1.27578
  4 Ni   -0.16016   -0.09845   -0.17437
  5 Co   -0.13879    0.18017    0.51899
  6 Cr    0.44160   -0.39317   -0.92008
  7 Cr    0.27782   -0.19362    0.09432
  8 Co   -0.00986    0.22382    0.21822
  9 Al    0.03255   -0.64765   -1.93676
 10 Co   -0.38918   -0.11321    0.10367
 11 Al    0.40551    0.52897   -0.84636
 12 Co    0.18678    0.19924   -0.03124
 13 Fe   -0.34375   -0.29776   -0.61565
 14 Cr    0.44676    0.56247    0.53088
 15 Fe   -0.69531    0.43248    0.12638
 16 Fe    0.47524   -0.03364    0.45214
 17 Co   -0.32442   -0.12861   -0.19713
 18 Fe    0.36870    0.24822   -0.18778
 19 Fe    0.00364    0.66218   -0.17087
 20 Al   -0.31479    0.16582   -0.56350
 21 Fe   -0.25385    0.00639    0.47727
 22 Al    0.70117   -0.82144   -0.47880
 23 Co    0.36221   -0.15309    1.18718
 24 Co   -0.51303   -0.44771    1.05395
 25 Co    1.01352    0.16452    0.57385
 26 Co   -0.28694    0.28065    0.19392
 27 Fe   -0.58475   -0.45158   -0.17388
 28 Al    0.91556   -0.71100    0.03437
 29 Ni    0.06497    0.02401    0.24403
 30 Ni    0.35633   -0.46973    0.34738
 31 Fe   -0.19893   -0.31414    0.25600
 32 Al    0.16051    0.66315    0.76467
 33 Ni   -0.23199   -0.09430   -0.18091
 34 Fe   -0.20684   -1.01216    0.24904
 35 Al   -0.98978   -0.28269    1.16634
 36 Ni   -0.35291    0.04217    0.38996
 37 Ni    0.09373   -0.14439   -0.29643
 38 Cr   -0.04092   -0.07431   -0.04962
 39 Fe    0.58853   -0.11241    0.30967
 40 Co   -0.46157    0.53690    0.06149
 41 Ni   -0.01733   -0.07776   -0.05262
 42 Cr    0.01748    0.21954   -0.28811
 43 Ni    0.38547    0.12847    0.44013
 44 Cr   -0.08414    0.62850    0.06638
 45 Co   -0.15326    0.50135    0.05936
 46 Fe   -0.26817    0.57308    0.23032
 47 Ni   -0.04404    0.66422    0.25907
 48 Cr   -0.38131   -0.81286   -0.31002
 49 Co    0.25700    0.30224   -0.13256
 50 Ni   -0.18346   -0.08766   -0.32717
 51 Al   -0.08917   -0.25382   -0.43061
 52 Ni   -0.33394   -0.41054    0.13251
 53 Cr    0.86708   -0.09167   -0.57177
 54 Co   -0.02547   -0.42510   -0.45930
 55 Co   -0.36232    0.70320   -0.22867
 56 Fe   -0.28966    0.18329    0.11648
 57 Fe    0.36961   -0.06191   -0.17630
 58 Co   -0.37175   -0.22480   -0.31668
 59 Al    0.56996   -0.23115   -0.15146
 60 Ni   -0.37524   -0.29523   -0.23582
 61 Fe   -0.33266   -0.03737   -0.23719
 62 Al   -0.14703    0.28736    0.10996
 63 Co    0.45601    0.63940    0.10069
 64 Fe   -0.16629   -0.43345   -0.06129
 65 Al    1.17898    0.17259   -0.53781
 66 Co    0.44611    0.20334   -0.24135
 67 Co    0.64851    0.25980    0.25574
 68 Cr   -0.96399   -0.55852    0.60622
 69 Al   -0.80403   -0.63285   -0.06755
 70 Ni    0.00478    0.28432   -0.63684
 71 Co   -0.00113   -0.16778   -0.38162
 72 Ni    0.17157   -0.46258    0.20350
 73 Fe    0.17061   -0.61353   -0.08139
 74 Cr   -0.81262    1.50247   -0.82391
 75 Ni    0.15830    0.51015    0.25598
 76 Ni   -0.35705    0.37729   -0.21908
 77 Co    0.03611    0.10154    0.46484
 78 Al   -0.48783   -0.66058    0.47238
 79 Al    1.18048   -0.40432    0.51870
 80 Cr    0.24343    0.68464   -0.52566
 81 Cr   -0.94695    0.07463   -0.28505
 82 Al   -0.37155    0.01331   -0.22867
 83 Cr    0.37091    0.72925    0.62021
 84 Fe    0.33206   -0.15588    0.26473
 85 Ni    0.06032   -0.57558   -0.03789
 86 Cr   -1.10415   -0.52479   -0.02033
 87 Ni   -0.00627    0.45452    0.03482
 88 Cr    0.81738    0.59151   -0.00179
 89 Cr   -0.79981    0.17752   -1.00327
 90 Ni   -0.14724    0.28788    0.11644
 91 Ni   -0.06163    0.03268    0.03034
 92 Cr    0.48387    0.36214   -0.70409
 93 Co    0.48725   -0.04285   -0.22572
 94 Ni   -0.29961    0.65792   -0.30588
 95 Al    0.43564    0.28819   -0.52578
 96 Ni   -0.00569    0.34652   -0.17439
 97 Co    0.45255   -0.65537    0.11275
 98 Al   -0.48480   -1.37872   -1.01514
 99 Fe   -0.58640   -0.09944    0.22138
100 Fe   -1.07137    0.37906    0.22701
101 Al    0.09315   -0.35145    0.79872
102 Fe    0.18594    0.29400   -0.12275
103 Cr    0.30590    0.03401    0.58762
104 Fe   -0.03368    0.49320   -0.88226
105 Al   -0.83148    0.45615    0.72364
106 Ni    0.22752    0.38508    0.33868
107 Co    0.20512   -0.09190    0.02807
108 Fe    0.54403    0.27060   -0.24560
109 Co   -0.43103   -0.04478   -0.66230
110 Fe   -0.10771    0.19278   -0.44059
111 Al   -0.86811   -0.27284    0.67887
112 Cr    0.95040   -1.07822    0.36976
113 Al    0.46603   -0.75350    0.72339
114 Ni   -0.09999   -0.36381    0.12614
115 Fe    0.23672    0.03887   -0.75057
116 Al    0.21269    0.38542    1.31372
117 Al    0.68144   -0.03392    0.82946
118 Fe   -0.44152    0.01508   -0.35480
119 Al    0.58299   -0.84913    1.40025
120 Cr   -0.44588    0.18002    1.46390
121 Ni    0.35423   -0.31870    0.20651
122 Cr    0.62927   -0.49165   -0.37641
123 Cr   -0.16536    0.09437   -0.00490
124 Cr    0.18318    0.50197    0.00847

Timing:                              incl.     excl.
-----------------------------------------------------------
Forces:                             43.038    43.038   0.2% |
Hamiltonian:                         1.260     0.009   0.0% |
 Atomic:                             0.316     0.001   0.0% |
  XC Correction:                     0.315     0.315   0.0% |
 Calculate atomic Hamiltonians:      0.452     0.452   0.0% |
 Communicate:                        0.100     0.100   0.0% |
 Initialize Hamiltonian:             0.000     0.000   0.0% |
 Poisson:                            0.080     0.080   0.0% |
 XC 3D grid:                         0.303     0.303   0.0% |
LCAO initialization:               211.996     0.461   0.0% |
 LCAO eigensolver:                  10.881     0.009   0.0% |
  Calculate projections:             0.000     0.000   0.0% |
  DenseAtomicCorrection:             0.000     0.000   0.0% |
  Distribute overlap matrix:         7.301     7.301   0.0% |
  Orbital Layouts:                   3.545     3.545   0.0% |
  Potential matrix:                  0.003     0.003   0.0% |
  Sum over cells:                    0.023     0.023   0.0% |
 LCAO to grid:                     198.846   198.846   0.9% |
 Set positions (LCAO WFS):           1.808     1.548   0.0% |
  Basic WFS set positions:           0.003     0.003   0.0% |
  Basis functions set positions:     0.001     0.001   0.0% |
  P tci:                             0.000     0.000   0.0% |
  ST tci:                            0.099     0.099   0.0% |
  mktci:                             0.157     0.157   0.0% |
PWDescriptor:                        0.241     0.241   0.0% |
SCF-cycle:                       22709.170     1.988   0.0% |
 Davidson:                       22103.910  7165.878  31.2% |-----------|
  Apply H:                         434.000   426.088   1.9% ||
   HMM T:                            7.912     7.912   0.0% |
  Subspace diag:                  2347.912     0.061   0.0% |
   calc_h_matrix:                 1014.556   611.385   2.7% ||
    Apply H:                       403.172   395.040   1.7% ||
     HMM T:                          8.131     8.131   0.0% |
   diagonalize:                    180.049   180.049   0.8% |
   rotate_psi:                    1153.246  1153.246   5.0% |-|
  calc. matrices:                 5479.811  4720.104  20.5% |-------|
   Apply H:                        759.707   743.696   3.2% ||
    HMM T:                          16.011    16.011   0.1% |
  diagonalize:                    4253.926  4253.926  18.5% |------|
  rotate_psi:                     2422.383  2422.383  10.5% |---|
 Density:                          346.687     0.005   0.0% |
  Atomic density matrices:           4.057     4.057   0.0% |
  Mix:                             122.481   122.481   0.5% |
  Multipole moments:                 0.117     0.117   0.0% |
  Pseudo density:                  220.026   220.018   1.0% |
   Symmetrize density:               0.008     0.008   0.0% |
 Hamiltonian:                      241.719     2.321   0.0% |
  Atomic:                           57.863     0.207   0.0% |
   XC Correction:                   57.656    57.656   0.3% |
  Calculate atomic Hamiltonians:    95.862    95.862   0.4% |
  Communicate:                      17.302    17.302   0.1% |
  Poisson:                           6.451     6.451   0.0% |
  XC 3D grid:                       61.920    61.920   0.3% |
 Orthonormalize:                    14.867     0.000   0.0% |
  calc_s_matrix:                     1.777     1.777   0.0% |
  inverse-cholesky:                  0.608     0.608   0.0% |
  projections:                       9.390     9.390   0.0% |
  rotate_psi_s:                      3.092     3.092   0.0% |
Set symmetry:                        0.001     0.001   0.0% |
Other:                               7.724     7.724   0.0% |
-----------------------------------------------------------
Total:                                     22973.430 100.0%

Date: Wed Apr 19 21:43:40 2023
