
  ___ ___ ___ _ _ _  
 |   |   |_  | | | | 
 | | | | | . | | | | 
 |__ |  _|___|_____|  22.8.0
 |___|_|             

User:   c.zeng@d0025
Date:   Tue Apr 18 19:25:51 2023
Arch:   x86_64
Pid:    275084
CWD:    /home/c.zeng/projects/hea-corrosion/hea-mlp/data-curation/surface-mcmc/dft-jobs/130
Python: 3.8.1
gpaw:   /home/c.zeng/usr/installs/gpaw/source/gpaw-22.8.0/gpaw
_gpaw:  /home/c.zeng/usr/installs/gpaw/source/gpaw-22.8.0/
        _gpaw.cpython-38-x86_64-linux-gnu.so
ase:    /home/c.zeng/.local/lib/python3.8/site-packages/ase-3.22.1-py3.8.egg/ase (version 3.22.1)
numpy:  /home/c.zeng/.local/lib/python3.8/site-packages/numpy (version 1.24.2)
scipy:  /home/c.zeng/.local/lib/python3.8/site-packages/scipy (version 1.10.1)
libxc:  4.2.3
units:  Angstrom and eV
cores: 30
OpenMP: False
OMP_NUM_THREADS: 1

Input parameters:
  convergence: {energy: 0.0001}
  kpts: [2 2 1]
  maxiter: 666
  mode: {ecut: 350.0,
         name: pw}
  occupations: {fixmagmom: False,
                name: fermi-dirac,
                width: 0.1}
  poissonsolver: {dipolelayer: xy}
  spinpol: True
  symmetry: {point_group: False}
  xc: PBE

System changes: positions, numbers, cell, pbc, initial_charges, initial_magmoms 

Initialize ...

species:
  Fe:
    name: Iron
    id: 37abbd8d6c3c35915a9b583b742da910
    Z: 26.0
    valence: 8
    core: 18
    charge: 0.0
    file: /home/c.zeng/usr/data/gpaw-setups-0.9.20000/Fe.PBE.gz
    compensation charges: {type: gauss,
                           rc: 0.33,
                           lmax: 2}
    cutoffs: {filter: 2.06,
              core: 2.67}
    valence states:
      #              energy  rcut
      - 4s(2.00)    -5.291   1.164
      - 4p(0.00)    -1.326   1.058
      - 3d(6.00)    -7.505   1.058
      -  s          21.920   1.164
      -  p          25.885   1.058
      -  d          19.706   1.058
  
    # Using partial waves for Fe as LCAO basis

  Cr:
    name: Chromium
    id: 33f258bda2ca9f93018e70263a35547b
    Z: 24.0
    valence: 6
    core: 18
    charge: 0.0
    file: /home/c.zeng/usr/data/gpaw-setups-0.9.20000/Cr.PBE.gz
    compensation charges: {type: gauss,
                           rc: 0.35,
                           lmax: 2}
    cutoffs: {filter: 2.14,
              core: 3.04}
    valence states:
      #              energy  rcut
      - 4s(1.00)    -4.007   1.164
      - 4p(0.00)    -0.989   1.217
      - 3d(5.00)    -2.913   1.111
      -  s          23.205   1.164
      -  p          26.223   1.217
      -  d          24.299   1.111
  
    # Using partial waves for Cr as LCAO basis

  Al:
    name: Aluminium
    id: 0292cae29f5d6237e50f6abdd43a7bdd
    Z: 13.0
    valence: 3
    core: 10
    charge: 0.0
    file: /home/c.zeng/usr/data/gpaw-setups-0.9.20000/Al.PBE.gz
    compensation charges: {type: gauss,
                           rc: 0.34,
                           lmax: 2}
    cutoffs: {filter: 1.91,
              core: 2.36}
    valence states:
      #              energy  rcut
      - 3s(2.00)    -7.753   1.085
      - 3p(1.00)    -2.712   1.085
      -  s          19.459   1.085
      -  p          24.499   1.085
      -  d           0.000   1.085
  
    # Using partial waves for Al as LCAO basis

  Co:
    name: Cobalt
    id: 339d20d5b0b93d2de9531a1bee871d91
    Z: 27.0
    valence: 9
    core: 18
    charge: 0.0
    file: /home/c.zeng/usr/data/gpaw-setups-0.9.20000/Co.PBE.gz
    compensation charges: {type: gauss,
                           rc: 0.32,
                           lmax: 2}
    cutoffs: {filter: 1.87,
              core: 2.55}
    valence states:
      #              energy  rcut
      - 4s(2.00)    -5.469   1.005
      - 4p(0.00)    -1.277   1.058
      - 3d(7.00)    -8.205   1.005
      -  s          21.742   1.005
      -  p          25.934   1.058
      -  d          19.007   1.005
  
    # Using partial waves for Co as LCAO basis

  Ni:
    name: Nickel
    id: 0d9f38a9d6e76a2886f07bb4381f212b
    Z: 28.0
    valence: 16
    core: 12
    charge: 0.0
    file: /home/c.zeng/usr/data/gpaw-setups-0.9.20000/Ni.PBE.gz
    compensation charges: {type: gauss,
                           rc: 0.36,
                           lmax: 2}
    cutoffs: {filter: 2.14,
              core: 1.98}
    valence states:
      #              energy  rcut
      - 4s(2.00)    -5.642   1.164
      - 3p(6.00)   -71.394   1.207
      - 4p(0.00)    -1.226   1.207
      - 3d(8.00)    -8.875   1.138
      -  s          21.570   1.164
      -  d          18.337   1.138
  
    # Using partial waves for Ni as LCAO basis

Reference energy: -4103091.665053  # eV

Spin-polarized calculation.
Magnetic moment: 158.800000

Convergence criteria:
 Maximum [total energy] change in last 3 cyles: 0.0001 eV / electron
 Maximum integral of absolute [dens]ity change: 0.0001 electrons / valence electron
 Maximum integral of absolute [eigenst]ate change: 4e-08 eV^2 / valence electron
 Maximum number of scf [iter]ations: 666
 (Square brackets indicate name in SCF output, whereas a 'c' in
 the SCF output indicates the quantity has converged.)

Symmetries present (total): 1

  ( 1  0  0)
  ( 0  1  0)
  ( 0  0  1)

4 k-points: 2 x 2 x 1 Monkhorst-Pack grid
2 k-points in the irreducible part of the Brillouin zone
       k-points in crystal coordinates                weights
   0:     0.25000000   -0.25000000    0.00000000          2/4
   1:     0.25000000    0.25000000    0.00000000          2/4

Wave functions: Plane wave expansion
  Cutoff energy: 350.000 eV
  Number of coefficients (min, max): 59263, 59339
  Pulay-stress correction: 0.000000 eV/Ang^3 (de/decut=0.000000)
  Using FFTW library
  ScaLapack parameters: grid=1x1, blocksize=None
  Wavefunction extrapolation:
    Improved wavefunction reuse through dual PAW basis 

Occupation numbers: Fermi-Dirac:
  width: 0.1000  # eV
 

Eigensolver
   Davidson(niter=2) 

Densities:
  Coarse grid: 56*56*128 grid
  Fine grid: 112*112*256 grid
  Total Charge: 0.000000 

Density mixing:
  Method: difference
  Backend: pulay
  Linear mixing parameter: 0.05
  old densities: 5
  Damping of long wavelength oscillations: 50 

Hamiltonian:
  XC and Coulomb potentials evaluated on a 112*112*256 grid
  Using the PBE Exchange-Correlation functional
  External potential:
    NoExternalPotential
 

XC parameters: PBE with 2 nearest neighbor stencil

Memory estimate:
  Process memory now: 377.85 MiB
  Calculator: 2263.81 MiB
    Density: 18.78 MiB
      Arrays: 7.39 MiB
      Localized functions: 8.44 MiB
      Mixer: 2.95 MiB
    Hamiltonian: 5.74 MiB
      Arrays: 5.49 MiB
      XC: 0.00 MiB
      Poisson: 0.00 MiB
      vbar: 0.26 MiB
    Wavefunctions: 2239.28 MiB
      Arrays psit_nG: 1414.30 MiB
      Eigensolver: 804.77 MiB
      Projections: 3.48 MiB
      Projectors: 1.15 MiB
      PW-descriptor: 15.58 MiB

Total number of cores used: 30
Parallelization over k-points: 2
Domain decomposition: 1 x 3 x 5

Number of atoms: 125
Number of atomic orbitals: 1149
Number of bands in calculation: 781
Number of valence electrons: 1136
Bands to converge: occupied

... initialized

Initializing position-dependent things.

Density initialized from atomic densities
Creating initial wave functions:
  781 bands from LCAO basis set

                                                                  
                                                                  
                                                                  
                                                                  
                                               Cr     Co          
                         Co    Ni    Al    Ni    Cr               
                                                                  
                          Cr    NNi   CFe   CNi   CNi   Co        
                Al    Cr   AFe   CFe    FFe   Co    Fe            
           Ni     Fe    Fe    Ni    Ni                            
                       Ni   FCo   CCr    Al    Co    Ni           
       Al    Fe   NCr   NNi   CAl    Cr   CCo   Co                
              Ni    Fe    Fe     Fe Ni Cr      Fe     Fe          
                   Fe    CCr   FCo   CCr   FCr   Al               
               Cr    Al    Ni     Co   FCr                        
           Cr    Ni    Co    Co NCoCr Cr    NNi   FCo   Al        
                      Ni   CNi   NCo    CFe   FNi   Co            
                  Ni    Fe   FCo   ACr   NCr    Ni                
       Co    Co        Cr                                         
                  FCr    Al    Co    Cr    Fe                     
              Cr    Fe    Fe     Cr    Fe                         
                                                                  
                                                                  
                                                                  
                                                                  
                                                                  

Positions:
   0 Fe    12.533128    1.440034   10.429626    ( 0.0000,  0.0000,  0.0000)
   1 Cr     2.529984    1.448599   10.596851    ( 0.0000,  0.0000,  1.5000)
   2 Fe     5.001844    1.491107   10.507206    ( 0.0000,  0.0000,  2.0000)
   3 Fe     7.517470    1.481371   10.443804    ( 0.0000,  0.0000,  0.0000)
   4 Cr     9.992855    1.449769   10.527665    ( 0.0000,  0.0000,  1.5000)
   5 Fe    13.789466    3.650838   10.562420    ( 0.0000,  0.0000,  0.0000)
   6 Fe     3.743028    3.607376   10.509643    ( 0.0000,  0.0000,  2.0000)
   7 Al     6.277985    3.603907   10.508586    ( 0.0000,  0.0000,  2.1000)
   8 Co     8.774670    3.629318   10.567703    ( 0.0000,  0.0000,  2.0000)
   9 Cr    11.256667    3.628289   10.556285    ( 0.0000,  0.0000,  1.5000)
  10 Ni    15.035471    5.774902   10.514867    ( 0.0000,  0.0000,  1.5000)
  11 Cr     5.000253    5.778068   10.458099    ( 0.0000,  0.0000,  0.0000)
  12 Fe     7.492975    5.732719   10.527548    ( 0.0000,  0.0000,  2.1000)
  13 Al    10.032594    5.738715   10.521208    ( 0.0000,  0.0000,  0.0000)
  14 Ni    12.531668    5.773428   10.506590    ( 0.0000,  0.0000,  0.0000)
  15 Co    16.282097    7.932335   10.424460    ( 0.0000,  0.0000,  1.5000)
  16 Cr     6.249076    7.915716   10.493733    ( 0.0000,  0.0000,  2.1000)
  17 Ni     8.739103    7.939274   10.318290    ( 0.0000,  0.0000,  0.0000)
  18 Co    11.262833    7.889621   10.504036    ( 0.0000,  0.0000,  2.1000)
  19 Fe    13.767197    7.897384   10.366605    ( 0.0000,  0.0000,  2.0000)
  20 Al    17.517670   10.103092   10.481904    ( 0.0000,  0.0000,  0.0000)
  21 Ni     7.497936   10.110681   10.626409    ( 0.0000,  0.0000,  2.0000)
  22 Cr     9.976265   10.147183   10.547802    ( 0.0000,  0.0000,  2.1000)
  23 Ni    12.481525   10.098897   10.273937    ( 0.0000,  0.0000,  0.0000)
  24 Fe    15.038329   10.106659   10.411838    ( 0.0000,  0.0000,  1.5000)
  25 Co     0.029584    0.040775   12.611442    ( 0.0000,  0.0000,  2.0000)
  26 Co     2.524286    0.017743   12.625649    ( 0.0000,  0.0000,  2.0000)
  27 Cr     5.009931    0.016306   12.476653    ( 0.0000,  0.0000,  2.0000)
  28 Fe    13.725795   10.834823   12.477504    ( 0.0000,  0.0000,  0.0000)
  29 Fe    16.291616   10.839907   12.543255    ( 0.0000,  0.0000,  2.0000)
  30 Cr    13.787334    2.177261   12.583938    ( 0.0000,  0.0000,  2.0000)
  31 Ni     3.767898    2.156913   12.580445    ( 0.0000,  0.0000,  0.0000)
  32 Fe     6.250320    2.155536   12.545368    ( 0.0000,  0.0000,  0.0000)
  33 Co     8.760760    2.165922   12.631314    ( 0.0000,  0.0000,  0.0000)
  34 Cr    11.291091    2.189404   12.569467    ( 0.0000,  0.0000,  2.0000)
  35 Ni    15.015728    4.333177   12.562892    ( 0.0000,  0.0000,  2.0000)
  36 Ni     5.006820    4.331518   12.549301    ( 0.0000,  0.0000,  0.0000)
  37 Ni     7.536414    4.362058   12.589016    ( 0.0000,  0.0000,  0.0000)
  38 Co    10.033535    4.360377   12.602577    ( 0.0000,  0.0000,  1.5000)
  39 Fe    12.523539    4.334760   12.563508    ( 0.0000,  0.0000,  2.0000)
  40 Co    16.274251    6.492117   12.533950    ( 0.0000,  0.0000,  1.5000)
  41 Co     6.308192    6.475432   12.559751    ( 0.0000,  0.0000,  2.1000)
  42 Co     8.776271    6.490035   12.490008    ( 0.0000,  0.0000,  2.0000)
  43 Fe    11.278289    6.490805   12.557021    ( 0.0000,  0.0000,  1.5000)
  44 Ni    13.752272    6.468516   12.517952    ( 0.0000,  0.0000,  2.1000)
  45 Cr     5.108056    8.658624   12.557785    ( 0.0000,  0.0000,  0.0000)
  46 Fe     7.566363    8.646547   12.581003    ( 0.0000,  0.0000,  1.5000)
  47 Co     9.994311    8.654038   12.473248    ( 0.0000,  0.0000,  2.0000)
  48 Fe    12.478693    8.644812   12.462622    ( 0.0000,  0.0000,  2.1000)
  49 Al    14.946058    8.624518   12.480087    ( 0.0000,  0.0000,  0.0000)
  50 Cr     1.256201    0.763084   14.702997    ( 0.0000,  0.0000,  2.1000)
  51 Ni     3.741141    0.768517   14.684241    ( 0.0000,  0.0000,  1.5000)
  52 Co     6.299995    0.774666   14.698271    ( 0.0000,  0.0000,  0.0000)
  53 Co     8.776010    0.777622   14.780255    ( 0.0000,  0.0000,  2.1000)
  54 Cr    11.299537    0.773215   14.649927    ( 0.0000,  0.0000,  1.5000)
  55 Cr     2.503641    2.894650   14.677166    ( 0.0000,  0.0000,  1.5000)
  56 Al     5.003149    2.898769   14.726979    ( 0.0000,  0.0000,  1.5000)
  57 Ni     7.507897    2.915183   14.810283    ( 0.0000,  0.0000,  0.0000)
  58 Co    10.051236    2.911302   14.719875    ( 0.0000,  0.0000,  1.5000)
  59 Cr    12.558998    2.904027   14.656326    ( 0.0000,  0.0000,  2.0000)
  60 Fe     3.714729    5.068312   14.654653    ( 0.0000,  0.0000,  0.0000)
  61 Cr     6.295139    5.069515   14.699915    ( 0.0000,  0.0000,  0.0000)
  62 Co     8.776914    5.060506   14.664779    ( 0.0000,  0.0000,  2.1000)
  63 Cr    11.297436    5.056712   14.652715    ( 0.0000,  0.0000,  0.0000)
  64 Cr    13.775594    5.062599   14.637129    ( 0.0000,  0.0000,  0.0000)
  65 Ni     5.020095    7.203792   14.693017    ( 0.0000,  0.0000,  1.5000)
  66 Cr     7.527582    7.223934   14.646111    ( 0.0000,  0.0000,  2.0000)
  67 Ni    10.007193    7.208139   14.579832    ( 0.0000,  0.0000,  2.1000)
  68 Co    12.551373    7.215565   14.635837    ( 0.0000,  0.0000,  1.5000)
  69 Co    15.022437    7.200789   14.781399    ( 0.0000,  0.0000,  2.1000)
  70 Fe     6.300157    9.420840   14.712918    ( 0.0000,  0.0000,  2.1000)
  71 Co     8.732283    9.401749   14.673585    ( 0.0000,  0.0000,  0.0000)
  72 Al    11.263746    9.439649   14.574753    ( 0.0000,  0.0000,  0.0000)
  73 Cr    13.786012    9.419517   14.774443    ( 0.0000,  0.0000,  0.0000)
  74 Ni    16.298882    9.432071   14.813071    ( 0.0000,  0.0000,  0.0000)
  75 Cr    12.551235    1.460849   16.768751    ( 0.0000,  0.0000,  2.0000)
  76 Ni     2.485776    1.461489   16.791235    ( 0.0000,  0.0000,  2.0000)
  77 Fe     4.988873    1.437953   16.800129    ( 0.0000,  0.0000,  0.0000)
  78 Fe     7.521264    1.441801   16.853904    ( 0.0000,  0.0000,  2.1000)
  79 Fe    10.041408    1.441801   16.816508    ( 0.0000,  0.0000,  0.0000)
  80 Co    13.786651    3.599104   16.753634    ( 0.0000,  0.0000,  2.1000)
  81 Ni     3.751487    3.571785   16.825197    ( 0.0000,  0.0000,  0.0000)
  82 Ni     6.255931    3.593012   16.814131    ( 0.0000,  0.0000,  1.5000)
  83 Al     8.779489    3.570907   16.858483    ( 0.0000,  0.0000,  2.0000)
  84 Cr    11.301319    3.615409   16.751961    ( 0.0000,  0.0000,  1.5000)
  85 Co    14.996321    5.774306   16.825755    ( 0.0000,  0.0000,  1.5000)
  86 Ni     4.982905    5.789733   16.828220    ( 0.0000,  0.0000,  0.0000)
  87 Co     7.569540    5.790156   16.758477    ( 0.0000,  0.0000,  0.0000)
  88 Cr    10.026136    5.746347   16.763908    ( 0.0000,  0.0000,  0.0000)
  89 Al    12.543367    5.747160   16.772185    ( 0.0000,  0.0000,  2.1000)
  90 Fe    16.270128    7.958744   16.878796    ( 0.0000,  0.0000,  2.0000)
  91 Al     6.261908    7.982584   16.782048    ( 0.0000,  0.0000,  2.1000)
  92 Co     8.742457    7.968610   16.764142    ( 0.0000,  0.0000,  2.1000)
  93 Fe    11.277906    7.926015   16.857984    ( 0.0000,  0.0000,  0.0000)
  94 Co    13.798645    7.959796   16.862475    ( 0.0000,  0.0000,  1.5000)
  95 Co    17.564450   10.140147   16.843601    ( 0.0000,  0.0000,  1.5000)
  96 Ni     7.506508   10.131539   16.775003    ( 0.0000,  0.0000,  1.5000)
  97 Co     9.982830   10.139106   16.778819    ( 0.0000,  0.0000,  1.5000)
  98 Co    12.538883   10.154728   16.858689    ( 0.0000,  0.0000,  2.0000)
  99 Cr    15.023737   10.130021   16.876066    ( 0.0000,  0.0000,  2.1000)
 100 Al     0.021688    0.020369   18.796081    ( 0.0000,  0.0000,  2.1000)
 101 Fe     2.494821    0.007467   18.769576    ( 0.0000,  0.0000,  2.1000)
 102 Cr     4.985998    0.002849   18.819329    ( 0.0000,  0.0000,  0.0000)
 103 Cr    13.754781   10.818030   18.872752    ( 0.0000,  0.0000,  2.1000)
 104 Co    16.317444   10.810593   18.850326    ( 0.0000,  0.0000,  1.5000)
 105 Ni     1.256161    2.173586   18.792882    ( 0.0000,  0.0000,  2.0000)
 106 Fe     3.725304    2.151503   18.833213    ( 0.0000,  0.0000,  2.0000)
 107 Fe     6.222195    2.156804   18.811081    ( 0.0000,  0.0000,  2.1000)
 108 Ni     8.770579    2.162528   19.045201    ( 0.0000,  0.0000,  0.0000)
 109 Ni    11.307466    2.180958   18.775534    ( 0.0000,  0.0000,  2.0000)
 110 Al     2.502140    4.316579   18.803537    ( 0.0000,  0.0000,  2.0000)
 111 Cr     4.984546    4.312123   18.946281    ( 0.0000,  0.0000,  0.0000)
 112 Fe     7.501088    4.367044   18.820386    ( 0.0000,  0.0000,  0.0000)
 113 Fe    10.059972    4.352084   18.800162    ( 0.0000,  0.0000,  2.0000)
 114 Fe    12.539763    4.316026   18.767286    ( 0.0000,  0.0000,  2.1000)
 115 Ni    16.262819    6.510059   18.894150    ( 0.0000,  0.0000,  2.0000)
 116 Cr     6.269967    6.534842   18.850238    ( 0.0000,  0.0000,  1.5000)
 117 Ni     8.788984    6.511186   18.794614    ( 0.0000,  0.0000,  1.5000)
 118 Fe    11.281904    6.480051   18.877595    ( 0.0000,  0.0000,  2.1000)
 119 Ni    13.777508    6.479303   18.838585    ( 0.0000,  0.0000,  0.0000)
 120 Co     5.014689    8.654765   18.845336    ( 0.0000,  0.0000,  2.0000)
 121 Ni     7.516337    8.678810   18.792882    ( 0.0000,  0.0000,  2.1000)
 122 Al     9.994976    8.686659   18.888573    ( 0.0000,  0.0000,  1.5000)
 123 Ni    12.542280    8.675037   18.940675    ( 0.0000,  0.0000,  0.0000)
 124 Cr    15.038373    8.673617   18.869083    ( 0.0000,  0.0000,  2.1000)

Unit cell:
           periodic     x           y           z      points  spacing
  1. axis:    yes   12.530300    0.000000    0.000000    56     0.1938
  2. axis:    yes    6.259130   10.841100    0.000000    56     0.1936
  3. axis:    no     0.000000    0.000000   29.353100   128     0.2293

  Lengths:  12.530300  12.518233  29.353100
  Angles:   90.000000  90.000000  59.999929

Effective grid spacing dv^(1/3) = 0.2150

     iter     time        total  log10-change:  magmom
                         energy  eigst   dens
iter:   1 19:35:03 -1068.841131                  +158.2661
iter:   2 19:38:20 -1314.389553  -0.12  -1.20    +123.7310
iter:   3 19:41:37 -2097.632228  +0.47  -0.99    +97.0242
iter:   4 19:44:54 -1032.475455  -0.23  -0.76    +64.2403
iter:   5 19:48:11  -983.560271  -0.97  -1.25    +49.1238
iter:   6 19:51:28  -969.016773  -1.47  -1.31    +45.1426
iter:   7 19:54:44  -967.170503  -1.60  -1.36    +44.0892
iter:   8 19:58:01  -955.091534  -1.55  -1.35    +44.3378
iter:   9 20:01:17 -1214.829632  -1.06  -1.42    +45.0639
iter:  10 20:04:33  -960.333196  -1.25  -1.01    +43.3015
iter:  11 20:07:47  -948.813448  -1.75  -1.41    +42.9363
iter:  12 20:11:04 -1001.122466  -1.49  -1.54    +45.0698
iter:  13 20:14:21 -1012.284007  -1.28  -1.30    +44.1787
iter:  14 20:17:38  -959.571348  -1.84  -1.30    +41.9626
iter:  15 20:20:55  -949.857571  -1.91  -1.54    +42.1905
iter:  16 20:24:12  -948.636009  -1.90  -1.66    +44.5866
iter:  17 20:27:29  -943.576322  -2.18  -1.69    +45.1685
iter:  18 20:30:45  -943.077709  -2.48  -1.75    +48.3962
iter:  19 20:34:02  -944.617504  -2.44  -1.83    +50.6854
iter:  20 20:37:19  -947.448060  -2.37  -1.84    +52.7168
iter:  21 20:40:35  -946.357491  -2.39  -1.78    +54.2425
iter:  22 20:43:51  -945.713096  -2.54  -1.86    +55.9437
iter:  23 20:47:08  -945.893422  -2.43  -1.91    +57.9716
iter:  24 20:50:25  -945.593537  -2.56  -1.98    +58.6222
iter:  25 20:53:42  -944.602737  -2.94  -1.95    +60.3376
iter:  26 20:56:59  -944.862687  -3.04  -2.08    +62.2630
iter:  27 21:00:16  -944.965421  -3.14  -2.12    +63.6187
iter:  28 21:03:34  -945.731186  -3.01  -2.14    +65.1376
iter:  29 21:06:51  -945.264466  -3.10  -2.11    +65.9345
iter:  30 21:10:08  -946.599267  -2.76  -2.24    +67.7868
iter:  31 21:13:25  -948.374909  -2.74  -2.15    +68.4118
iter:  32 21:16:42  -946.998925  -2.83  -1.99    +69.2961
iter:  33 21:19:59  -946.494565  -3.04  -2.13    +70.4166
iter:  34 21:23:16  -946.442569  -3.37  -2.26    +71.6798
iter:  35 21:26:33  -946.555349c -3.51  -2.33    +73.2976
iter:  36 21:29:49  -947.154436  -3.18  -2.38    +75.2212
iter:  37 21:33:04  -947.942914  -3.34  -2.29    +75.6956
iter:  38 21:36:19  -947.585835  -3.20  -2.17    +76.2284
iter:  39 21:39:36  -947.399792  -3.41  -2.22    +76.7132
iter:  40 21:42:54  -947.374763  -3.57  -2.29    +77.3443
iter:  41 21:46:12  -947.327029c -3.36  -2.30    +77.9065
iter:  42 21:49:30  -947.391971c -3.48  -2.36    +78.2607
iter:  43 21:52:48  -948.006517  -3.22  -2.36    +78.6517
iter:  44 21:56:07  -947.530138  -3.33  -2.24    +78.8463
iter:  45 21:59:25  -947.917181  -3.37  -2.38    +79.1964
iter:  46 22:02:43  -948.525268  -3.02  -2.30    +79.4344
iter:  47 22:06:01  -947.405485  -3.42  -2.18    +79.6386
iter:  48 22:09:19  -947.441008  -3.62  -2.59    +79.8526
iter:  49 22:12:37  -947.439755c -3.94  -2.59    +79.9989
iter:  50 22:15:54  -947.401233c -4.07  -2.62    +80.3458
iter:  51 22:19:12  -947.396852c -4.52  -2.69    +80.4897
iter:  52 22:22:29  -947.579607  -4.02  -2.76    +80.8206
iter:  53 22:25:47  -947.516726  -4.04  -2.58    +80.6675
iter:  54 22:29:06  -947.449170  -4.09  -2.66    +80.8457
iter:  55 22:32:23  -947.592052  -4.06  -2.93    +80.9676
iter:  56 22:35:41  -947.462244  -4.17  -2.64    +81.0515
iter:  57 22:38:59  -947.498770  -4.47  -3.15    +81.1902
iter:  58 22:42:18  -947.483239c -4.60  -2.95    +81.2130
iter:  59 22:45:36  -947.492203c -4.73  -3.08    +81.3261
iter:  60 22:48:54  -947.493539c -5.06  -3.15    +81.3822
iter:  61 22:52:11  -947.507699c -4.89  -3.22    +81.4990
iter:  62 22:55:28  -947.548674c -4.58  -3.20    +81.6265
iter:  63 22:58:46  -947.536879c -4.76  -2.94    +81.6549
iter:  64 23:02:04  -947.544696c -4.76  -3.07    +81.8032
iter:  65 23:05:21  -947.620765c -4.47  -3.09    +81.8886
iter:  66 23:08:38  -947.548493c -4.82  -2.78    +81.9435
iter:  67 23:11:56  -947.567100c -4.70  -3.12    +82.0780
iter:  68 23:15:15  -947.571600c -4.62  -3.07    +82.0955
iter:  69 23:18:33  -947.586804c -4.84  -3.04    +82.1481
iter:  70 23:21:51  -947.630102c -4.34  -2.99    +82.2012
iter:  71 23:25:10  -947.572174c -4.76  -2.81    +82.1900
iter:  72 23:28:28  -947.574717c -5.20  -3.22    +82.2510
iter:  73 23:31:47  -947.580630c -5.28  -3.24    +82.3116
iter:  74 23:35:06  -947.592661c -5.21  -3.24    +82.3728
iter:  75 23:38:23  -947.587348c -4.82  -3.14    +82.2036
iter:  76 23:41:41  -947.682190c -4.23  -3.09    +82.4643
iter:  77 23:44:59  -947.596772c -4.47  -2.73    +82.3223
iter:  78 23:48:17  -947.586376c -4.82  -3.13    +82.4689
iter:  79 23:51:35  -947.586979c -5.36  -3.45    +82.4908
iter:  80 23:54:52  -947.591908c -5.12  -3.51    +82.5410
iter:  81 23:58:10  -947.590066c -5.58  -3.41    +82.5313
iter:  82 00:01:29  -947.594049c -5.64  -3.56    +82.5507
iter:  83 00:04:48  -947.591246c -5.83  -3.41    +82.5610
iter:  84 00:08:08  -947.591839c -5.74  -3.61    +82.5722
iter:  85 00:11:27  -947.594064c -5.72  -3.70    +82.6031
iter:  86 00:14:47  -947.593514c -5.66  -3.73    +82.5942
iter:  87 00:18:06  -947.593634c -5.74  -3.64    +82.6024
iter:  88 00:21:25  -947.594683c -5.85  -3.79    +82.6144
iter:  89 00:24:44  -947.598890c -5.75  -3.68    +82.6180
iter:  90 00:28:04  -947.595438c -6.04  -3.43    +82.6366
iter:  91 00:31:22  -947.595374c -6.29  -3.90    +82.6372
iter:  92 00:34:41  -947.596109c -6.30  -3.98    +82.6631
iter:  93 00:37:58  -947.598947c -5.28  -3.93    +82.7873
iter:  94 00:41:18  -947.600564c -5.41  -3.82    +82.8769
iter:  95 00:44:37  -947.604342c -5.36  -3.74    +82.9702
iter:  96 00:47:57  -947.600902c -5.94  -3.39    +82.8958
iter:  97 00:51:16  -947.601029c -6.41  -3.74    +82.9127
iter:  98 00:54:36  -947.600866c -6.56  -3.69    +82.9136
iter:  99 00:57:56  -947.604856c -5.35  -3.74    +82.9339
iter: 100 01:01:15  -947.600130c -5.91  -3.36    +82.9288
iter: 101 01:04:35  -947.627565c -5.04  -3.61    +82.8969
iter: 102 01:07:54  -947.599974c -5.52  -3.03    +82.8840
iter: 103 01:11:13  -947.600577c -5.95  -3.83    +82.8494
iter: 104 01:14:32  -947.599842c -6.05  -3.76    +82.8369
iter: 105 01:17:50  -947.601093c -5.73  -3.85    +82.8244
iter: 106 01:21:10  -947.600193c -6.05  -3.64    +82.8286
iter: 107 01:24:29  -947.599466c -6.37  -3.95    +82.8189
iter: 108 01:27:49  -947.601574c -6.30  -4.09c   +82.8103
iter: 109 01:31:09  -947.599378c -6.41  -3.63    +82.8088
iter: 110 01:34:28  -947.599647c -6.72  -4.05c   +82.8040
iter: 111 01:37:48  -947.599392c -7.03  -4.11c   +82.7979
iter: 112 01:41:08  -947.599266c -6.84  -4.28c   +82.7925
iter: 113 01:44:26  -947.599478c -6.87  -4.16c   +82.7928
iter: 114 01:47:45  -947.599190c -6.98  -4.29c   +82.7898
iter: 115 01:51:04  -947.599544c -6.92  -4.08c   +82.7855
iter: 116 01:54:24  -947.599196c -7.12  -4.13c   +82.7830
iter: 117 01:57:42  -947.599273c -7.33  -4.42c   +82.7818
iter: 118 02:01:00  -947.599231c -7.67c -4.43c   +82.7804

Converged after 118 iterations.

Dipole moment: (46.292079, 33.052007, 0.015216) |e|*Ang

Total magnetic moment: (0.000000, 0.000000, 82.780412)
Local magnetic moments:
   0 Fe ( 0.000000,  0.000000, -2.213448)
   1 Cr ( 0.000000,  0.000000, -2.015359)
   2 Fe ( 0.000000,  0.000000,  2.169857)
   3 Fe ( 0.000000,  0.000000,  2.494030)
   4 Cr ( 0.000000,  0.000000, -2.183948)
   5 Fe ( 0.000000,  0.000000,  2.207784)
   6 Fe ( 0.000000,  0.000000,  2.465456)
   7 Al ( 0.000000,  0.000000, -0.056590)
   8 Co ( 0.000000,  0.000000,  1.205902)
   9 Cr ( 0.000000,  0.000000,  1.548517)
  10 Ni ( 0.000000,  0.000000,  0.460678)
  11 Cr ( 0.000000,  0.000000, -2.525503)
  12 Fe ( 0.000000,  0.000000,  2.393220)
  13 Al ( 0.000000,  0.000000, -0.052778)
  14 Ni ( 0.000000,  0.000000,  0.459798)
  15 Co ( 0.000000,  0.000000,  1.145144)
  16 Cr ( 0.000000,  0.000000,  2.301901)
  17 Ni ( 0.000000,  0.000000,  0.456946)
  18 Co ( 0.000000,  0.000000,  1.475164)
  19 Fe ( 0.000000,  0.000000,  2.747782)
  20 Al ( 0.000000,  0.000000, -0.007341)
  21 Ni ( 0.000000,  0.000000,  0.001043)
  22 Cr ( 0.000000,  0.000000,  1.892068)
  23 Ni ( 0.000000,  0.000000,  0.450241)
  24 Fe ( 0.000000,  0.000000,  2.492702)
  25 Co ( 0.000000,  0.000000, -0.107068)
  26 Co ( 0.000000,  0.000000,  0.675271)
  27 Cr ( 0.000000,  0.000000, -1.775681)
  28 Fe ( 0.000000,  0.000000,  2.217423)
  29 Fe ( 0.000000,  0.000000,  2.047236)
  30 Cr ( 0.000000,  0.000000, -0.192165)
  31 Ni ( 0.000000,  0.000000,  0.195932)
  32 Fe ( 0.000000,  0.000000,  2.370658)
  33 Co ( 0.000000,  0.000000,  1.370956)
  34 Cr ( 0.000000,  0.000000, -0.411370)
  35 Ni ( 0.000000,  0.000000,  0.303927)
  36 Ni ( 0.000000,  0.000000,  0.300124)
  37 Ni ( 0.000000,  0.000000,  0.435918)
  38 Co ( 0.000000,  0.000000,  1.078639)
  39 Fe ( 0.000000,  0.000000,  1.678779)
  40 Co ( 0.000000,  0.000000,  1.371073)
  41 Co ( 0.000000,  0.000000,  1.005704)
  42 Co ( 0.000000,  0.000000,  1.485446)
  43 Fe ( 0.000000,  0.000000,  2.284601)
  44 Ni ( 0.000000,  0.000000,  0.479952)
  45 Cr ( 0.000000,  0.000000, -1.960257)
  46 Fe ( 0.000000,  0.000000,  2.316718)
  47 Co ( 0.000000,  0.000000,  1.280286)
  48 Fe ( 0.000000,  0.000000,  2.230144)
  49 Al ( 0.000000,  0.000000, -0.058524)
  50 Cr ( 0.000000,  0.000000,  0.045454)
  51 Ni ( 0.000000,  0.000000,  0.242817)
  52 Co ( 0.000000,  0.000000,  0.941348)
  53 Co ( 0.000000,  0.000000,  1.201442)
  54 Cr ( 0.000000,  0.000000, -1.220037)
  55 Cr ( 0.000000,  0.000000,  0.360700)
  56 Al ( 0.000000,  0.000000, -0.036054)
  57 Ni ( 0.000000,  0.000000,  0.335550)
  58 Co ( 0.000000,  0.000000,  0.914710)
  59 Cr ( 0.000000,  0.000000, -0.043565)
  60 Fe ( 0.000000,  0.000000,  2.123384)
  61 Cr ( 0.000000,  0.000000,  1.370430)
  62 Co ( 0.000000,  0.000000,  0.961478)
  63 Cr ( 0.000000,  0.000000, -0.059421)
  64 Cr ( 0.000000,  0.000000, -1.125118)
  65 Ni ( 0.000000,  0.000000,  0.286370)
  66 Cr ( 0.000000,  0.000000, -1.907911)
  67 Ni ( 0.000000,  0.000000,  0.249849)
  68 Co ( 0.000000,  0.000000,  0.982323)
  69 Co ( 0.000000,  0.000000,  1.257140)
  70 Fe ( 0.000000,  0.000000,  2.125506)
  71 Co ( 0.000000,  0.000000,  1.266290)
  72 Al ( 0.000000,  0.000000, -0.030280)
  73 Cr ( 0.000000,  0.000000,  1.334643)
  74 Ni ( 0.000000,  0.000000,  0.319579)
  75 Cr ( 0.000000,  0.000000,  0.846475)
  76 Ni ( 0.000000,  0.000000,  0.438596)
  77 Fe ( 0.000000,  0.000000,  2.222853)
  78 Fe ( 0.000000,  0.000000,  2.200430)
  79 Fe ( 0.000000,  0.000000,  1.951655)
  80 Co ( 0.000000,  0.000000,  0.900585)
  81 Ni ( 0.000000,  0.000000,  0.318094)
  82 Ni ( 0.000000,  0.000000,  0.381300)
  83 Al ( 0.000000,  0.000000, -0.038063)
  84 Cr ( 0.000000,  0.000000, -0.501276)
  85 Co ( 0.000000,  0.000000,  1.173882)
  86 Ni ( 0.000000,  0.000000,  0.315704)
  87 Co ( 0.000000,  0.000000,  0.345300)
  88 Cr ( 0.000000,  0.000000, -1.217314)
  89 Al ( 0.000000,  0.000000, -0.031640)
  90 Fe ( 0.000000,  0.000000,  2.370984)
  91 Al ( 0.000000,  0.000000, -0.036204)
  92 Co ( 0.000000,  0.000000,  1.247480)
  93 Fe ( 0.000000,  0.000000,  2.393135)
  94 Co ( 0.000000,  0.000000,  1.119047)
  95 Co ( 0.000000,  0.000000,  1.050827)
  96 Ni ( 0.000000,  0.000000,  0.340071)
  97 Co ( 0.000000,  0.000000,  1.286102)
  98 Co ( 0.000000,  0.000000,  0.842222)
  99 Cr ( 0.000000,  0.000000, -0.133571)
 100 Al ( 0.000000,  0.000000, -0.038615)
 101 Fe ( 0.000000,  0.000000,  2.441081)
 102 Cr ( 0.000000,  0.000000, -2.266729)
 103 Cr ( 0.000000,  0.000000, -1.910231)
 104 Co ( 0.000000,  0.000000,  1.149607)
 105 Ni ( 0.000000,  0.000000,  0.363378)
 106 Fe ( 0.000000,  0.000000,  2.379422)
 107 Fe ( 0.000000,  0.000000,  2.299722)
 108 Ni ( 0.000000,  0.000000,  0.530354)
 109 Ni ( 0.000000,  0.000000,  0.297576)
 110 Al ( 0.000000,  0.000000, -0.033837)
 111 Cr ( 0.000000,  0.000000, -2.686456)
 112 Fe ( 0.000000,  0.000000,  2.527025)
 113 Fe ( 0.000000,  0.000000,  2.147322)
 114 Fe ( 0.000000,  0.000000,  2.375193)
 115 Ni ( 0.000000,  0.000000,  0.210947)
 116 Cr ( 0.000000,  0.000000,  2.405985)
 117 Ni ( 0.000000,  0.000000,  0.287366)
 118 Fe ( 0.000000,  0.000000,  2.442828)
 119 Ni ( 0.000000,  0.000000,  0.378626)
 120 Co ( 0.000000,  0.000000,  1.224959)
 121 Ni ( 0.000000,  0.000000,  0.354014)
 122 Al ( 0.000000,  0.000000, -0.042427)
 123 Ni ( 0.000000,  0.000000,  0.162823)
 124 Cr ( 0.000000,  0.000000, -2.113181)

Energy contributions relative to reference atoms: (reference = -4103091.665053)

Kinetic:       +294.321519
Potential:     -313.439952
External:        +0.000000
XC:            -966.482739
Entropy (-ST):   -5.322445
Local:          +40.663163
--------------------------
Free energy:   -950.260453
Extrapolated:  -947.599231

Dipole-layer corrected work functions: 4.932193, 4.911924 eV

Spin contamination: 35.789425 electrons
Showing all kpts
                      Up                     Down
 Kpt  Band  Eigenvalues  Occupancy  Eigenvalues  Occupancy
  0   566     -0.09427    0.99713      0.89062    0.01799
  0   567     -0.07493    0.99651      0.89435    0.01734
  0   568     -0.07074    0.99637      0.90923    0.01498
  0   569     -0.05453    0.99573      0.92014    0.01345

  1   566     -0.07773    0.99661      0.89210    0.01773
  1   567     -0.06485    0.99615      0.90789    0.01518
  1   568     -0.05963    0.99594      0.91195    0.01459
  1   569     -0.04604    0.99535      0.92179    0.01324


Fermi level: 0.49065

No gap

Forces in eV/Ang:
  0 Fe   -0.06891    0.37223    0.64300
  1 Cr    0.08884   -0.13581   -0.30996
  2 Fe    0.19794   -0.57773   -0.02549
  3 Fe    0.08031   -0.58453    0.24650
  4 Cr   -0.42717    0.26941   -0.05865
  5 Fe   -0.00435   -0.25311   -0.12546
  6 Fe   -0.28961    0.23853    0.16568
  7 Al    0.25706   -0.15469   -0.83719
  8 Co   -0.03050   -0.10067    0.50116
  9 Cr    0.66507   -1.35454    0.13439
 10 Ni   -0.04848    0.07617    0.12610
 11 Cr   -0.43344    0.88053    0.22386
 12 Fe    0.32663    0.14392    0.07199
 13 Al   -0.37711    0.83740   -1.20662
 14 Ni   -0.07336    0.02397   -0.02649
 15 Co   -0.46912   -0.00922    0.58642
 16 Cr    0.00586   -0.03457   -0.13759
 17 Ni    0.15156   -0.20976    0.97112
 18 Co    0.20810    0.45616    0.08761
 19 Fe   -0.27572    0.02220   -0.21986
 20 Al    0.56388    0.21284   -1.07743
 21 Ni   -0.05373    0.10640   -0.27790
 22 Cr    0.02600   -0.41258   -0.20773
 23 Ni    0.12415    0.16910    0.90490
 24 Fe   -0.45418    0.16102   -0.04037
 25 Co   -0.16032   -0.00410    0.43507
 26 Co   -0.10875   -0.20969    0.27603
 27 Cr   -0.22438    0.51227   -0.66277
 28 Fe    0.35869    0.15336    0.33678
 29 Fe   -0.27543    0.05852    0.97339
 30 Cr   -0.38304    0.16261   -0.15816
 31 Ni   -0.04663    0.23020    0.20557
 32 Fe    0.70527   -0.04223    0.79745
 33 Co    0.04996    0.15912    0.01862
 34 Cr   -0.17513    0.10778    0.12217
 35 Ni    0.21925    0.01613    0.35637
 36 Ni   -0.00308    0.14583    0.50240
 37 Ni    0.03637   -0.43044    0.62435
 38 Co   -0.36329   -0.51738    0.56630
 39 Fe    0.26864   -0.02319    0.20929
 40 Co    0.57714    0.19553    0.13924
 41 Co   -0.57732   -0.01878    0.11640
 42 Co   -0.36295    0.19846    0.69992
 43 Fe    0.10740    0.20966    0.34822
 44 Ni    0.28139    0.22309    0.42623
 45 Cr   -0.03880   -0.67110    0.87450
 46 Fe    0.07095    0.29415    0.26974
 47 Co   -0.05295   -0.08383    0.15212
 48 Fe   -0.21240    0.10566   -0.07674
 49 Al    0.71422   -0.08908    0.90640
 50 Cr    0.22869   -0.48758   -0.40656
 51 Ni    0.16052   -0.42704   -0.02684
 52 Co    0.18168   -0.49373   -0.10102
 53 Co    0.00383   -0.37597   -0.54132
 54 Cr   -0.42197   -0.36231    0.02759
 55 Cr   -1.14733    0.07728    0.09713
 56 Al    0.52282   -0.18171   -0.33505
 57 Ni    0.33268   -0.10270   -0.93910
 58 Co   -0.12977   -0.15159   -0.59831
 59 Cr   -0.10790    0.21711    0.13082
 60 Fe   -0.11255    0.24060    0.28753
 61 Cr    0.36052    0.88834    0.08900
 62 Co    0.13062    0.12355   -0.16682
 63 Cr   -0.52126   -0.09522   -0.64083
 64 Cr    0.42256    0.02804   -0.45723
 65 Ni   -0.31624    0.29936   -0.41996
 66 Cr    0.56126   -0.31668   -0.42271
 67 Ni    0.05332    0.02458    0.51883
 68 Co    0.18206    0.11398    0.08063
 69 Co   -0.10540    0.16765   -0.17886
 70 Fe   -0.34400    0.26824   -0.50015
 71 Co   -0.00861    0.09486   -0.02477
 72 Al   -0.55327   -0.52225    1.03228
 73 Cr    0.53068    0.13042    0.00530
 74 Ni    0.02940   -0.20076   -0.54586
 75 Cr   -0.00712    0.67093   -1.02178
 76 Ni    0.21747   -0.02468   -0.36437
 77 Fe    0.18544   -0.66042    0.12872
 78 Fe   -0.08347   -0.58622   -0.08433
 79 Fe   -0.02507   -0.28790    0.14204
 80 Co    0.15611   -0.25767   -0.44100
 81 Ni    0.02888    0.41793   -0.57113
 82 Ni   -0.15142    0.60989    0.15713
 83 Al   -0.88302   -0.09356   -0.81114
 84 Cr    0.00829   -0.70782    0.03851
 85 Co    0.63882    0.38480   -0.90130
 86 Ni    0.00145   -0.32146   -0.38121
 87 Co   -0.27103   -0.13943    0.03255
 88 Cr   -0.56875    0.80144   -0.19630
 89 Al    0.82452    1.14527   -0.10698
 90 Fe   -0.31684   -0.19913   -0.37220
 91 Al   -0.08328   -0.22920   -0.19356
 92 Co    0.63750   -0.12633   -0.57074
 93 Fe   -0.10494    0.16732   -1.00183
 94 Co   -0.24347    0.40623   -0.14092
 95 Co   -0.79344   -0.02171   -0.80243
 96 Ni    0.44531    0.24687   -0.51077
 97 Co   -0.04278   -0.21970   -0.30811
 98 Co   -0.11742   -0.25714    0.09246
 99 Cr    0.32078    0.14561   -0.17303
100 Al   -0.28444   -0.41106    1.51404
101 Fe    0.62979    0.07490    0.14695
102 Cr   -0.10265    0.70764   -0.11121
103 Cr    0.55858    0.66220   -0.10556
104 Co   -0.53245    0.30604   -0.44014
105 Ni    0.01765   -0.01635    0.18589
106 Fe    0.04657   -0.07140    0.14389
107 Fe    0.46200   -0.46188    0.25181
108 Ni    0.07433    0.01914   -0.86891
109 Ni   -0.41567   -0.00904    0.48455
110 Al   -0.75422    0.39059    0.85819
111 Cr    1.21357   -0.02444   -0.26653
112 Fe    0.23829   -0.20024    0.42735
113 Fe    0.21370   -0.08106    0.24986
114 Fe   -0.56909   -0.29774    0.51325
115 Ni    0.19497   -0.10642   -0.16469
116 Cr   -0.20784   -0.12644    0.45377
117 Ni   -0.07263   -0.03457   -0.08639
118 Fe    0.16529   -0.02972    0.17252
119 Ni   -0.28254    0.16007    0.09381
120 Co   -0.29410    0.16727   -0.12311
121 Ni    0.07270    0.11341    0.23400
122 Al   -0.30829   -0.80162    0.64752
123 Ni   -0.13705   -0.15896   -0.59929
124 Cr    0.27795   -0.42050    0.14551

Timing:                              incl.     excl.
-----------------------------------------------------------
Forces:                             45.209    45.209   0.2% |
Hamiltonian:                         1.832     0.015   0.0% |
 Atomic:                             0.407     0.001   0.0% |
  XC Correction:                     0.406     0.406   0.0% |
 Calculate atomic Hamiltonians:      0.691     0.691   0.0% |
 Communicate:                        0.215     0.215   0.0% |
 Initialize Hamiltonian:             0.001     0.001   0.0% |
 Poisson:                            0.094     0.094   0.0% |
 XC 3D grid:                         0.408     0.408   0.0% |
LCAO initialization:               349.041     0.566   0.0% |
 LCAO eigensolver:                  17.119     0.010   0.0% |
  Calculate projections:             0.000     0.000   0.0% |
  DenseAtomicCorrection:             0.000     0.000   0.0% |
  Distribute overlap matrix:        12.040    12.040   0.1% |
  Orbital Layouts:                   5.038     5.038   0.0% |
  Potential matrix:                  0.003     0.003   0.0% |
  Sum over cells:                    0.029     0.029   0.0% |
 LCAO to grid:                     328.657   328.657   1.4% ||
 Set positions (LCAO WFS):           2.699     2.391   0.0% |
  Basic WFS set positions:           0.004     0.004   0.0% |
  Basis functions set positions:     0.001     0.001   0.0% |
  P tci:                             0.000     0.000   0.0% |
  ST tci:                            0.117     0.117   0.0% |
  mktci:                             0.186     0.186   0.0% |
PWDescriptor:                        0.155     0.155   0.0% |
SCF-cycle:                       23354.245  3157.388  13.3% |----|
 Davidson:                       19582.493  6099.169  25.7% |---------|
  Apply H:                         458.395   453.627   1.9% ||
   HMM T:                            4.767     4.767   0.0% |
  Subspace diag:                  2216.803     0.047   0.0% |
   calc_h_matrix:                 1021.863   533.263   2.2% ||
    Apply H:                       488.600   482.164   2.0% ||
     HMM T:                          6.436     6.436   0.0% |
   diagonalize:                    175.301   175.301   0.7% |
   rotate_psi:                    1019.592  1019.592   4.3% |-|
  calc. matrices:                 5030.379  4244.758  17.9% |------|
   Apply H:                        785.621   774.677   3.3% ||
    HMM T:                          10.945    10.945   0.0% |
  diagonalize:                    3614.206  3614.206  15.2% |-----|
  rotate_psi:                     2163.543  2163.543   9.1% |---|
 Density:                          347.116     0.005   0.0% |
  Atomic density matrices:           4.113     4.113   0.0% |
  Mix:                             133.740   133.740   0.6% |
  Multipole moments:                 0.111     0.111   0.0% |
  Pseudo density:                  209.147   209.142   0.9% |
   Symmetrize density:               0.005     0.005   0.0% |
 Hamiltonian:                      247.088     1.731   0.0% |
  Atomic:                           49.242     0.228   0.0% |
   XC Correction:                   49.014    49.014   0.2% |
  Calculate atomic Hamiltonians:   108.439   108.439   0.5% |
  Communicate:                      33.516    33.516   0.1% |
  Poisson:                           5.412     5.412   0.0% |
  XC 3D grid:                       48.749    48.749   0.2% |
 Orthonormalize:                    20.158     0.001   0.0% |
  calc_s_matrix:                     2.461     2.461   0.0% |
  inverse-cholesky:                  0.929     0.929   0.0% |
  projections:                      12.451    12.451   0.1% |
  rotate_psi_s:                      4.317     4.317   0.0% |
Set symmetry:                        0.001     0.001   0.0% |
Other:                               8.756     8.756   0.0% |
-----------------------------------------------------------
Total:                                     23759.239 100.0%

Date: Wed Apr 19 02:01:50 2023
