
  ___ ___ ___ _ _ _  
 |   |   |_  | | | | 
 | | | | | . | | | | 
 |__ |  _|___|_____|  22.8.0
 |___|_|             

User:   c.zeng@d0008
Date:   Mon Apr 17 10:55:25 2023
Arch:   x86_64
Pid:    11965
CWD:    /home/c.zeng/projects/hea-corrosion/hea-mlp/data-curation/surface-md/dft-jobs/40
Python: 3.8.1
gpaw:   /home/c.zeng/usr/installs/gpaw/source/gpaw-22.8.0/gpaw
_gpaw:  /home/c.zeng/usr/installs/gpaw/source/gpaw-22.8.0/
        _gpaw.cpython-38-x86_64-linux-gnu.so
ase:    /home/c.zeng/.local/lib/python3.8/site-packages/ase-3.22.1-py3.8.egg/ase (version 3.22.1)
numpy:  /home/c.zeng/.local/lib/python3.8/site-packages/numpy (version 1.24.2)
scipy:  /home/c.zeng/.local/lib/python3.8/site-packages/scipy (version 1.10.1)
libxc:  4.2.3
units:  Angstrom and eV
cores: 30
OpenMP: False
OMP_NUM_THREADS: 1

Input parameters:
  convergence: {energy: 0.0001}
  kpts: [2 2 1]
  maxiter: 666
  mode: {ecut: 350.0,
         name: pw}
  occupations: {fixmagmom: False,
                name: fermi-dirac,
                width: 0.1}
  poissonsolver: {dipolelayer: xy}
  spinpol: True
  symmetry: {point_group: False}
  xc: PBE

System changes: positions, numbers, cell, pbc, initial_charges, initial_magmoms 

Initialize ...

species:
  Al:
    name: Aluminium
    id: 0292cae29f5d6237e50f6abdd43a7bdd
    Z: 13.0
    valence: 3
    core: 10
    charge: 0.0
    file: /home/c.zeng/usr/data/gpaw-setups-0.9.20000/Al.PBE.gz
    compensation charges: {type: gauss,
                           rc: 0.34,
                           lmax: 2}
    cutoffs: {filter: 1.91,
              core: 2.36}
    valence states:
      #              energy  rcut
      - 3s(2.00)    -7.753   1.085
      - 3p(1.00)    -2.712   1.085
      -  s          19.459   1.085
      -  p          24.499   1.085
      -  d           0.000   1.085
  
    # Using partial waves for Al as LCAO basis

  Ni:
    name: Nickel
    id: 0d9f38a9d6e76a2886f07bb4381f212b
    Z: 28.0
    valence: 16
    core: 12
    charge: 0.0
    file: /home/c.zeng/usr/data/gpaw-setups-0.9.20000/Ni.PBE.gz
    compensation charges: {type: gauss,
                           rc: 0.36,
                           lmax: 2}
    cutoffs: {filter: 2.14,
              core: 1.98}
    valence states:
      #              energy  rcut
      - 4s(2.00)    -5.642   1.164
      - 3p(6.00)   -71.394   1.207
      - 4p(0.00)    -1.226   1.207
      - 3d(8.00)    -8.875   1.138
      -  s          21.570   1.164
      -  d          18.337   1.138
  
    # Using partial waves for Ni as LCAO basis

  Fe:
    name: Iron
    id: 37abbd8d6c3c35915a9b583b742da910
    Z: 26.0
    valence: 8
    core: 18
    charge: 0.0
    file: /home/c.zeng/usr/data/gpaw-setups-0.9.20000/Fe.PBE.gz
    compensation charges: {type: gauss,
                           rc: 0.33,
                           lmax: 2}
    cutoffs: {filter: 2.06,
              core: 2.67}
    valence states:
      #              energy  rcut
      - 4s(2.00)    -5.291   1.164
      - 4p(0.00)    -1.326   1.058
      - 3d(6.00)    -7.505   1.058
      -  s          21.920   1.164
      -  p          25.885   1.058
      -  d          19.706   1.058
  
    # Using partial waves for Fe as LCAO basis

  Cr:
    name: Chromium
    id: 33f258bda2ca9f93018e70263a35547b
    Z: 24.0
    valence: 6
    core: 18
    charge: 0.0
    file: /home/c.zeng/usr/data/gpaw-setups-0.9.20000/Cr.PBE.gz
    compensation charges: {type: gauss,
                           rc: 0.35,
                           lmax: 2}
    cutoffs: {filter: 2.14,
              core: 3.04}
    valence states:
      #              energy  rcut
      - 4s(1.00)    -4.007   1.164
      - 4p(0.00)    -0.989   1.217
      - 3d(5.00)    -2.913   1.111
      -  s          23.205   1.164
      -  p          26.223   1.217
      -  d          24.299   1.111
  
    # Using partial waves for Cr as LCAO basis

  Co:
    name: Cobalt
    id: 339d20d5b0b93d2de9531a1bee871d91
    Z: 27.0
    valence: 9
    core: 18
    charge: 0.0
    file: /home/c.zeng/usr/data/gpaw-setups-0.9.20000/Co.PBE.gz
    compensation charges: {type: gauss,
                           rc: 0.32,
                           lmax: 2}
    cutoffs: {filter: 1.87,
              core: 2.55}
    valence states:
      #              energy  rcut
      - 4s(2.00)    -5.469   1.005
      - 4p(0.00)    -1.277   1.058
      - 3d(7.00)    -8.205   1.005
      -  s          21.742   1.005
      -  p          25.934   1.058
      -  d          19.007   1.005
  
    # Using partial waves for Co as LCAO basis

Reference energy: -4103091.665053  # eV

Spin-polarized calculation.
Magnetic moment: 158.800000

Convergence criteria:
 Maximum [total energy] change in last 3 cyles: 0.0001 eV / electron
 Maximum integral of absolute [dens]ity change: 0.0001 electrons / valence electron
 Maximum integral of absolute [eigenst]ate change: 4e-08 eV^2 / valence electron
 Maximum number of scf [iter]ations: 666
 (Square brackets indicate name in SCF output, whereas a 'c' in
 the SCF output indicates the quantity has converged.)

Symmetries present (total): 1

  ( 1  0  0)
  ( 0  1  0)
  ( 0  0  1)

4 k-points: 2 x 2 x 1 Monkhorst-Pack grid
2 k-points in the irreducible part of the Brillouin zone
       k-points in crystal coordinates                weights
   0:     0.25000000   -0.25000000    0.00000000          2/4
   1:     0.25000000    0.25000000    0.00000000          2/4

Wave functions: Plane wave expansion
  Cutoff energy: 350.000 eV
  Number of coefficients (min, max): 59263, 59339
  Pulay-stress correction: 0.000000 eV/Ang^3 (de/decut=0.000000)
  Using FFTW library
  ScaLapack parameters: grid=1x1, blocksize=None
  Wavefunction extrapolation:
    Improved wavefunction reuse through dual PAW basis 

Occupation numbers: Fermi-Dirac:
  width: 0.1000  # eV
 

Eigensolver
   Davidson(niter=2) 

Densities:
  Coarse grid: 56*56*128 grid
  Fine grid: 112*112*256 grid
  Total Charge: 0.000000 

Density mixing:
  Method: difference
  Backend: pulay
  Linear mixing parameter: 0.05
  old densities: 5
  Damping of long wavelength oscillations: 50 

Hamiltonian:
  XC and Coulomb potentials evaluated on a 112*112*256 grid
  Using the PBE Exchange-Correlation functional
  External potential:
    NoExternalPotential
 

XC parameters: PBE with 2 nearest neighbor stencil

Memory estimate:
  Process memory now: 379.25 MiB
  Calculator: 2263.81 MiB
    Density: 18.78 MiB
      Arrays: 7.39 MiB
      Localized functions: 8.44 MiB
      Mixer: 2.95 MiB
    Hamiltonian: 5.74 MiB
      Arrays: 5.49 MiB
      XC: 0.00 MiB
      Poisson: 0.00 MiB
      vbar: 0.26 MiB
    Wavefunctions: 2239.28 MiB
      Arrays psit_nG: 1414.30 MiB
      Eigensolver: 804.77 MiB
      Projections: 3.48 MiB
      Projectors: 1.15 MiB
      PW-descriptor: 15.58 MiB

Total number of cores used: 30
Parallelization over k-points: 2
Domain decomposition: 1 x 3 x 5

Number of atoms: 125
Number of atomic orbitals: 1149
Number of bands in calculation: 781
Number of valence electrons: 1136
Bands to converge: occupied

... initialized

Initializing position-dependent things.

Density initialized from atomic densities
Creating initial wave functions:
  781 bands from LCAO basis set

                                                                  
                                                                  
                                                                  
                                                                  
                                               Co    Ni           
                        Fe           Ni    Cr    Co               
                               Co                                 
                          Ni    NNi   Co    FCr   CFe   Ni        
                Fe    Cr   CoCr   CFe  Al           Fe            
           Fe     Fe    Co    Al         Co   Ni                  
                   Cr  Al   CCr   CCFe  AlCo   CNi   Al           
       Co    Co   Cr     Ni   FFe   CNi     Co   Co               
              Fe    Cr  NiCo     Cr    Fe Ni   Cr     Fe          
                   Cr     Cr   Co     Cr    Cr    Al              
               Ni    Ni  AlCr     Ni Fe Fe                        
           Co    Ni    Cr  CoCo FFe NiCNi   ACo   NNi   Cr        
                      Al   CCr    ANi   CFe   Fe    Ni            
                  Cr    Cr    Al   CrFe   Fe   Ni                 
       Fe    Fe     Fe Cr    Co                                   
                  Fe    Co     Fe    Ni    Cr                     
              Ni    Fe    Cr     Ni    Al                         
                                                                  
                                                                  
                                                                  
                                                                  
                                                                  

Positions:
   0 Al    12.436909    1.490271   10.349274    ( 0.0000,  0.0000,  0.0000)
   1 Ni     2.326473    1.559548   10.348763    ( 0.0000,  0.0000,  1.5000)
   2 Fe     4.737631    1.640509   10.536987    ( 0.0000,  0.0000,  2.0000)
   3 Cr     7.227053    1.867577   10.681284    ( 0.0000,  0.0000,  0.0000)
   4 Ni     9.990451    1.625542   10.716192    ( 0.0000,  0.0000,  1.5000)
   5 Cr    13.698112    3.776768   10.278601    ( 0.0000,  0.0000,  0.0000)
   6 Fe     3.549364    3.802014   10.365622    ( 0.0000,  0.0000,  2.0000)
   7 Co     6.002595    3.822570   10.607092    ( 0.0000,  0.0000,  2.1000)
   8 Fe     8.790395    3.701427   10.589649    ( 0.0000,  0.0000,  2.0000)
   9 Ni    11.339967    3.955484   10.338237    ( 0.0000,  0.0000,  1.5000)
  10 Ni    14.942711    5.909615   10.489724    ( 0.0000,  0.0000,  1.5000)
  11 Cr     4.925478    5.877205   10.416621    ( 0.0000,  0.0000,  0.0000)
  12 Co     7.448833    5.762610   10.516655    ( 0.0000,  0.0000,  2.1000)
  13 Cr    10.054676    5.980012   10.521851    ( 0.0000,  0.0000,  0.0000)
  14 Cr    12.536358    6.156140   10.516117    ( 0.0000,  0.0000,  0.0000)
  15 Ni    16.287232    8.089953   10.308753    ( 0.0000,  0.0000,  1.5000)
  16 Co     6.337035    8.114207   10.335512    ( 0.0000,  0.0000,  2.1000)
  17 Al     8.754591    8.189877   10.257722    ( 0.0000,  0.0000,  0.0000)
  18 Co    11.438296    8.224752   10.312203    ( 0.0000,  0.0000,  2.1000)
  19 Fe    13.781292    8.265802   10.262775    ( 0.0000,  0.0000,  2.0000)
  20 Cr    17.510294   10.164066   10.554509    ( 0.0000,  0.0000,  0.0000)
  21 Fe     7.490902   10.224934   10.498568    ( 0.0000,  0.0000,  2.0000)
  22 Co    10.001511   10.422487   10.589612    ( 0.0000,  0.0000,  2.1000)
  23 Al    12.426766   10.453040   10.384564    ( 0.0000,  0.0000,  0.0000)
  24 Ni    14.861106   10.399909   10.568504    ( 0.0000,  0.0000,  1.5000)
  25 Fe     0.076474    0.007763   12.606178    ( 0.0000,  0.0000,  2.0000)
  26 Fe     2.574750    0.070701   12.597130    ( 0.0000,  0.0000,  2.0000)
  27 Fe     5.074605    0.026381   12.649177    ( 0.0000,  0.0000,  2.0000)
  28 Cr    13.699025   10.944409   12.708468    ( 0.0000,  0.0000,  0.0000)
  29 Fe    16.208487   11.071571   12.652625    ( 0.0000,  0.0000,  2.0000)
  30 Fe    13.818754    2.122941   12.417966    ( 0.0000,  0.0000,  2.0000)
  31 Cr     3.736619    2.153417   12.628275    ( 0.0000,  0.0000,  0.0000)
  32 Cr     6.362174    2.125392   12.815139    ( 0.0000,  0.0000,  0.0000)
  33 Al     8.686756    2.327170   12.779195    ( 0.0000,  0.0000,  0.0000)
  34 Fe    11.415195    2.179601   12.463940    ( 0.0000,  0.0000,  2.0000)
  35 Fe    14.928368    4.284245   12.494870    ( 0.0000,  0.0000,  2.0000)
  36 Al     4.938478    4.299773   12.580860    ( 0.0000,  0.0000,  0.0000)
  37 Cr     7.541425    4.371348   12.422352    ( 0.0000,  0.0000,  0.0000)
  38 Ni    10.077260    4.342975   12.625281    ( 0.0000,  0.0000,  1.5000)
  39 Fe    12.519375    4.433809   12.357429    ( 0.0000,  0.0000,  2.0000)
  40 Ni    16.305189    6.401048   12.522439    ( 0.0000,  0.0000,  1.5000)
  41 Co     6.433589    6.415961   12.610870    ( 0.0000,  0.0000,  2.1000)
  42 Fe     8.821850    6.525272   12.428015    ( 0.0000,  0.0000,  2.0000)
  43 Ni    11.344553    6.600806   12.433753    ( 0.0000,  0.0000,  1.5000)
  44 Co    13.929686    6.459062   12.531820    ( 0.0000,  0.0000,  2.1000)
  45 Al     5.138284    8.562567   12.366454    ( 0.0000,  0.0000,  0.0000)
  46 Ni     7.647147    8.714709   12.462482    ( 0.0000,  0.0000,  1.5000)
  47 Fe     9.971533    8.713448   12.335912    ( 0.0000,  0.0000,  2.0000)
  48 Co    12.747046    8.549973   12.526188    ( 0.0000,  0.0000,  2.1000)
  49 Al    15.154646    8.540907   12.472660    ( 0.0000,  0.0000,  0.0000)
  50 Co     1.302506    0.976381   14.589472    ( 0.0000,  0.0000,  2.1000)
  51 Ni     3.881995    0.710010   14.728966    ( 0.0000,  0.0000,  1.5000)
  52 Cr     6.154899    0.836225   14.952721    ( 0.0000,  0.0000,  0.0000)
  53 Co     8.716636    0.669005   14.773449    ( 0.0000,  0.0000,  2.1000)
  54 Ni    11.409764    0.729172   14.725932    ( 0.0000,  0.0000,  1.5000)
  55 Ni     2.651810    2.901677   14.650536    ( 0.0000,  0.0000,  1.5000)
  56 Ni     4.929348    3.013157   14.589592    ( 0.0000,  0.0000,  1.5000)
  57 Cr     7.322619    2.907484   14.635365    ( 0.0000,  0.0000,  0.0000)
  58 Ni    10.081976    2.892987   14.711709    ( 0.0000,  0.0000,  1.5000)
  59 Fe    12.532146    2.905266   14.550342    ( 0.0000,  0.0000,  2.0000)
  60 Cr     3.710105    5.183292   14.605441    ( 0.0000,  0.0000,  0.0000)
  61 Cr     6.319041    5.149409   14.673496    ( 0.0000,  0.0000,  0.0000)
  62 Co     8.562905    5.005357   14.594935    ( 0.0000,  0.0000,  2.1000)
  63 Cr    11.280642    5.031308   14.530490    ( 0.0000,  0.0000,  0.0000)
  64 Cr    13.797847    5.008371   14.522782    ( 0.0000,  0.0000,  0.0000)
  65 Ni     5.018010    7.171503   14.581105    ( 0.0000,  0.0000,  1.5000)
  66 Fe     7.464313    7.306417   14.735625    ( 0.0000,  0.0000,  2.0000)
  67 Co    10.045985    7.126346   14.843551    ( 0.0000,  0.0000,  2.1000)
  68 Ni    12.637244    7.136598   14.570739    ( 0.0000,  0.0000,  1.5000)
  69 Co    15.152318    7.244875   14.698180    ( 0.0000,  0.0000,  2.1000)
  70 Co     6.332886    9.460048   14.537896    ( 0.0000,  0.0000,  2.1000)
  71 Cr     8.718648    9.376473   14.655692    ( 0.0000,  0.0000,  0.0000)
  72 Al    11.298256    9.329817   14.511823    ( 0.0000,  0.0000,  0.0000)
  73 Cr    13.771126    9.286599   14.779969    ( 0.0000,  0.0000,  0.0000)
  74 Al    16.303603    9.540209   14.756621    ( 0.0000,  0.0000,  0.0000)
  75 Fe    12.642688    1.406071   16.719730    ( 0.0000,  0.0000,  2.0000)
  76 Fe     2.539147    1.390741   16.766490    ( 0.0000,  0.0000,  2.0000)
  77 Cr     5.020589    1.303252   17.050147    ( 0.0000,  0.0000,  0.0000)
  78 Co     7.488993    1.239442   16.899100    ( 0.0000,  0.0000,  2.1000)
  79 Cr    10.125368    1.489495   16.889352    ( 0.0000,  0.0000,  0.0000)
  80 Co    13.993012    3.434527   16.670672    ( 0.0000,  0.0000,  2.1000)
  81 Cr     3.727982    3.734268   16.826083    ( 0.0000,  0.0000,  0.0000)
  82 Ni     6.213056    3.618968   16.694581    ( 0.0000,  0.0000,  1.5000)
  83 Fe     8.643880    3.541282   17.010502    ( 0.0000,  0.0000,  2.0000)
  84 Ni    11.447137    3.408727   16.701203    ( 0.0000,  0.0000,  1.5000)
  85 Ni    15.088473    5.946685   16.588124    ( 0.0000,  0.0000,  1.5000)
  86 Al     5.138629    5.912711   16.722166    ( 0.0000,  0.0000,  0.0000)
  87 Cr     7.590432    5.851824   16.851943    ( 0.0000,  0.0000,  0.0000)
  88 Cr    10.123923    5.401054   16.921400    ( 0.0000,  0.0000,  0.0000)
  89 Co    12.741305    5.643929   16.573297    ( 0.0000,  0.0000,  2.1000)
  90 Fe    16.253143    7.993803   16.995470    ( 0.0000,  0.0000,  2.0000)
  91 Co     6.247721    7.976978   16.825260    ( 0.0000,  0.0000,  2.1000)
  92 Co     8.830618    7.938797   16.951974    ( 0.0000,  0.0000,  2.1000)
  93 Al    11.176861    7.657993   17.216942    ( 0.0000,  0.0000,  0.0000)
  94 Ni    13.666928    7.931153   16.744472    ( 0.0000,  0.0000,  1.5000)
  95 Ni    17.461297   10.263688   16.933798    ( 0.0000,  0.0000,  1.5000)
  96 Ni     7.515407   10.273676   16.646924    ( 0.0000,  0.0000,  1.5000)
  97 Ni    10.023733   10.076748   16.868069    ( 0.0000,  0.0000,  1.5000)
  98 Fe    12.364611   10.005233   16.906743    ( 0.0000,  0.0000,  2.0000)
  99 Co    14.877693    9.880770   17.108781    ( 0.0000,  0.0000,  2.1000)
 100 Co     0.116867   -0.097163   18.769903    ( 0.0000,  0.0000,  2.1000)
 101 Co     2.609362   -0.166372   18.934809    ( 0.0000,  0.0000,  2.1000)
 102 Cr     4.998953   -0.096133   19.133971    ( 0.0000,  0.0000,  0.0000)
 103 Co    13.729356   10.510700   18.973642    ( 0.0000,  0.0000,  2.1000)
 104 Ni    16.190381   10.662065   18.978501    ( 0.0000,  0.0000,  1.5000)
 105 Fe     1.306396    2.055677   18.816073    ( 0.0000,  0.0000,  2.0000)
 106 Fe     3.813322    2.246640   18.886275    ( 0.0000,  0.0000,  2.0000)
 107 Co     6.379159    2.222792   18.898826    ( 0.0000,  0.0000,  2.1000)
 108 Al     8.689634    1.933578   19.007151    ( 0.0000,  0.0000,  0.0000)
 109 Fe    11.353035    1.898751   18.843002    ( 0.0000,  0.0000,  2.0000)
 110 Fe     2.506765    4.272565   18.582280    ( 0.0000,  0.0000,  2.0000)
 111 Cr     5.082402    4.318341   18.832227    ( 0.0000,  0.0000,  0.0000)
 112 Cr     7.652080    4.364546   18.971029    ( 0.0000,  0.0000,  0.0000)
 113 Fe    10.213842    3.992509   19.056376    ( 0.0000,  0.0000,  2.0000)
 114 Co    12.592015    4.120426   18.579187    ( 0.0000,  0.0000,  2.1000)
 115 Fe    16.379786    6.491903   18.793765    ( 0.0000,  0.0000,  2.0000)
 116 Ni     6.248591    6.511443   19.033371    ( 0.0000,  0.0000,  1.5000)
 117 Ni     9.044248    6.390873   18.761753    ( 0.0000,  0.0000,  1.5000)
 118 Co    11.264551    6.043234   19.123057    ( 0.0000,  0.0000,  2.1000)
 119 Cr    13.735138    6.431888   18.549262    ( 0.0000,  0.0000,  0.0000)
 120 Fe     4.955528    8.608806   18.979563    ( 0.0000,  0.0000,  2.0000)
 121 Co     7.567143    8.580043   18.885199    ( 0.0000,  0.0000,  2.1000)
 122 Ni     9.984647    8.567378   19.074851    ( 0.0000,  0.0000,  1.5000)
 123 Cr    12.583629    8.358051   19.105065    ( 0.0000,  0.0000,  0.0000)
 124 Co    14.940946    8.445340   19.213911    ( 0.0000,  0.0000,  2.1000)

Unit cell:
           periodic     x           y           z      points  spacing
  1. axis:    yes   12.530300    0.000000    0.000000    56     0.1938
  2. axis:    yes    6.259130   10.841100    0.000000    56     0.1936
  3. axis:    no     0.000000    0.000000   29.353100   128     0.2293

  Lengths:  12.530300  12.518233  29.353100
  Angles:   90.000000  90.000000  59.999929

Effective grid spacing dv^(1/3) = 0.2150

     iter     time        total  log10-change:  magmom
                         energy  eigst   dens
iter:   1 11:02:21 -1181.420950                  +159.1295
iter:   2 11:04:38 -1510.187951  +0.11  -1.11    +88.3407
iter:   3 11:06:54 -2928.491432  +1.16  -0.87    +58.2125
iter:   4 11:09:12 -1049.908660  +0.30  -0.59    +31.9999
iter:   5 11:11:28 -1005.144955  -0.25  -1.19    +26.6666
iter:   6 11:13:45  -995.383225  -0.84  -1.22    +24.7013
iter:   7 11:16:02  -977.741910  -1.36  -1.24    +25.1809
iter:   8 11:18:19  -965.485462  -1.12  -1.27    +26.2166
iter:   9 11:20:36 -1388.258058  -0.76  -1.29    +28.0468
iter:  10 11:22:53  -969.420442  -1.00  -0.92    +26.2373
iter:  11 11:25:10  -955.023039  -1.63  -1.32    +26.3067
iter:  12 11:27:28  -962.054193  -1.45  -1.38    +29.0310
iter:  13 11:29:45  -966.804364  -1.38  -1.40    +29.8291
iter:  14 11:32:04  -950.219701  -1.55  -1.38    +31.1365
iter:  15 11:34:21  -934.319594  -1.58  -1.49    +31.4612
iter:  16 11:36:40  -971.050266  -1.83  -1.65    +34.3485
iter:  17 11:38:58  -953.711723  -1.78  -1.38    +36.2285
iter:  18 11:41:16  -942.153112  -2.07  -1.49    +36.8832
iter:  19 11:43:34  -941.375268  -1.87  -1.58    +39.6717
iter:  20 11:45:53  -932.622070  -2.26  -1.63    +41.8712
iter:  21 11:48:12  -933.436530  -2.71  -1.74    +45.8182
iter:  22 11:50:32  -933.379505  -3.00  -1.74    +46.0668
iter:  23 11:52:51  -938.108068  -2.58  -1.76    +50.3382
iter:  24 11:55:11  -950.522948  -2.25  -1.70    +51.7540
iter:  25 11:57:30  -937.527730  -2.20  -1.55    +53.8383
iter:  26 11:59:50  -937.275820  -2.43  -1.82    +55.5806
iter:  27 12:02:09  -939.489206  -2.17  -1.81    +58.5885
iter:  28 12:04:29  -937.199146  -2.28  -1.83    +59.7105
iter:  29 12:06:48  -941.482237  -2.60  -1.89    +61.9815
iter:  30 12:09:08  -936.726195  -2.65  -1.76    +64.2764
iter:  31 12:11:28  -936.625272  -2.98  -1.97    +65.1761
iter:  32 12:13:48  -937.194639  -2.90  -2.05    +66.7038
iter:  33 12:16:07  -937.713738  -2.93  -2.06    +67.4345
iter:  34 12:18:27  -938.158789  -2.96  -2.07    +68.0433
iter:  35 12:20:46  -957.837100  -2.31  -2.09    +67.8880
iter:  36 12:23:06  -942.401879  -2.25  -1.57    +67.6393
iter:  37 12:25:25  -938.456293  -2.92  -1.86    +68.1275
iter:  38 12:27:45  -938.776304  -2.92  -2.19    +68.3048
iter:  39 12:30:05  -938.688145  -3.32  -2.15    +68.1320
iter:  40 12:32:24  -938.525757  -3.40  -2.20    +68.1169
iter:  41 12:34:44  -939.157789  -3.55  -2.25    +68.3980
iter:  42 12:37:04  -954.976570  -2.29  -2.19    +68.3135
iter:  43 12:39:23  -938.679087  -2.63  -1.61    +67.9703
iter:  44 12:41:43  -938.949550  -3.04  -2.37    +67.9989
iter:  45 12:44:03  -938.809951  -3.31  -2.37    +68.1241
iter:  46 12:46:23  -939.008824  -3.16  -2.45    +68.1577
iter:  47 12:48:42  -938.820060  -3.58  -2.38    +67.7287
iter:  48 12:51:02  -939.202433  -3.53  -2.50    +67.4688
iter:  49 12:53:22  -938.886244  -3.58  -2.34    +67.5790
iter:  50 12:55:42  -938.872224  -4.15  -2.47    +67.3648
iter:  51 12:57:59  -938.931955c -4.00  -2.53    +67.0971
iter:  52 13:00:18  -939.017052  -3.70  -2.53    +66.9883
iter:  53 13:02:35  -938.860933  -3.70  -2.52    +67.0926
iter:  54 13:04:54  -938.843550  -3.84  -2.64    +66.8796
iter:  55 13:07:12  -938.846127c -4.10  -2.88    +66.8563
iter:  56 13:09:31  -938.889290c -4.25  -2.97    +66.8544
iter:  57 13:11:49  -939.029161  -4.01  -2.83    +66.8378
iter:  58 13:14:08  -938.903367  -4.08  -2.62    +66.8734
iter:  59 13:16:26  -938.920552  -4.71  -2.84    +66.7863
iter:  60 13:18:44  -938.932131c -4.86  -2.84    +66.8203
iter:  61 13:21:02  -938.968680c -4.12  -2.83    +66.8988
iter:  62 13:23:20  -938.983644c -4.83  -2.81    +66.8888
iter:  63 13:25:38  -939.341396  -3.68  -2.78    +66.9003
iter:  64 13:27:56  -939.006555  -3.93  -2.41    +66.9123
iter:  65 13:30:15  -939.007982  -4.68  -2.75    +66.8706
iter:  66 13:32:33  -939.078461c -4.20  -2.77    +66.9396
iter:  67 13:34:51  -938.981843c -4.20  -2.63    +66.9694
iter:  68 13:37:10  -939.022215c -4.18  -2.77    +67.1393
iter:  69 13:39:29  -943.627432  -2.87  -2.70    +67.1928
iter:  70 13:41:48  -938.990847  -3.15  -1.90    +67.2690
iter:  71 13:44:07  -938.969601  -3.96  -2.79    +67.2190
iter:  72 13:46:26  -938.941695c -4.58  -2.88    +67.1552
iter:  73 13:48:46  -938.974542c -4.47  -3.01    +67.2583
iter:  74 13:51:05  -938.948881c -4.68  -2.87    +67.1865
iter:  75 13:53:24  -938.998857c -4.56  -3.06    +67.1300
iter:  76 13:55:42  -939.363626  -3.76  -2.85    +67.1854
iter:  77 13:58:00  -938.951090  -4.10  -2.42    +67.1968
iter:  78 14:00:18  -938.952919  -4.56  -3.18    +67.4296
iter:  79 14:02:37  -938.961000c -4.84  -3.26    +67.3324
iter:  80 14:04:55  -938.956552c -5.01  -3.27    +67.3495
iter:  81 14:07:13  -938.961142c -5.15  -3.34    +67.4174
iter:  82 14:09:31  -938.983082c -4.95  -3.38    +67.4504
iter:  83 14:11:49  -938.966334c -5.32  -3.05    +67.5037
iter:  84 14:14:07  -938.968527c -5.42  -3.45    +67.5536
iter:  85 14:16:26  -938.969210c -5.61  -3.49    +67.5504
iter:  86 14:18:44  -938.973694c -5.34  -3.49    +67.5392
iter:  87 14:21:02  -938.972019c -5.54  -3.46    +67.5517
iter:  88 14:23:21  -939.019136c -4.75  -3.55    +67.6327
iter:  89 14:25:39  -938.978478c -4.93  -2.93    +67.6558
iter:  90 14:27:58  -938.980109c -5.43  -3.38    +67.7335
iter:  91 14:30:17  -938.987670c -5.20  -3.57    +67.8038
iter:  92 14:32:35  -938.974773c -4.89  -3.50    +67.5710
iter:  93 14:34:53  -938.973434c -5.72  -3.50    +67.5935
iter:  94 14:37:11  -939.014245c -4.83  -3.64    +67.6798
iter:  95 14:39:29  -938.980868c -5.10  -2.97    +67.6946
iter:  96 14:41:47  -938.983840c -5.46  -3.43    +67.7857
iter:  97 14:44:06  -938.987896c -5.48  -3.56    +67.8219
iter:  98 14:46:24  -938.993667c -5.57  -3.45    +67.8698
iter:  99 14:48:44  -938.987533c -5.60  -3.37    +67.8394
iter: 100 14:51:02  -939.007901c -4.97  -3.52    +67.8050
iter: 101 14:53:21  -938.999581c -5.04  -3.10    +67.8551
iter: 102 14:55:40  -938.996222c -5.40  -3.23    +67.9626
iter: 103 14:57:59  -939.001113c -5.21  -3.45    +68.0125
iter: 104 15:00:18  -939.001960c -5.45  -3.41    +68.0335
iter: 105 15:02:36  -939.005257c -5.17  -3.51    +68.1015
iter: 106 15:04:55  -939.032203c -4.92  -3.51    +68.1171
iter: 107 15:07:13  -939.008207c -5.22  -3.04    +68.0982
iter: 108 15:09:32  -939.012191c -5.52  -3.47    +68.1873
iter: 109 15:11:51  -939.015728c -5.56  -3.50    +68.2294
iter: 110 15:14:09  -939.014617c -6.25  -3.45    +68.2279
iter: 111 15:16:28  -939.020489c -5.55  -3.46    +68.2558
iter: 112 15:18:46  -939.029207c -5.13  -3.40    +68.2290
iter: 113 15:21:05  -939.030278c -4.98  -3.16    +68.3071
iter: 114 15:23:23  -939.025125c -5.23  -3.22    +68.3474
iter: 115 15:25:41  -939.028006c -5.36  -3.49    +68.4244
iter: 116 15:28:00  -939.031217c -5.13  -3.52    +68.4467
iter: 117 15:30:18  -939.033328c -5.49  -3.43    +68.4552
iter: 118 15:32:37  -939.080413c -4.72  -3.45    +68.5119
iter: 119 15:34:56  -939.033799c -5.06  -2.90    +68.5488
iter: 120 15:37:15  -939.036435c -5.63  -3.54    +68.5710
iter: 121 15:39:33  -939.045429c -5.14  -3.55    +68.6492
iter: 122 15:41:52  -939.039769c -5.14  -3.44    +68.5330
iter: 123 15:44:10  -939.047174c -4.78  -3.39    +68.7150
iter: 124 15:46:28  -939.152808c -4.43  -3.48    +68.8443
iter: 125 15:48:46  -939.047099c -4.89  -2.73    +68.7873
iter: 126 15:51:04  -939.046700c -5.09  -3.54    +68.8158
iter: 127 15:53:23  -939.046542c -5.62  -3.41    +68.7992
iter: 128 15:55:42  -939.045824c -5.43  -3.51    +68.7799
iter: 129 15:58:01  -939.046935c -5.47  -3.43    +68.7535
iter: 130 16:00:19  -939.129771c -4.65  -3.47    +68.7203
iter: 131 16:02:38  -939.062215c -4.54  -2.77    +68.7208
iter: 132 16:04:56  -939.048859c -5.12  -3.12    +68.7898
iter: 133 16:07:15  -939.046413c -5.36  -3.38    +68.7410
iter: 134 16:09:33  -939.047518c -5.45  -3.48    +68.7194
iter: 135 16:11:51  -939.045744c -5.81  -3.56    +68.7322
iter: 136 16:14:08  -939.046680c -6.20  -3.69    +68.7417
iter: 137 16:16:25  -939.058944c -5.24  -3.52    +68.7355
iter: 138 16:18:42  -939.046170c -5.75  -3.15    +68.7272
iter: 139 16:20:59  -939.047472c -5.76  -3.69    +68.7326
iter: 140 16:23:17  -939.045362c -5.78  -3.70    +68.7299
iter: 141 16:25:31  -939.046633c -5.75  -3.71    +68.7036
iter: 142 16:27:42  -939.046885c -6.18  -3.65    +68.6888
iter: 143 16:29:54  -939.047449c -5.72  -3.60    +68.6882
iter: 144 16:32:05  -939.045174c -6.24  -3.50    +68.6915
iter: 145 16:34:17  -939.045154c -6.94  -4.00c   +68.6860
iter: 146 16:36:28  -939.046029c -6.62  -4.02c   +68.6749
iter: 147 16:38:40  -939.045538c -6.18  -3.90    +68.6769
iter: 148 16:40:51  -939.045691c -6.12  -3.81    +68.6800
iter: 149 16:43:17  -939.048299c -5.85  -3.78    +68.6651
iter: 150 16:45:43  -939.046012c -6.02  -3.49    +68.6609
iter: 151 16:48:11  -939.045853c -6.20  -3.92    +68.6633
iter: 152 16:50:37  -939.045221c -6.74  -4.10c   +68.6722
iter: 153 16:53:04  -939.045415c -7.32  -4.20c   +68.6642
iter: 154 16:55:31  -939.045414c -7.40c -4.30c   +68.6615

Converged after 154 iterations.

Dipole moment: (30.321312, 68.547071, -0.028151) |e|*Ang

Total magnetic moment: (0.000000, 0.000000, 68.661473)
Local magnetic moments:
   0 Al ( 0.000000,  0.000000, -0.024887)
   1 Ni ( 0.000000,  0.000000,  0.340985)
   2 Fe ( 0.000000,  0.000000,  2.126587)
   3 Cr ( 0.000000,  0.000000, -1.963346)
   4 Ni ( 0.000000,  0.000000,  0.361978)
   5 Cr ( 0.000000,  0.000000, -2.539600)
   6 Fe ( 0.000000,  0.000000,  2.448308)
   7 Co ( 0.000000,  0.000000,  0.553185)
   8 Fe ( 0.000000,  0.000000,  2.328436)
   9 Ni ( 0.000000,  0.000000,  0.053480)
  10 Ni ( 0.000000,  0.000000,  0.227556)
  11 Cr ( 0.000000,  0.000000, -2.666936)
  12 Co ( 0.000000,  0.000000,  1.195578)
  13 Cr ( 0.000000,  0.000000, -2.449000)
  14 Cr ( 0.000000,  0.000000, -2.154220)
  15 Ni ( 0.000000,  0.000000,  0.059979)
  16 Co ( 0.000000,  0.000000,  1.269684)
  17 Al ( 0.000000,  0.000000, -0.041193)
  18 Co ( 0.000000,  0.000000,  1.218178)
  19 Fe ( 0.000000,  0.000000,  2.706911)
  20 Cr ( 0.000000,  0.000000, -2.522294)
  21 Fe ( 0.000000,  0.000000,  2.389760)
  22 Co ( 0.000000,  0.000000,  1.280731)
  23 Al ( 0.000000,  0.000000, -0.042462)
  24 Ni ( 0.000000,  0.000000,  0.173889)
  25 Fe ( 0.000000,  0.000000,  2.208868)
  26 Fe ( 0.000000,  0.000000,  2.074759)
  27 Fe ( 0.000000,  0.000000,  1.887980)
  28 Cr ( 0.000000,  0.000000, -1.254814)
  29 Fe ( 0.000000,  0.000000,  2.134156)
  30 Fe ( 0.000000,  0.000000,  2.162294)
  31 Cr ( 0.000000,  0.000000, -1.554490)
  32 Cr ( 0.000000,  0.000000,  0.825825)
  33 Al ( 0.000000,  0.000000, -0.014544)
  34 Fe ( 0.000000,  0.000000,  2.390676)
  35 Fe ( 0.000000,  0.000000,  1.921803)
  36 Al ( 0.000000,  0.000000, -0.012832)
  37 Cr ( 0.000000,  0.000000, -0.867779)
  38 Ni ( 0.000000,  0.000000,  0.205223)
  39 Fe ( 0.000000,  0.000000,  2.116147)
  40 Ni ( 0.000000,  0.000000,  0.131133)
  41 Co ( 0.000000,  0.000000,  0.599096)
  42 Fe ( 0.000000,  0.000000,  2.228116)
  43 Ni ( 0.000000,  0.000000,  0.101977)
  44 Co ( 0.000000,  0.000000,  1.298168)
  45 Al ( 0.000000,  0.000000, -0.019241)
  46 Ni ( 0.000000,  0.000000,  0.434462)
  47 Fe ( 0.000000,  0.000000,  2.436840)
  48 Co ( 0.000000,  0.000000,  1.234740)
  49 Al ( 0.000000,  0.000000, -0.029776)
  50 Co ( 0.000000,  0.000000,  1.464687)
  51 Ni ( 0.000000,  0.000000,  0.184581)
  52 Cr ( 0.000000,  0.000000,  0.800294)
  53 Co ( 0.000000,  0.000000,  1.042798)
  54 Ni ( 0.000000,  0.000000,  0.426067)
  55 Ni ( 0.000000,  0.000000,  0.190061)
  56 Ni ( 0.000000,  0.000000,  0.049057)
  57 Cr ( 0.000000,  0.000000, -0.902938)
  58 Ni ( 0.000000,  0.000000,  0.243476)
  59 Fe ( 0.000000,  0.000000,  2.324408)
  60 Cr ( 0.000000,  0.000000,  1.311850)
  61 Cr ( 0.000000,  0.000000, -0.853436)
  62 Co ( 0.000000,  0.000000,  0.388244)
  63 Cr ( 0.000000,  0.000000,  1.438624)
  64 Cr ( 0.000000,  0.000000, -1.551026)
  65 Ni ( 0.000000,  0.000000,  0.191733)
  66 Fe ( 0.000000,  0.000000,  2.231473)
  67 Co ( 0.000000,  0.000000,  1.030175)
  68 Ni ( 0.000000,  0.000000,  0.202328)
  69 Co ( 0.000000,  0.000000,  0.643015)
  70 Co ( 0.000000,  0.000000,  1.257148)
  71 Cr ( 0.000000,  0.000000, -2.241156)
  72 Al ( 0.000000,  0.000000, -0.030144)
  73 Cr ( 0.000000,  0.000000,  1.855279)
  74 Al ( 0.000000,  0.000000, -0.037003)
  75 Fe ( 0.000000,  0.000000,  2.361296)
  76 Fe ( 0.000000,  0.000000,  2.257734)
  77 Cr ( 0.000000,  0.000000, -0.800507)
  78 Co ( 0.000000,  0.000000,  1.053146)
  79 Cr ( 0.000000,  0.000000, -1.986079)
  80 Co ( 0.000000,  0.000000,  1.186876)
  81 Cr ( 0.000000,  0.000000, -1.329776)
  82 Ni ( 0.000000,  0.000000, -0.054807)
  83 Fe ( 0.000000,  0.000000,  2.116359)
  84 Ni ( 0.000000,  0.000000,  0.324527)
  85 Ni ( 0.000000,  0.000000,  0.222030)
  86 Al ( 0.000000,  0.000000, -0.017817)
  87 Cr ( 0.000000,  0.000000,  1.616514)
  88 Cr ( 0.000000,  0.000000, -1.825768)
  89 Co ( 0.000000,  0.000000,  1.028756)
  90 Fe ( 0.000000,  0.000000,  2.431440)
  91 Co ( 0.000000,  0.000000,  1.520456)
  92 Co ( 0.000000,  0.000000,  1.297241)
  93 Al ( 0.000000,  0.000000, -0.023545)
  94 Ni ( 0.000000,  0.000000,  0.174681)
  95 Ni ( 0.000000,  0.000000,  0.382657)
  96 Ni ( 0.000000,  0.000000,  0.539801)
  97 Ni ( 0.000000,  0.000000,  0.309647)
  98 Fe ( 0.000000,  0.000000,  1.981000)
  99 Co ( 0.000000,  0.000000,  1.480898)
 100 Co ( 0.000000,  0.000000,  1.717545)
 101 Co ( 0.000000,  0.000000,  1.589069)
 102 Cr ( 0.000000,  0.000000, -2.725561)
 103 Co ( 0.000000,  0.000000,  1.326149)
 104 Ni ( 0.000000,  0.000000,  0.454065)
 105 Fe ( 0.000000,  0.000000,  2.606103)
 106 Fe ( 0.000000,  0.000000,  2.280856)
 107 Co ( 0.000000,  0.000000,  0.808196)
 108 Al ( 0.000000,  0.000000, -0.026661)
 109 Fe ( 0.000000,  0.000000,  2.357443)
 110 Fe ( 0.000000,  0.000000,  2.025568)
 111 Cr ( 0.000000,  0.000000, -2.366959)
 112 Cr ( 0.000000,  0.000000, -2.408284)
 113 Fe ( 0.000000,  0.000000,  2.432006)
 114 Co ( 0.000000,  0.000000,  1.520373)
 115 Fe ( 0.000000,  0.000000,  2.298709)
 116 Ni ( 0.000000,  0.000000,  0.295936)
 117 Ni ( 0.000000,  0.000000,  0.322330)
 118 Co ( 0.000000,  0.000000,  1.258409)
 119 Cr ( 0.000000,  0.000000, -1.263881)
 120 Fe ( 0.000000,  0.000000,  2.725112)
 121 Co ( 0.000000,  0.000000,  1.788413)
 122 Ni ( 0.000000,  0.000000,  0.263530)
 123 Cr ( 0.000000,  0.000000, -1.967948)
 124 Co ( 0.000000,  0.000000,  1.458849)

Energy contributions relative to reference atoms: (reference = -4103091.665053)

Kinetic:       +408.847264
Potential:     -404.208178
External:        +0.000000
XC:            -981.314166
Entropy (-ST):   -5.103077
Local:          +40.181205
--------------------------
Free energy:   -941.596953
Extrapolated:  -939.045414

Dipole-layer corrected work functions: 4.886459, 4.923958 eV

Spin contamination: 48.202009 electrons
Showing all kpts
                      Up                     Down
 Kpt  Band  Eigenvalues  Occupancy  Eigenvalues  Occupancy
  0   566     -0.03803    0.99648      0.85695    0.03546
  0   567     -0.02696    0.99607      0.86721    0.03212
  0   568     -0.01172    0.99543      0.87866    0.02874
  0   569      0.00120    0.99480      0.88470    0.02710

  1   566     -0.03433    0.99635      0.86104    0.03409
  1   567     -0.02875    0.99614      0.86995    0.03127
  1   568     -0.01125    0.99541      0.88285    0.02759
  1   569      0.00546    0.99458      0.88926    0.02592


Fermi level: 0.52663

No gap

Forces in eV/Ang:
  0 Al   -0.03990    0.67925   -0.92075
  1 Ni    0.37577    0.09852    0.16630
  2 Fe    0.50414    0.72323    0.44076
  3 Cr    0.96475   -0.20223   -0.31667
  4 Ni   -0.30958    0.01960   -0.91154
  5 Cr    0.55374    0.05148    0.23121
  6 Fe    0.46974   -0.65108    0.13678
  7 Co    0.81948   -0.47853   -0.57315
  8 Fe   -0.24865    0.69461   -0.70806
  9 Ni   -0.73655   -0.96395    0.35503
 10 Ni    0.14486    0.54467   -0.17576
 11 Cr    0.38746    0.90418   -0.18495
 12 Co    0.22169    0.67833   -0.35742
 13 Cr   -0.92757   -0.39044   -0.25496
 14 Cr    1.03060   -0.31890   -0.60164
 15 Ni   -0.22097   -0.02089    0.61250
 16 Co   -0.33303   -0.58736    0.33578
 17 Al    0.24759   -0.63573   -0.87797
 18 Co   -1.12376   -0.00091    0.80958
 19 Fe    0.22727   -0.60563    0.33201
 20 Cr   -0.86864    0.41983   -0.73201
 21 Fe   -0.08532    0.36867    0.08312
 22 Co   -0.28744   -0.97351   -0.38864
 23 Al    0.11007   -0.80924   -0.47740
 24 Ni    0.40680    0.03407    0.35164
 25 Fe   -0.32105   -0.04582   -0.17664
 26 Fe   -0.07123   -0.12923    0.27383
 27 Fe   -0.22728   -0.16601   -0.52514
 28 Cr    0.35048   -1.12794    0.33016
 29 Fe    0.43079   -1.49048    0.15395
 30 Fe   -0.08412    0.82783    0.24468
 31 Cr   -0.21154   -1.00621   -0.62524
 32 Cr   -1.53815    0.47120   -1.42996
 33 Al    3.28680   -0.86095   -0.44982
 34 Fe   -0.67743    0.85874    1.20766
 35 Fe    0.34581   -0.18338   -0.19579
 36 Al    0.21635    0.74945   -0.01038
 37 Cr   -0.21311    1.02769   -0.07680
 38 Ni   -0.13834    0.13866   -0.39466
 39 Fe    0.29821   -0.02194    0.05963
 40 Ni    0.55958    0.71273   -0.12548
 41 Co   -0.55643    0.38094   -0.14157
 42 Fe   -0.05124   -0.29479    0.95535
 43 Ni   -0.39658    0.01240    1.37197
 44 Co   -1.27026   -0.02975    0.44747
 45 Al    0.83971   -0.79807    1.25618
 46 Ni   -0.91929   -0.55602    0.53941
 47 Fe    1.64633    0.17398    0.97803
 48 Co   -0.85566    1.07288   -0.51162
 49 Al   -0.74135    0.91818   -0.17999
 50 Co    0.15786   -1.67133    0.28647
 51 Ni   -1.02747    0.04691    0.14801
 52 Cr    0.99620   -0.59602    0.11933
 53 Co   -0.13955    0.66486    0.45156
 54 Ni   -0.94158    0.28803   -0.25725
 55 Ni   -1.12684    0.37800   -0.17371
 56 Ni    0.28828   -0.32723    1.07808
 57 Cr    0.81585   -0.15779    2.23906
 58 Ni   -0.63503   -0.11267    0.26489
 59 Fe    0.70106    0.27212   -0.00359
 60 Cr   -0.05554   -0.93336    0.41118
 61 Cr   -0.08693   -0.69892   -0.32300
 62 Co    1.45441    0.10135    0.15831
 63 Cr   -0.28319    0.45366    0.75567
 64 Cr    0.24451    0.04660    0.41837
 65 Ni    0.26811    1.50936    0.03088
 66 Fe    0.65271    0.18455   -0.40099
 67 Co   -0.38744   -0.00824   -0.20753
 68 Ni   -0.53220    0.22412    0.08734
 69 Co   -0.84266    0.90548   -0.53513
 70 Co   -0.06329    0.02210    0.62094
 71 Cr   -0.16215    0.11091    0.05119
 72 Al   -0.22961   -0.69023    0.77683
 73 Cr    0.41663    1.11439   -0.40736
 74 Al    0.72625   -0.76250    0.71895
 75 Fe   -0.24585    0.09701    0.17528
 76 Fe    1.16859    0.04415    0.06823
 77 Cr    0.06081    1.20744   -0.56173
 78 Co    0.02866    0.27589   -0.18439
 79 Cr   -1.01150   -0.60883   -0.67491
 80 Co   -1.56808    0.89285   -0.40554
 81 Cr    0.39230   -0.75850   -1.25243
 82 Ni    0.01874   -0.42750    0.56964
 83 Fe    0.72906   -0.39798   -0.98466
 84 Ni   -0.40524    1.16109   -0.56810
 85 Ni    0.31324   -1.16531    0.82692
 86 Al   -0.97243   -0.28555    0.34930
 87 Cr    0.62210   -0.28344   -0.01554
 88 Cr   -0.64834   -0.01561   -0.69216
 89 Co   -1.27541   -0.50176    0.36640
 90 Fe    0.05908    0.34732   -0.94075
 91 Co    0.43419    1.11746    0.00146
 92 Co   -0.94842    0.09977   -0.92323
 93 Al    0.66781    0.24792   -1.48094
 94 Ni   -0.35624   -0.66027   -0.02112
 95 Ni    0.34052   -1.25337   -0.52938
 96 Ni    0.08655   -1.77187    0.19746
 97 Ni   -0.30692   -0.32554   -0.31148
 98 Fe    1.01723    0.07159    0.61676
 99 Co    0.71022    1.40802   -0.95990
100 Co   -0.01628   -0.33106    0.15865
101 Co   -0.70463    0.64234   -0.73061
102 Cr    0.18896    0.18520    0.07258
103 Co   -0.58529    0.67870   -0.04681
104 Ni    0.39845    0.13092   -0.08383
105 Fe    0.34812   -0.19087    0.31006
106 Fe    0.17320   -0.76755    0.10900
107 Co   -1.05043   -0.52028   -0.60263
108 Al    0.50025   -0.43040    1.02347
109 Fe   -0.26509   -0.03256    0.15305
110 Fe   -0.20644    0.93110    0.92779
111 Cr   -0.14730   -0.00307    0.59945
112 Cr    0.28436    0.12298   -0.26964
113 Fe   -0.43667    0.39684   -0.67616
114 Co    0.24144    0.42782    0.44468
115 Fe   -0.88010   -0.59134    0.60144
116 Ni    0.73135   -0.18040   -0.78855
117 Ni   -1.12351   -0.02196    0.99008
118 Co    1.14130    0.63867   -0.47437
119 Cr   -0.04760   -0.90125    0.79803
120 Fe    0.51910    0.55748    0.03393
121 Co   -0.34818    0.10181   -0.54481
122 Ni    0.51977    0.02390    0.04503
123 Cr    0.04647    0.73202    0.50478
124 Co    0.63427    0.31034   -0.83472

Timing:                              incl.     excl.
-----------------------------------------------------------
Forces:                             39.037    39.037   0.2% |
Hamiltonian:                         1.339     0.011   0.0% |
 Atomic:                             0.364     0.001   0.0% |
  XC Correction:                     0.363     0.363   0.0% |
 Calculate atomic Hamiltonians:      0.435     0.435   0.0% |
 Communicate:                        0.121     0.121   0.0% |
 Initialize Hamiltonian:             0.000     0.000   0.0% |
 Poisson:                            0.081     0.081   0.0% |
 XC 3D grid:                         0.327     0.327   0.0% |
LCAO initialization:               260.544     0.549   0.0% |
 LCAO eigensolver:                  12.702     0.009   0.0% |
  Calculate projections:             0.000     0.000   0.0% |
  DenseAtomicCorrection:             0.000     0.000   0.0% |
  Distribute overlap matrix:         8.114     8.114   0.0% |
  Orbital Layouts:                   4.550     4.550   0.0% |
  Potential matrix:                  0.003     0.003   0.0% |
  Sum over cells:                    0.025     0.025   0.0% |
 LCAO to grid:                     245.071   245.071   1.1% |
 Set positions (LCAO WFS):           2.223     1.929   0.0% |
  Basic WFS set positions:           0.004     0.004   0.0% |
  Basis functions set positions:     0.001     0.001   0.0% |
  P tci:                             0.000     0.000   0.0% |
  ST tci:                            0.110     0.110   0.0% |
  mktci:                             0.178     0.178   0.0% |
PWDescriptor:                        0.100     0.100   0.0% |
SCF-cycle:                       21341.475     2.099   0.0% |
 Davidson:                       20744.486  6773.807  31.3% |------------|
  Apply H:                         390.785   384.878   1.8% ||
   HMM T:                            5.907     5.907   0.0% |
  Subspace diag:                  2268.548     0.052   0.0% |
   calc_h_matrix:                  924.761   587.872   2.7% ||
    Apply H:                       336.888   330.861   1.5% ||
     HMM T:                          6.028     6.028   0.0% |
   diagonalize:                    205.691   205.691   1.0% |
   rotate_psi:                    1138.045  1138.045   5.3% |-|
  calc. matrices:                 5311.190  4695.017  21.7% |--------|
   Apply H:                        616.172   604.285   2.8% ||
    HMM T:                          11.888    11.888   0.1% |
  diagonalize:                    3584.821  3584.821  16.6% |------|
  rotate_psi:                     2415.336  2415.336  11.2% |---|
 Density:                          323.584     0.004   0.0% |
  Atomic density matrices:           3.805     3.805   0.0% |
  Mix:                             143.797   143.797   0.7% |
  Multipole moments:                 0.103     0.103   0.0% |
  Pseudo density:                  175.876   175.869   0.8% |
   Symmetrize density:               0.007     0.007   0.0% |
 Hamiltonian:                      254.139     1.605   0.0% |
  Atomic:                           57.242     0.265   0.0% |
   XC Correction:                   56.977    56.977   0.3% |
  Calculate atomic Hamiltonians:   122.338   122.338   0.6% |
  Communicate:                      17.922    17.922   0.1% |
  Poisson:                           5.407     5.407   0.0% |
  XC 3D grid:                       49.625    49.625   0.2% |
 Orthonormalize:                    17.167     0.000   0.0% |
  calc_s_matrix:                     2.096     2.096   0.0% |
  inverse-cholesky:                  0.815     0.815   0.0% |
  projections:                      10.549    10.549   0.0% |
  rotate_psi_s:                      3.707     3.707   0.0% |
Set symmetry:                        0.001     0.001   0.0% |
Other:                               7.439     7.439   0.0% |
-----------------------------------------------------------
Total:                                     21649.935 100.0%

Date: Mon Apr 17 16:56:15 2023
