
  ___ ___ ___ _ _ _  
 |   |   |_  | | | | 
 | | | | | . | | | | 
 |__ |  _|___|_____|  22.8.0
 |___|_|             

User:   c.zeng@d0111
Date:   Mon Apr 17 20:38:30 2023
Arch:   x86_64
Pid:    124736
CWD:    /home/c.zeng/projects/hea-corrosion/hea-mlp/data-curation/surface-md/dft-jobs/80
Python: 3.8.1
gpaw:   /home/c.zeng/usr/installs/gpaw/source/gpaw-22.8.0/gpaw
_gpaw:  /home/c.zeng/usr/installs/gpaw/source/gpaw-22.8.0/
        _gpaw.cpython-38-x86_64-linux-gnu.so
ase:    /home/c.zeng/.local/lib/python3.8/site-packages/ase-3.22.1-py3.8.egg/ase (version 3.22.1)
numpy:  /home/c.zeng/.local/lib/python3.8/site-packages/numpy (version 1.24.2)
scipy:  /home/c.zeng/.local/lib/python3.8/site-packages/scipy (version 1.10.1)
libxc:  4.2.3
units:  Angstrom and eV
cores: 30
OpenMP: False
OMP_NUM_THREADS: 1

Input parameters:
  convergence: {energy: 0.0001}
  kpts: [2 2 1]
  maxiter: 666
  mode: {ecut: 350.0,
         name: pw}
  occupations: {fixmagmom: False,
                name: fermi-dirac,
                width: 0.1}
  poissonsolver: {dipolelayer: xy}
  spinpol: True
  symmetry: {point_group: False}
  xc: PBE

System changes: positions, numbers, cell, pbc, initial_charges, initial_magmoms 

Initialize ...

species:
  Co:
    name: Cobalt
    id: 339d20d5b0b93d2de9531a1bee871d91
    Z: 27.0
    valence: 9
    core: 18
    charge: 0.0
    file: /home/c.zeng/usr/data/gpaw-setups-0.9.20000/Co.PBE.gz
    compensation charges: {type: gauss,
                           rc: 0.32,
                           lmax: 2}
    cutoffs: {filter: 1.87,
              core: 2.55}
    valence states:
      #              energy  rcut
      - 4s(2.00)    -5.469   1.005
      - 4p(0.00)    -1.277   1.058
      - 3d(7.00)    -8.205   1.005
      -  s          21.742   1.005
      -  p          25.934   1.058
      -  d          19.007   1.005
  
    # Using partial waves for Co as LCAO basis

  Fe:
    name: Iron
    id: 37abbd8d6c3c35915a9b583b742da910
    Z: 26.0
    valence: 8
    core: 18
    charge: 0.0
    file: /home/c.zeng/usr/data/gpaw-setups-0.9.20000/Fe.PBE.gz
    compensation charges: {type: gauss,
                           rc: 0.33,
                           lmax: 2}
    cutoffs: {filter: 2.06,
              core: 2.67}
    valence states:
      #              energy  rcut
      - 4s(2.00)    -5.291   1.164
      - 4p(0.00)    -1.326   1.058
      - 3d(6.00)    -7.505   1.058
      -  s          21.920   1.164
      -  p          25.885   1.058
      -  d          19.706   1.058
  
    # Using partial waves for Fe as LCAO basis

  Al:
    name: Aluminium
    id: 0292cae29f5d6237e50f6abdd43a7bdd
    Z: 13.0
    valence: 3
    core: 10
    charge: 0.0
    file: /home/c.zeng/usr/data/gpaw-setups-0.9.20000/Al.PBE.gz
    compensation charges: {type: gauss,
                           rc: 0.34,
                           lmax: 2}
    cutoffs: {filter: 1.91,
              core: 2.36}
    valence states:
      #              energy  rcut
      - 3s(2.00)    -7.753   1.085
      - 3p(1.00)    -2.712   1.085
      -  s          19.459   1.085
      -  p          24.499   1.085
      -  d           0.000   1.085
  
    # Using partial waves for Al as LCAO basis

  Cr:
    name: Chromium
    id: 33f258bda2ca9f93018e70263a35547b
    Z: 24.0
    valence: 6
    core: 18
    charge: 0.0
    file: /home/c.zeng/usr/data/gpaw-setups-0.9.20000/Cr.PBE.gz
    compensation charges: {type: gauss,
                           rc: 0.35,
                           lmax: 2}
    cutoffs: {filter: 2.14,
              core: 3.04}
    valence states:
      #              energy  rcut
      - 4s(1.00)    -4.007   1.164
      - 4p(0.00)    -0.989   1.217
      - 3d(5.00)    -2.913   1.111
      -  s          23.205   1.164
      -  p          26.223   1.217
      -  d          24.299   1.111
  
    # Using partial waves for Cr as LCAO basis

  Ni:
    name: Nickel
    id: 0d9f38a9d6e76a2886f07bb4381f212b
    Z: 28.0
    valence: 16
    core: 12
    charge: 0.0
    file: /home/c.zeng/usr/data/gpaw-setups-0.9.20000/Ni.PBE.gz
    compensation charges: {type: gauss,
                           rc: 0.36,
                           lmax: 2}
    cutoffs: {filter: 2.14,
              core: 1.98}
    valence states:
      #              energy  rcut
      - 4s(2.00)    -5.642   1.164
      - 3p(6.00)   -71.394   1.207
      - 4p(0.00)    -1.226   1.207
      - 3d(8.00)    -8.875   1.138
      -  s          21.570   1.164
      -  d          18.337   1.138
  
    # Using partial waves for Ni as LCAO basis

Reference energy: -3726899.091688  # eV

Spin-polarized calculation.
Magnetic moment: 140.000000

Convergence criteria:
 Maximum [total energy] change in last 3 cyles: 0.0001 eV / electron
 Maximum integral of absolute [dens]ity change: 0.0001 electrons / valence electron
 Maximum integral of absolute [eigenst]ate change: 4e-08 eV^2 / valence electron
 Maximum number of scf [iter]ations: 666
 (Square brackets indicate name in SCF output, whereas a 'c' in
 the SCF output indicates the quantity has converged.)

Symmetries present (total): 1

  ( 1  0  0)
  ( 0  1  0)
  ( 0  0  1)

4 k-points: 2 x 2 x 1 Monkhorst-Pack grid
2 k-points in the irreducible part of the Brillouin zone
       k-points in crystal coordinates                weights
   0:     0.25000000   -0.25000000    0.00000000          2/4
   1:     0.25000000    0.25000000    0.00000000          2/4

Wave functions: Plane wave expansion
  Cutoff energy: 350.000 eV
  Number of coefficients (min, max): 60935, 60955
  Pulay-stress correction: 0.000000 eV/Ang^3 (de/decut=0.000000)
  Using FFTW library
  ScaLapack parameters: grid=1x1, blocksize=None
  Wavefunction extrapolation:
    Improved wavefunction reuse through dual PAW basis 

Occupation numbers: Fermi-Dirac:
  width: 0.1000  # eV
 

Eigensolver
   Davidson(niter=2) 

Densities:
  Coarse grid: 56*56*128 grid
  Fine grid: 112*112*256 grid
  Total Charge: 0.000000 

Density mixing:
  Method: difference
  Backend: pulay
  Linear mixing parameter: 0.05
  old densities: 5
  Damping of long wavelength oscillations: 50 

Hamiltonian:
  XC and Coulomb potentials evaluated on a 112*112*256 grid
  Using the PBE Exchange-Correlation functional
  External potential:
    NoExternalPotential
 

XC parameters: PBE with 2 nearest neighbor stencil

Memory estimate:
  Process memory now: 368.11 MiB
  Calculator: 2131.41 MiB
    Density: 19.02 MiB
      Arrays: 7.39 MiB
      Localized functions: 8.68 MiB
      Mixer: 2.95 MiB
    Hamiltonian: 5.75 MiB
      Arrays: 5.49 MiB
      XC: 0.00 MiB
      Poisson: 0.00 MiB
      vbar: 0.26 MiB
    Wavefunctions: 2106.64 MiB
      Arrays psit_nG: 1335.62 MiB
      Eigensolver: 751.15 MiB
      Projections: 3.10 MiB
      Projectors: 1.18 MiB
      PW-descriptor: 15.59 MiB

Total number of cores used: 30
Parallelization over k-points: 2
Domain decomposition: 1 x 3 x 5

Number of atoms: 125
Number of atomic orbitals: 1075
Number of bands in calculation: 718
Number of valence electrons: 1050
Bands to converge: occupied

... initialized

Initializing position-dependent things.

Density initialized from atomic densities
Creating initial wave functions:
  718 bands from LCAO basis set

                                                                  
                                                                  
                                                                  
                                                                  
                          Cr     Cr          Cr    Al             
                                  Ni                              
                      Fe    Ni          Fe     Fe                 
                       Ni    CAl   NFe    Cr    Al                
                   Al    Fe     Al    Ni Al Ni        Cr          
        Cr               Co    FeCr  Al    Ni    Co               
              Fe    CNi   FAl   Ni    Co    CNi                   
               CFe    Cr    Co Ni Fe    Al        Cr              
                     Cr    Fe   ACrAl  Al     Fe         Al       
           Co   CNi    CFe   Fe    Ni    Al                       
                     Fe Co  NiCo  Ni Cr Ni    Al                  
            Cr   FCr   Cr   NiFeNiCrNi    Cr          Ni          
        Co   ACr    Co  ANNi   CCo    Cr Al     Al                
                   Fe      Al    Co Cr Al Ni     Fe               
              Ni   FeNi   Co    Co    Al    Fe                    
                Al     Fe   CCr   Co    Fe                        
          Fe   CoCo  Al            Co                             
                       Fe    Co                                   
                                                                  
                                                                  
                                                                  
                                                                  
                                                                  

Positions:
   0 Co    12.533214    1.530622   10.707678    ( 0.0000,  0.0000,  2.1000)
   1 Fe     2.352468    1.389169   10.641798    ( 0.0000,  0.0000,  2.0000)
   2 Co     4.910583    1.468329   10.595169    ( 0.0000,  0.0000,  2.1000)
   3 Fe     7.357829    1.618972   10.148513    ( 0.0000,  0.0000,  2.0000)
   4 Co    10.042924    1.622314   10.447119    ( 0.0000,  0.0000,  2.1000)
   5 Fe    13.936858    3.610522   10.459737    ( 0.0000,  0.0000,  2.0000)
   6 Co     3.816494    3.624322   10.286943    ( 0.0000,  0.0000,  2.1000)
   7 Al     6.253740    3.744236   10.163974    ( 0.0000,  0.0000,  0.0000)
   8 Co     8.920261    3.826830   10.640776    ( 0.0000,  0.0000,  2.1000)
   9 Co    11.491535    3.695470   10.631408    ( 0.0000,  0.0000,  2.1000)
  10 Fe    15.121912    5.931029   10.258214    ( 0.0000,  0.0000,  2.0000)
  11 Fe     4.857965    5.982742   10.566372    ( 0.0000,  0.0000,  2.0000)
  12 Co     7.450210    5.908626   10.784260    ( 0.0000,  0.0000,  2.1000)
  13 Co     9.897726    5.931819   10.653892    ( 0.0000,  0.0000,  2.1000)
  14 Al    12.625201    5.795321   10.194686    ( 0.0000,  0.0000,  0.0000)
  15 Fe    16.473945    8.090623   10.469635    ( 0.0000,  0.0000,  2.0000)
  16 Al     6.350816    8.053617   10.612065    ( 0.0000,  0.0000,  0.0000)
  17 Co     8.903837    8.134462   10.588075    ( 0.0000,  0.0000,  2.1000)
  18 Cr    11.333976    7.978955   10.416849    ( 0.0000,  0.0000,  0.0000)
  19 Ni    13.783965    8.002905   10.345651    ( 0.0000,  0.0000,  1.5000)
  20 Ni    17.806422   10.280324   10.456890    ( 0.0000,  0.0000,  1.5000)
  21 Ni     7.435636   10.268743   10.659779    ( 0.0000,  0.0000,  1.5000)
  22 Cr     9.972950   10.207934   10.592988    ( 0.0000,  0.0000,  0.0000)
  23 Al    12.543122   10.270468    9.836568    ( 0.0000,  0.0000,  0.0000)
  24 Al    15.258498   10.449657    9.872869    ( 0.0000,  0.0000,  0.0000)
  25 Al    18.923665   10.969165   12.577822    ( 0.0000,  0.0000,  0.0000)
  26 Al     8.829403   10.910360   12.711011    ( 0.0000,  0.0000,  0.0000)
  27 Al     5.109444    0.086109   12.485926    ( 0.0000,  0.0000,  0.0000)
  28 Fe     7.696095    0.115136   12.017999    ( 0.0000,  0.0000,  2.0000)
  29 Cr    10.019278    0.184542   12.574354    ( 0.0000,  0.0000,  0.0000)
  30 Al    13.811141    2.238101   12.680365    ( 0.0000,  0.0000,  0.0000)
  31 Ni     3.631592    2.240651   12.408262    ( 0.0000,  0.0000,  1.5000)
  32 Ni     6.339701    2.304919   12.372489    ( 0.0000,  0.0000,  1.5000)
  33 Al     8.739003    2.404214   12.633329    ( 0.0000,  0.0000,  0.0000)
  34 Co    11.322238    2.251022   12.720073    ( 0.0000,  0.0000,  2.1000)
  35 Al     2.683341    4.501513   12.420202    ( 0.0000,  0.0000,  0.0000)
  36 Fe     5.071977    4.427511   12.262938    ( 0.0000,  0.0000,  2.0000)
  37 Ni     7.528946    4.545361   12.563677    ( 0.0000,  0.0000,  1.5000)
  38 Co    10.245957    4.465150   12.675805    ( 0.0000,  0.0000,  2.1000)
  39 Cr    12.681446    4.488159   12.480177    ( 0.0000,  0.0000,  0.0000)
  40 Fe     3.860057    6.592538   12.710088    ( 0.0000,  0.0000,  2.0000)
  41 Cr     6.248890    6.540186   12.762971    ( 0.0000,  0.0000,  0.0000)
  42 Fe     8.916630    6.519093   12.599148    ( 0.0000,  0.0000,  2.0000)
  43 Ni    11.601265    6.566821   12.442558    ( 0.0000,  0.0000,  1.5000)
  44 Cr    13.961661    6.557767   12.446109    ( 0.0000,  0.0000,  0.0000)
  45 Fe     4.950547    8.818948   12.426660    ( 0.0000,  0.0000,  2.0000)
  46 Ni     7.673143    8.654869   12.645914    ( 0.0000,  0.0000,  1.5000)
  47 Ni    10.225707    8.692699   12.556347    ( 0.0000,  0.0000,  1.5000)
  48 Ni    12.753518    8.799937   12.395056    ( 0.0000,  0.0000,  1.5000)
  49 Al    15.210547    8.820859   12.589263    ( 0.0000,  0.0000,  0.0000)
  50 Co     1.374812    0.709065   14.702358    ( 0.0000,  0.0000,  2.1000)
  51 Cr     3.925883    0.835383   14.669374    ( 0.0000,  0.0000,  0.0000)
  52 Co     6.331205    0.852141   14.548976    ( 0.0000,  0.0000,  2.1000)
  53 Ni     8.773494    0.750719   14.559633    ( 0.0000,  0.0000,  1.5000)
  54 Ni    11.317329    0.681169   14.995710    ( 0.0000,  0.0000,  1.5000)
  55 Cr     2.571445    2.850138   14.627323    ( 0.0000,  0.0000,  0.0000)
  56 Cr     5.108454    3.062339   14.421110    ( 0.0000,  0.0000,  0.0000)
  57 Co     7.466537    2.931129   14.726799    ( 0.0000,  0.0000,  2.1000)
  58 Co    10.133529    2.935726   14.777416    ( 0.0000,  0.0000,  2.1000)
  59 Cr    12.650052    2.840981   14.857292    ( 0.0000,  0.0000,  0.0000)
  60 Cr     3.820840    5.138987   14.671735    ( 0.0000,  0.0000,  0.0000)
  61 Co     6.491023    5.031577   14.860236    ( 0.0000,  0.0000,  2.1000)
  62 Co     8.932116    4.875800   14.572846    ( 0.0000,  0.0000,  2.1000)
  63 Ni    11.441195    5.199195   14.686790    ( 0.0000,  0.0000,  1.5000)
  64 Al    13.946618    5.162616   14.692756    ( 0.0000,  0.0000,  0.0000)
  65 Cr     5.071179    7.210032   14.721846    ( 0.0000,  0.0000,  0.0000)
  66 Fe     7.727796    7.199771   14.630212    ( 0.0000,  0.0000,  2.0000)
  67 Cr    10.112633    7.143335   14.566324    ( 0.0000,  0.0000,  0.0000)
  68 Al    12.648300    7.386692   14.439810    ( 0.0000,  0.0000,  0.0000)
  69 Fe    15.154165    7.490584   14.736542    ( 0.0000,  0.0000,  2.0000)
  70 Cr     6.593278    9.424524   14.774436    ( 0.0000,  0.0000,  0.0000)
  71 Ni     8.950000    9.379556   14.675863    ( 0.0000,  0.0000,  1.5000)
  72 Co    11.409900    9.481545   14.726400    ( 0.0000,  0.0000,  2.1000)
  73 Co    13.839576    9.575088   14.681374    ( 0.0000,  0.0000,  2.1000)
  74 Cr    16.555161    9.413938   14.590648    ( 0.0000,  0.0000,  0.0000)
  75 Al    12.541325    1.419505   16.932919    ( 0.0000,  0.0000,  0.0000)
  76 Co     2.745911    1.403595   16.693172    ( 0.0000,  0.0000,  2.1000)
  77 Ni     5.043237    1.447632   16.780495    ( 0.0000,  0.0000,  1.5000)
  78 Fe     7.684865    1.561955   16.686332    ( 0.0000,  0.0000,  2.0000)
  79 Fe    10.035169    1.445022   16.864510    ( 0.0000,  0.0000,  2.0000)
  80 Al    13.877796    3.798552   17.025279    ( 0.0000,  0.0000,  0.0000)
  81 Cr     3.778381    3.656703   16.665340    ( 0.0000,  0.0000,  0.0000)
  82 Cr     6.456527    3.567883   16.782120    ( 0.0000,  0.0000,  0.0000)
  83 Co     8.903764    3.666265   16.820870    ( 0.0000,  0.0000,  2.1000)
  84 Fe    11.276703    3.720981   16.803989    ( 0.0000,  0.0000,  2.0000)
  85 Ni    15.267695    5.973164   16.752788    ( 0.0000,  0.0000,  1.5000)
  86 Cr     5.078261    5.839532   16.765706    ( 0.0000,  0.0000,  0.0000)
  87 Fe     7.753579    5.853324   16.787650    ( 0.0000,  0.0000,  2.0000)
  88 Ni    10.136352    5.698466   16.819214    ( 0.0000,  0.0000,  1.5000)
  89 Co    12.590444    5.920375   16.900230    ( 0.0000,  0.0000,  2.1000)
  90 Co    16.582252    8.040553   16.831168    ( 0.0000,  0.0000,  2.1000)
  91 Co     6.564677    7.861525   16.728319    ( 0.0000,  0.0000,  2.1000)
  92 Fe     8.913983    8.235090   16.806556    ( 0.0000,  0.0000,  2.0000)
  93 Al    11.383067    7.952066   16.967748    ( 0.0000,  0.0000,  0.0000)
  94 Ni    13.998248    8.125926   16.775901    ( 0.0000,  0.0000,  1.5000)
  95 Cr    18.077934   10.113098   16.642992    ( 0.0000,  0.0000,  0.0000)
  96 Co     7.847356   10.263882   16.838737    ( 0.0000,  0.0000,  2.1000)
  97 Ni    10.167672   10.312849   16.776912    ( 0.0000,  0.0000,  1.5000)
  98 Al    12.594166   10.163975   16.689438    ( 0.0000,  0.0000,  0.0000)
  99 Al    15.372970   10.251681   16.694547    ( 0.0000,  0.0000,  0.0000)
 100 Cr     6.539090   10.928922   18.908178    ( 0.0000,  0.0000,  0.0000)
 101 Cr     9.068121   11.023828   18.813766    ( 0.0000,  0.0000,  0.0000)
 102 Fe     4.993726    0.051901   18.835904    ( 0.0000,  0.0000,  2.0000)
 103 Cr    14.040825   11.037103   19.302746    ( 0.0000,  0.0000,  0.0000)
 104 Al    16.475623   10.933514   19.071241    ( 0.0000,  0.0000,  0.0000)
 105 Cr     1.335950    2.048363   19.033782    ( 0.0000,  0.0000,  0.0000)
 106 Fe     3.765423    2.171082   18.817417    ( 0.0000,  0.0000,  2.0000)
 107 Ni     6.404484    2.083119   18.728135    ( 0.0000,  0.0000,  1.5000)
 108 Al     8.755385    2.130424   18.939400    ( 0.0000,  0.0000,  0.0000)
 109 Cr    11.471303    2.014391   19.031982    ( 0.0000,  0.0000,  0.0000)
 110 Ni    15.403733    4.342511   18.852907    ( 0.0000,  0.0000,  1.5000)
 111 Al     5.202228    4.278272   19.075134    ( 0.0000,  0.0000,  0.0000)
 112 Fe     7.623595    4.422544   18.818972    ( 0.0000,  0.0000,  2.0000)
 113 Al    10.255731    4.414636   19.031165    ( 0.0000,  0.0000,  0.0000)
 114 Ni    12.757805    4.315296   19.154258    ( 0.0000,  0.0000,  1.5000)
 115 Al    16.568816    6.591597   19.006673    ( 0.0000,  0.0000,  0.0000)
 116 Ni     6.368550    6.609202   18.761117    ( 0.0000,  0.0000,  1.5000)
 117 Al     8.930488    6.671030   18.990362    ( 0.0000,  0.0000,  0.0000)
 118 Fe    11.540472    6.577067   19.080021    ( 0.0000,  0.0000,  2.0000)
 119 Cr    14.016617    6.587930   18.826431    ( 0.0000,  0.0000,  0.0000)
 120 Fe     5.071691    8.963171   18.670364    ( 0.0000,  0.0000,  2.0000)
 121 Ni     7.634233    8.772724   18.770741    ( 0.0000,  0.0000,  1.5000)
 122 Ni    10.147863    8.891243   18.990242    ( 0.0000,  0.0000,  1.5000)
 123 Fe    12.768226    8.722367   18.830020    ( 0.0000,  0.0000,  2.0000)
 124 Fe    15.215020    8.921514   18.683605    ( 0.0000,  0.0000,  2.0000)

Unit cell:
           periodic     x           y           z      points  spacing
  1. axis:    yes   12.688900    0.000000    0.000000    56     0.1962
  2. axis:    yes    6.352870   11.003500    0.000000    56     0.1965
  3. axis:    no     0.000000    0.000000   29.353100   128     0.2293

  Lengths:  12.688900  12.705746  29.353100
  Angles:   90.000000  90.000000  60.000014

Effective grid spacing dv^(1/3) = 0.2169

     iter     time        total  log10-change:  magmom
                         energy  eigst   dens
iter:   1 20:46:47 -1098.721263                  +140.3334
iter:   2 20:49:34  -985.525013  -0.08  -1.10    +74.3859
iter:   3 20:52:20 -1433.618599  -0.09  -1.09    +69.2611
iter:   4 20:55:08 -1143.920903  +0.01  -0.86    +59.7407
iter:   5 20:57:55  -966.693901  -1.01  -0.98    +46.5868
iter:   6 21:00:42  -933.447376  -1.55  -1.18    +42.6299
iter:   7 21:03:29  -922.245443  -1.70  -1.24    +42.3681
iter:   8 21:06:17  -916.972652  -1.44  -1.28    +45.5801
iter:   9 21:09:04  -898.472296  -1.12  -1.33    +45.1768
iter:  10 21:11:51  -895.981714  -1.57  -1.41    +46.6154
iter:  11 21:14:39  -913.242016  -1.48  -1.46    +49.5547
iter:  12 21:17:27  -977.066086  -1.38  -1.41    +48.7453
iter:  13 21:20:49  -896.781128  -1.57  -1.18    +45.8072
iter:  14 21:24:13  -891.207796  -2.00  -1.58    +46.5211
iter:  15 21:27:01  -892.271039  -2.08  -1.66    +48.5557
iter:  16 21:29:49  -889.903575  -2.10  -1.68    +49.6020
iter:  17 21:32:38  -888.931817  -2.44  -1.72    +50.5609
iter:  18 21:35:27  -984.587695  -1.56  -1.76    +52.1106
iter:  19 21:38:16  -900.322920  -1.53  -1.18    +51.6573
iter:  20 21:41:06  -891.769062  -2.28  -1.59    +50.4644
iter:  21 21:43:54  -889.547983  -2.62  -1.73    +50.7384
iter:  22 21:46:44  -892.267684  -2.66  -1.83    +52.2670
iter:  23 21:49:34  -890.765231  -2.85  -1.77    +53.0057
iter:  24 21:52:22  -894.599708  -2.07  -1.83    +53.9855
iter:  25 21:55:11  -890.308665  -2.37  -1.79    +54.9464
iter:  26 21:58:00  -893.799620  -2.52  -1.96    +55.7362
iter:  27 22:00:50  -892.750322  -2.65  -1.83    +56.1067
iter:  28 22:03:38  -891.477420  -2.51  -1.93    +56.7495
iter:  29 22:06:26  -891.157691  -2.71  -2.07    +57.3036
iter:  30 22:09:15  -891.735039  -2.92  -2.10    +57.6293
iter:  31 22:12:05  -891.359422  -2.95  -2.11    +57.9797
iter:  32 22:14:54  -891.485199  -3.03  -2.22    +58.3681
iter:  33 22:17:42  -891.287314  -3.21  -2.21    +58.8312
iter:  34 22:20:30  -891.408201  -3.34  -2.31    +59.2300
iter:  35 22:23:18  -891.483423  -3.66  -2.34    +59.2467
iter:  36 22:26:07  -891.524013  -3.86  -2.35    +59.4321
iter:  37 22:28:57  -891.680394  -3.52  -2.38    +59.3125
iter:  38 22:32:20  -891.698729  -3.64  -2.39    +59.3190
iter:  39 22:35:48  -891.723836c -3.55  -2.43    +59.1907
iter:  40 22:38:37  -891.855661  -3.54  -2.50    +59.0981
iter:  41 22:41:26  -892.211867  -3.35  -2.51    +59.0295
iter:  42 22:44:16  -891.812508  -4.00  -2.30    +58.8686
iter:  43 22:47:04  -891.827748  -3.86  -2.62    +58.8080
iter:  44 22:49:53  -891.871486c -4.10  -2.69    +58.5818
iter:  45 22:52:43  -891.884930c -4.24  -2.65    +58.5130
iter:  46 22:55:31  -891.892515c -4.33  -2.70    +58.4243
iter:  47 22:58:21  -892.810487  -3.33  -2.75    +58.3281
iter:  48 23:01:10  -891.970900  -3.56  -2.21    +58.3061
iter:  49 23:03:59  -891.925070  -4.31  -2.67    +58.2689
iter:  50 23:06:48  -891.958531c -4.24  -2.90    +58.1352
iter:  51 23:09:38  -891.961121c -4.29  -2.89    +58.1012
iter:  52 23:12:26  -891.980070c -4.37  -2.96    +58.0782
iter:  53 23:15:15  -892.012573c -4.56  -2.98    +57.9802
iter:  54 23:18:03  -892.145189  -4.07  -2.92    +57.9248
iter:  55 23:20:52  -892.025427  -4.53  -2.60    +57.8350
iter:  56 23:23:41  -892.063438  -4.52  -3.05    +57.7512
iter:  57 23:26:30  -892.167551  -3.74  -3.01    +57.5189
iter:  58 23:29:19  -892.254684  -3.43  -2.91    +57.2230
iter:  59 23:32:08  -892.278818  -3.97  -2.81    +57.1059
iter:  60 23:34:57  -892.275009c -4.66  -2.79    +57.1177
iter:  61 23:37:46  -892.287764c -4.70  -2.80    +57.0420
iter:  62 23:40:34  -892.289578c -4.66  -2.80    +56.9592
iter:  63 23:43:23  -892.379936c -3.70  -2.80    +56.9343
iter:  64 23:46:12  -892.352515c -3.70  -2.60    +56.8267
iter:  65 23:49:01  -892.254328  -4.27  -2.58    +56.5165
iter:  66 23:51:50  -892.424210  -4.09  -2.82    +56.4401
iter:  67 23:54:39  -892.271340  -4.26  -2.52    +56.3831
iter:  68 23:57:28  -892.278713  -4.45  -2.79    +56.4514
iter:  69 00:00:48  -892.268684c -4.35  -2.77    +56.3750
iter:  70 00:04:15  -892.426134  -3.66  -2.81    +56.4313
iter:  71 00:07:04  -892.299037  -3.96  -2.56    +56.4855
iter:  72 00:09:53  -892.380737  -3.94  -2.73    +56.4283
iter:  73 00:12:42  -892.281790c -4.02  -2.60    +56.4816
iter:  74 00:15:32  -892.244759  -4.36  -2.83    +56.3972
iter:  75 00:18:22  -892.242379c -4.88  -3.04    +56.5000
iter:  76 00:21:11  -892.249986c -4.97  -3.10    +56.5210
iter:  77 00:23:59  -892.262757c -4.66  -3.05    +56.5602
iter:  78 00:26:47  -892.253550c -4.95  -2.96    +56.5985
iter:  79 00:29:35  -892.265590c -4.64  -3.06    +56.6047
iter:  80 00:33:17  -892.264661c -4.55  -3.00    +56.6364
iter:  81 00:36:23  -892.256550c -4.57  -3.09    +56.6102
iter:  82 00:39:13  -892.258039c -4.90  -3.18    +56.6988
iter:  83 00:42:02  -892.277543c -4.59  -3.21    +56.7715
iter:  84 00:44:52  -892.254829c -5.06  -2.95    +56.7711
iter:  85 00:47:42  -892.253051c -5.54  -3.30    +56.8475
iter:  86 00:50:32  -892.254735c -5.67  -3.46    +56.8934
iter:  87 00:53:20  -892.257726c -5.55  -3.47    +56.9448
iter:  88 00:56:10  -892.256715c -5.57  -3.47    +56.9330
iter:  89 00:58:59  -892.257913c -5.41  -3.57    +56.9548
iter:  90 01:01:48  -892.259132c -5.51  -3.64    +56.9522
iter:  91 01:04:38  -892.259775c -5.61  -3.63    +56.9834
iter:  92 01:07:28  -892.262183c -5.74  -3.80    +56.9878
iter:  93 01:10:17  -892.261597c -5.77  -3.50    +57.0373
iter:  94 01:13:06  -892.263083c -5.87  -3.92    +57.0732
iter:  95 01:15:56  -892.264582c -5.99  -3.97    +57.0965
iter:  96 01:18:44  -892.264187c -6.44  -3.95    +57.0988
iter:  97 01:21:32  -892.265847c -5.98  -3.96    +57.1173
iter:  98 01:24:21  -892.265758c -6.43  -3.98    +57.1033
iter:  99 01:27:10  -892.267900c -5.79  -3.77    +57.1585
iter: 100 01:29:59  -892.268196c -6.49  -3.85    +57.1662
iter: 101 01:32:49  -892.271239c -5.64  -3.89    +57.2121
iter: 102 01:35:38  -892.267170c -5.66  -3.85    +57.1429
iter: 103 01:39:26  -892.250124c -4.02  -3.95    +56.7575
iter: 104 01:42:25  -892.249927c -4.76  -3.71    +56.6896
iter: 105 01:45:14  -892.249186c -5.51  -3.60    +56.6889
iter: 106 01:48:03  -892.250066c -6.00  -3.68    +56.7053
iter: 107 01:50:53  -892.249894c -6.12  -3.67    +56.7070
iter: 108 01:53:43  -892.265698c -5.06  -3.71    +56.7121
iter: 109 01:56:33  -892.252564c -4.95  -3.09    +56.7308
iter: 110 01:59:22  -892.249849c -5.65  -3.47    +56.7804
iter: 111 02:02:11  -892.251696c -5.74  -3.86    +56.8310
iter: 112 02:05:00  -892.250940c -6.23  -3.85    +56.8284
iter: 113 02:07:48  -892.252211c -5.95  -3.94    +56.8745
iter: 114 02:10:38  -892.254247c -5.90  -4.04c   +56.8903
iter: 115 02:13:26  -892.253270c -6.08  -3.58    +56.8944
iter: 116 02:16:15  -892.254367c -5.95  -3.87    +56.9291
iter: 117 02:19:05  -892.254977c -6.04  -4.10c   +56.9489
iter: 118 02:21:54  -892.255934c -6.19  -4.12c   +56.9649
iter: 119 02:24:43  -892.256344c -6.45  -4.15c   +56.9830
iter: 120 02:27:32  -892.257737c -6.18  -4.22c   +56.9782
iter: 121 02:30:22  -892.257972c -6.22  -3.81    +57.0105
iter: 122 02:33:12  -892.259054c -6.18  -4.22c   +57.0279
iter: 123 02:36:01  -892.254093c -5.18  -4.26c   +56.9228
iter: 124 02:38:51  -892.249386c -4.80  -4.10c   +56.7682
iter: 125 02:41:39  -892.246543c -4.68  -3.79    +56.5719
iter: 126 02:44:28  -892.245967c -4.96  -3.61    +56.4466
iter: 127 02:47:17  -892.246994c -5.51  -3.55    +56.5619
iter: 128 02:50:07  -892.247281c -6.09  -3.62    +56.5644
iter: 129 02:52:56  -892.247344c -6.01  -3.64    +56.5632
iter: 130 02:55:44  -892.278791c -4.77  -3.69    +56.5673
iter: 131 02:58:42  -892.246597c -5.11  -2.95    +56.5707
iter: 132 03:02:25  -892.265060c -4.90  -3.74    +56.5973
iter: 133 03:05:16  -892.246050c -5.50  -3.06    +56.6009
iter: 134 03:08:05  -892.247018c -5.96  -3.87    +56.6358
iter: 135 03:10:54  -892.247814c -6.08  -3.97    +56.6642
iter: 136 03:13:44  -892.248920c -5.89  -4.07c   +56.7010
iter: 137 03:16:32  -892.249416c -6.16  -3.91    +56.7235
iter: 138 03:19:21  -892.250457c -6.08  -4.22c   +56.7519
iter: 139 03:22:10  -892.250489c -6.50  -4.05c   +56.7519
iter: 140 03:24:59  -892.251226c -6.20  -4.01c   +56.7869
iter: 141 03:28:36  -892.251117c -7.04  -4.30c   +56.7779
iter: 142 03:31:46  -892.251787c -6.34  -4.24c   +56.7853
iter: 143 03:34:35  -892.251237c -6.26  -4.30c   +56.7972
iter: 144 03:37:24  -892.251577c -5.79  -4.35c   +56.8394
iter: 145 03:40:12  -892.252569c -6.25  -3.98    +56.8447
iter: 146 03:43:01  -892.251824c -5.73  -4.04c   +56.8606
iter: 147 03:45:49  -892.252475c -5.97  -3.80    +56.8988
iter: 148 03:48:37  -892.251407c -5.65  -3.75    +56.8262
iter: 149 03:51:27  -892.251076c -4.84  -4.04c   +56.6915
iter: 150 03:54:15  -892.253043c -5.87  -3.83    +56.7244
iter: 151 03:57:04  -892.251959c -6.17  -3.60    +56.7198
iter: 152 03:59:53  -892.253097c -6.22  -3.87    +56.7534
iter: 153 04:02:41  -892.253892c -6.15  -3.83    +56.7781
iter: 154 04:05:30  -892.257489c -5.14  -3.86    +56.7442
iter: 155 04:08:19  -892.255718c -5.26  -3.31    +56.8143
iter: 156 04:11:08  -892.255894c -5.65  -3.63    +56.8744
iter: 157 04:13:58  -892.257683c -5.76  -4.09c   +56.9042
iter: 158 04:16:46  -892.258257c -6.05  -3.72    +56.9238
iter: 159 04:19:35  -892.259646c -6.03  -4.01c   +56.9527
iter: 160 04:22:24  -892.249965c -4.49  -3.98    +56.6759
iter: 161 04:25:13  -892.255419c -5.12  -3.60    +56.8571
iter: 162 04:28:27  -892.255499c -6.22  -4.27c   +56.8555
iter: 163 04:31:58  -892.257140c -5.98  -4.24c   +56.8951
iter: 164 04:34:47  -892.251367c -5.04  -4.26c   +56.7581
iter: 165 04:37:36  -892.245692c -4.51  -4.08c   +56.5191
iter: 166 04:40:26  -892.244465c -4.64  -3.65    +56.3379
iter: 167 04:43:15  -892.244913c -5.70  -3.45    +56.3624
iter: 168 04:46:03  -892.245148c -6.04  -3.56    +56.3644
iter: 169 04:48:51  -892.245417c -5.89  -3.59    +56.3633
iter: 170 04:51:40  -892.244610c -5.85  -3.58    +56.3681
iter: 171 04:54:29  -892.250417c -4.94  -3.54    +56.3639
iter: 172 04:57:18  -892.268178c -4.58  -3.23    +56.3862
iter: 173 05:00:07  -892.244556c -5.03  -2.98    +56.4226
iter: 174 05:02:55  -892.246549c -5.33  -3.68    +56.4293
iter: 175 05:05:44  -892.247181c -5.66  -3.74    +56.4558
iter: 176 05:08:33  -892.248105c -5.50  -3.73    +56.5158
iter: 177 05:11:22  -892.250421c -5.56  -3.88    +56.5607
iter: 178 05:14:10  -892.251749c -5.41  -3.63    +56.6182
iter: 179 05:16:58  -892.250460c -5.67  -3.47    +56.6416
iter: 180 05:19:47  -892.251384c -5.65  -3.71    +56.6386
iter: 181 05:22:36  -892.252953c -5.42  -3.63    +56.6592
iter: 182 05:26:00  -892.251315c -5.80  -3.62    +56.6850
iter: 183 05:29:24  -892.251567c -5.85  -3.83    +56.7139
iter: 184 05:32:13  -892.251647c -6.29  -3.80    +56.7177
iter: 185 05:35:02  -892.252445c -6.29  -4.03c   +56.7378
iter: 186 05:37:51  -892.252250c -6.25  -3.87    +56.7229
iter: 187 05:40:40  -892.253141c -5.96  -3.84    +56.7582
iter: 188 05:43:29  -892.252897c -6.34  -3.88    +56.7575
iter: 189 05:46:17  -892.253521c -6.42  -4.23c   +56.7734
iter: 190 05:49:05  -892.254159c -6.37  -4.15c   +56.7867
iter: 191 05:51:54  -892.253417c -6.42  -4.06c   +56.7549
iter: 192 05:54:44  -892.254656c -6.03  -4.03c   +56.8004
iter: 193 05:57:33  -892.254811c -6.52  -4.16c   +56.8011
iter: 194 06:00:22  -892.255381c -6.67  -4.30c   +56.8192
iter: 195 06:03:11  -892.255482c -6.77  -4.17c   +56.8191
iter: 196 06:05:33  -892.255296c -5.50  -4.25c   +56.8350
iter: 197 06:07:53  -892.256438c -6.02  -3.91    +56.8553
iter: 198 06:10:12  -892.255665c -5.87  -3.82    +56.8602
iter: 199 06:12:32  -892.255838c -6.14  -3.83    +56.8978
iter: 200 06:14:52  -892.255414c -5.75  -3.80    +56.8183
iter: 201 06:17:12  -892.255988c -5.47  -4.03c   +56.7812
iter: 202 06:19:32  -892.256043c -5.59  -3.92    +56.8471
iter: 203 06:21:51  -892.256805c -5.55  -3.93    +56.9096
iter: 204 06:24:11  -892.256431c -5.64  -3.77    +56.8525
iter: 205 06:26:31  -892.257975c -5.58  -4.04c   +56.8601
iter: 206 06:28:51  -892.257213c -5.97  -3.76    +56.8899
iter: 207 06:31:11  -892.258339c -6.00  -3.96    +56.9391
iter: 208 06:33:30  -892.257900c -6.35  -3.96    +56.8954
iter: 209 06:35:50  -892.258288c -5.50  -4.10c   +56.8330
iter: 210 06:38:10  -892.259394c -5.42  -3.93    +56.9474
iter: 211 06:40:29  -892.260785c -5.86  -3.90    +56.9930
iter: 212 06:42:49  -892.259746c -6.58  -3.81    +56.9663
iter: 213 06:45:09  -892.260203c -5.91  -3.92    +56.9532
iter: 214 06:47:29  -892.261168c -5.81  -3.82    +56.9803
iter: 215 06:49:49  -892.262977c -5.56  -3.84    +56.9692
iter: 216 06:52:09  -892.261921c -5.81  -3.50    +56.9887
iter: 217 06:54:29  -892.264954c -5.59  -3.97    +57.0130
iter: 218 06:56:48  -892.263834c -6.15  -3.55    +57.0268
iter: 219 06:59:08  -892.269675c -5.31  -3.80    +57.0620
iter: 220 07:01:28  -892.264857c -5.65  -3.33    +57.0536
iter: 221 07:03:48  -892.266884c -5.58  -3.85    +57.0771
iter: 222 07:06:07  -892.265647c -5.99  -3.75    +57.0522
iter: 223 07:08:27  -892.267522c -5.84  -3.91    +57.0450
iter: 224 07:10:46  -892.266914c -6.00  -3.59    +57.0761
iter: 225 07:13:06  -892.269151c -5.80  -4.01c   +57.0995
iter: 226 07:15:26  -892.269780c -6.24  -3.84    +57.1145
iter: 227 07:17:46  -892.270605c -6.31  -3.94    +57.1176
iter: 228 07:20:05  -892.270618c -6.57  -3.89    +57.1111
iter: 229 07:22:25  -892.274428c -5.70  -3.89    +57.1703
iter: 230 07:24:45  -892.272263c -5.98  -3.52    +57.1516
iter: 231 07:27:05  -892.274281c -5.69  -3.88    +57.1784
iter: 232 07:29:24  -892.273609c -5.40  -3.88    +57.1270
iter: 233 07:31:44  -892.276698c -5.42  -3.57    +57.1878
iter: 234 07:34:04  -892.275361c -6.10  -3.74    +57.1678
iter: 235 07:36:23  -892.276900c -5.89  -3.80    +57.2316
iter: 236 07:38:43  -892.280180c -5.63  -3.92    +57.2516
iter: 237 07:41:03  -892.279625c -5.58  -3.54    +57.2581
iter: 238 07:43:23  -892.280950c -5.71  -3.71    +57.2670
iter: 239 07:45:42  -892.284758c -5.57  -4.00c   +57.2846
iter: 240 07:48:02  -892.284084c -5.90  -3.57    +57.2963
iter: 241 07:50:22  -892.286220c -5.85  -3.95    +57.3206
iter: 242 07:52:42  -892.286756c -6.10  -3.99    +57.3174
iter: 243 07:55:01  -892.289859c -5.64  -3.82    +57.3534
iter: 244 07:57:21  -892.287958c -5.75  -3.87    +57.3208
iter: 245 07:59:41  -892.297577c -5.34  -3.76    +57.3145
iter: 246 08:02:01  -892.290625c -5.80  -3.24    +57.3300
iter: 247 08:04:21  -892.293391c -5.62  -3.89    +57.3660
iter: 248 08:06:40  -892.295141c -5.82  -3.78    +57.3864
iter: 249 08:09:01  -892.296662c -5.76  -3.78    +57.4152
iter: 250 08:11:20  -892.299715c -5.46  -3.83    +57.4445
iter: 251 08:13:40  -892.300458c -5.98  -3.64    +57.4405
iter: 252 08:16:00  -892.303623c -5.61  -3.73    +57.4459
iter: 253 08:18:19  -892.303648c -5.79  -3.53    +57.4496
iter: 254 08:20:39  -892.306069c -5.50  -3.71    +57.4649
iter: 255 08:22:59  -892.309969c -5.20  -3.69    +57.4812
iter: 256 08:25:19  -892.308302c -5.42  -3.44    +57.4953
iter: 257 08:27:38  -892.308432c -5.79  -3.57    +57.4775
iter: 258 08:29:58  -892.309721c -5.96  -3.82    +57.4766
iter: 259 08:32:18  -892.311893c -5.79  -3.88    +57.4866
iter: 260 08:34:37  -892.314157c -5.65  -3.66    +57.4843
iter: 261 08:36:57  -892.312845c -5.65  -3.50    +57.5029
iter: 262 08:39:17  -892.314480c -5.78  -3.91    +57.5101
iter: 263 08:41:36  -892.317246c -5.42  -4.00    +57.5247
iter: 264 08:43:56  -892.317943c -5.90  -3.93    +57.5153
iter: 265 08:46:16  -892.320074c -5.69  -3.89    +57.5083
iter: 266 08:48:36  -892.320200c -6.38  -3.79    +57.5106
iter: 267 08:50:55  -892.322610c -5.83  -3.81    +57.5141
iter: 268 08:53:15  -892.320535c -5.90  -3.73    +57.5054
iter: 269 08:55:35  -892.323329c -5.55  -3.65    +57.5145
iter: 270 08:57:55  -892.324330c -5.65  -3.74    +57.5112
iter: 271 09:00:14  -892.324455c -5.75  -3.53    +57.5185
iter: 272 09:02:34  -892.324900c -5.92  -3.73    +57.5271
iter: 273 09:04:54  -892.325291c -5.80  -3.92    +57.5148
iter: 274 09:07:14  -892.325827c -6.14  -3.77    +57.5113
iter: 275 09:09:34  -892.326868c -5.85  -4.08c   +57.5126
iter: 276 09:11:53  -892.327131c -6.26  -3.87    +57.5087
iter: 277 09:14:13  -892.327941c -6.13  -4.02c   +57.4990
iter: 278 09:16:33  -892.328840c -6.19  -4.18c   +57.5007
iter: 279 09:18:53  -892.329333c -6.34  -4.10c   +57.4998
iter: 280 09:21:13  -892.330435c -6.10  -4.26c   +57.4985
iter: 281 09:23:33  -892.330418c -6.63  -3.94    +57.4977
iter: 282 09:25:52  -892.331410c -6.25  -4.29c   +57.4960
iter: 283 09:28:12  -892.331814c -6.46  -4.18c   +57.4973
iter: 284 09:30:32  -892.333141c -5.89  -4.22c   +57.4846
iter: 285 09:32:52  -892.333228c -6.65  -4.20c   +57.4937
iter: 286 09:35:11  -892.334178c -6.24  -4.24c   +57.4979
iter: 287 09:37:31  -892.334278c -6.69  -4.09c   +57.5003
iter: 288 09:39:51  -892.335210c -6.25  -4.30c   +57.5059
iter: 289 09:42:10  -892.332861c -5.71  -4.16c   +57.4805
iter: 290 09:44:30  -892.334445c -6.14  -4.21c   +57.4931
iter: 291 09:46:50  -892.334364c -6.91  -4.13c   +57.4919
iter: 292 09:49:10  -892.335129c -6.39  -4.21c   +57.5026
iter: 293 09:51:30  -892.336077c -6.19  -4.45c   +57.5123
iter: 294 09:53:49  -892.340431c -5.06  -4.47c   +57.5484
iter: 295 09:56:09  -892.338645c -6.18  -3.81    +57.5334
iter: 296 09:58:28  -892.338420c -6.66  -3.98    +57.5162
iter: 297 10:00:48  -892.339142c -6.49  -4.12c   +57.5291
iter: 298 10:03:08  -892.342867c -5.14  -4.15c   +57.5902
iter: 299 10:05:28  -892.348038c -4.68  -4.00c   +57.6851
iter: 300 10:07:47  -892.352471c -4.78  -3.82    +57.7541
iter: 301 10:10:07  -892.348853c -5.52  -3.47    +57.7015
iter: 302 10:12:27  -892.349638c -6.15  -3.77    +57.7204
iter: 303 10:14:47  -892.351907c -5.57  -3.74    +57.7550
iter: 304 10:17:06  -892.353108c -5.56  -3.54    +57.7330
iter: 305 10:19:26  -892.351124c -5.41  -3.35    +57.7766
iter: 306 10:21:46  -892.350986c -5.99  -3.64    +57.7534
iter: 307 10:24:05  -892.353157c -5.32  -3.61    +57.7682
iter: 308 10:26:25  -892.350046c -5.37  -3.34    +57.7559
iter: 309 10:28:45  -892.349065c -5.65  -3.68    +57.7226
iter: 310 10:31:05  -892.349536c -6.11  -3.68    +57.6690
iter: 311 10:33:24  -892.348114c -6.11  -3.59    +57.6380
iter: 312 10:35:45  -892.348824c -6.08  -3.80    +57.6304
iter: 313 10:38:04  -892.348463c -5.96  -3.87    +57.6333
iter: 314 10:40:24  -892.348220c -6.28  -3.80    +57.6253
iter: 315 10:42:43  -892.348797c -5.81  -3.84    +57.6068
iter: 316 10:45:03  -892.349810c -5.83  -3.82    +57.6152
iter: 317 10:47:23  -892.348678c -5.96  -3.53    +57.6319
iter: 318 10:49:42  -892.347728c -6.43  -3.82    +57.6018
iter: 319 10:52:02  -892.348131c -6.36  -4.05c   +57.5965
iter: 320 10:54:22  -892.348000c -6.55  -4.01c   +57.5968
iter: 321 10:56:41  -892.347810c -7.21  -4.04c   +57.5967
iter: 322 10:59:01  -892.348259c -6.43  -4.26c   +57.5899
iter: 323 11:01:21  -892.347938c -6.68  -3.95    +57.5934
iter: 324 11:03:40  -892.348020c -6.82  -4.05c   +57.6017
iter: 325 11:06:00  -892.347753c -7.15  -4.30c   +57.5943
iter: 326 11:08:20  -892.347798c -6.84  -4.39c   +57.5918
iter: 327 11:10:40  -892.347826c -7.14  -4.16c   +57.5910
iter: 328 11:13:00  -892.347776c -7.38  -4.29c   +57.5917
iter: 329 11:15:19  -892.347767c -7.43c -4.23c   +57.5909

Converged after 329 iterations.

Dipole moment: (37.433668, 19.294057, 0.008799) |e|*Ang

Total magnetic moment: (0.000000, 0.000000, 57.590887)
Local magnetic moments:
   0 Co ( 0.000000,  0.000000,  1.303216)
   1 Fe ( 0.000000,  0.000000,  2.437492)
   2 Co ( 0.000000,  0.000000,  1.087127)
   3 Fe ( 0.000000,  0.000000,  2.605872)
   4 Co ( 0.000000,  0.000000,  1.477049)
   5 Fe ( 0.000000,  0.000000,  2.406504)
   6 Co ( 0.000000,  0.000000,  1.486261)
   7 Al ( 0.000000,  0.000000, -0.062252)
   8 Co ( 0.000000,  0.000000,  1.569510)
   9 Co ( 0.000000,  0.000000,  1.283493)
  10 Fe ( 0.000000,  0.000000,  2.526846)
  11 Fe ( 0.000000,  0.000000,  2.313067)
  12 Co ( 0.000000,  0.000000,  1.212118)
  13 Co ( 0.000000,  0.000000,  1.494078)
  14 Al ( 0.000000,  0.000000, -0.040001)
  15 Fe ( 0.000000,  0.000000,  2.458756)
  16 Al ( 0.000000,  0.000000, -0.042830)
  17 Co ( 0.000000,  0.000000,  1.077547)
  18 Cr ( 0.000000,  0.000000, -2.499108)
  19 Ni ( 0.000000,  0.000000,  0.061342)
  20 Ni ( 0.000000,  0.000000,  0.294557)
  21 Ni ( 0.000000,  0.000000,  0.184654)
  22 Cr ( 0.000000,  0.000000, -2.511091)
  23 Al ( 0.000000,  0.000000,  0.005642)
  24 Al ( 0.000000,  0.000000, -0.036973)
  25 Al ( 0.000000,  0.000000, -0.021836)
  26 Al ( 0.000000,  0.000000, -0.009005)
  27 Al ( 0.000000,  0.000000, -0.011751)
  28 Fe ( 0.000000,  0.000000,  2.104132)
  29 Cr ( 0.000000,  0.000000, -1.818529)
  30 Al ( 0.000000,  0.000000, -0.027890)
  31 Ni ( 0.000000,  0.000000,  0.261321)
  32 Ni ( 0.000000,  0.000000,  0.337123)
  33 Al ( 0.000000,  0.000000, -0.037408)
  34 Co ( 0.000000,  0.000000,  0.993032)
  35 Al ( 0.000000,  0.000000, -0.029146)
  36 Fe ( 0.000000,  0.000000,  2.102410)
  37 Ni ( 0.000000,  0.000000,  0.423979)
  38 Co ( 0.000000,  0.000000,  1.307536)
  39 Cr ( 0.000000,  0.000000,  1.089655)
  40 Fe ( 0.000000,  0.000000,  1.697263)
  41 Cr ( 0.000000,  0.000000, -1.481166)
  42 Fe ( 0.000000,  0.000000,  2.294969)
  43 Ni ( 0.000000,  0.000000,  0.020939)
  44 Cr ( 0.000000,  0.000000, -1.729029)
  45 Fe ( 0.000000,  0.000000,  1.677771)
  46 Ni ( 0.000000,  0.000000,  0.223845)
  47 Ni ( 0.000000,  0.000000,  0.050584)
  48 Ni ( 0.000000,  0.000000,  0.037097)
  49 Al ( 0.000000,  0.000000, -0.027683)
  50 Co ( 0.000000,  0.000000, -0.387731)
  51 Cr ( 0.000000,  0.000000,  0.839126)
  52 Co ( 0.000000,  0.000000,  1.178809)
  53 Ni ( 0.000000,  0.000000,  0.194699)
  54 Ni ( 0.000000,  0.000000,  0.096635)
  55 Cr ( 0.000000,  0.000000, -0.190520)
  56 Cr ( 0.000000,  0.000000, -1.009845)
  57 Co ( 0.000000,  0.000000,  0.992989)
  58 Co ( 0.000000,  0.000000,  1.353370)
  59 Cr ( 0.000000,  0.000000, -1.873102)
  60 Cr ( 0.000000,  0.000000, -0.360416)
  61 Co ( 0.000000,  0.000000,  0.706453)
  62 Co ( 0.000000,  0.000000,  1.549026)
  63 Ni ( 0.000000,  0.000000,  0.110849)
  64 Al ( 0.000000,  0.000000,  0.008337)
  65 Cr ( 0.000000,  0.000000,  0.251352)
  66 Fe ( 0.000000,  0.000000,  1.847146)
  67 Cr ( 0.000000,  0.000000, -2.041014)
  68 Al ( 0.000000,  0.000000, -0.012742)
  69 Fe ( 0.000000,  0.000000,  1.564738)
  70 Cr ( 0.000000,  0.000000,  0.960298)
  71 Ni ( 0.000000,  0.000000,  0.254296)
  72 Co ( 0.000000,  0.000000,  0.744085)
  73 Co ( 0.000000,  0.000000,  1.308071)
  74 Cr ( 0.000000,  0.000000,  1.327763)
  75 Al ( 0.000000,  0.000000, -0.005719)
  76 Co ( 0.000000,  0.000000,  0.545595)
  77 Ni ( 0.000000,  0.000000,  0.235046)
  78 Fe ( 0.000000,  0.000000,  2.151259)
  79 Fe ( 0.000000,  0.000000,  1.829709)
  80 Al ( 0.000000,  0.000000, -0.004366)
  81 Cr ( 0.000000,  0.000000,  1.245722)
  82 Cr ( 0.000000,  0.000000, -1.585184)
  83 Co ( 0.000000,  0.000000,  1.315062)
  84 Fe ( 0.000000,  0.000000,  2.193489)
  85 Ni ( 0.000000,  0.000000,  0.157631)
  86 Cr ( 0.000000,  0.000000, -1.230754)
  87 Fe ( 0.000000,  0.000000,  2.298544)
  88 Ni ( 0.000000,  0.000000,  0.362751)
  89 Co ( 0.000000,  0.000000,  0.972887)
  90 Co ( 0.000000,  0.000000,  1.056812)
  91 Co ( 0.000000,  0.000000,  1.068567)
  92 Fe ( 0.000000,  0.000000,  2.413840)
  93 Al ( 0.000000,  0.000000, -0.039871)
  94 Ni ( 0.000000,  0.000000,  0.350083)
  95 Cr ( 0.000000,  0.000000, -1.484950)
  96 Co ( 0.000000,  0.000000,  0.871735)
  97 Ni ( 0.000000,  0.000000,  0.299150)
  98 Al ( 0.000000,  0.000000, -0.039712)
  99 Al ( 0.000000,  0.000000, -0.016073)
 100 Cr ( 0.000000,  0.000000,  1.961678)
 101 Cr ( 0.000000,  0.000000, -1.957359)
 102 Fe ( 0.000000,  0.000000,  2.462123)
 103 Cr ( 0.000000,  0.000000, -3.067858)
 104 Al ( 0.000000,  0.000000, -0.027448)
 105 Cr ( 0.000000,  0.000000, -2.490464)
 106 Fe ( 0.000000,  0.000000,  2.194195)
 107 Ni ( 0.000000,  0.000000,  0.155602)
 108 Al ( 0.000000,  0.000000, -0.015462)
 109 Cr ( 0.000000,  0.000000, -2.753106)
 110 Ni ( 0.000000,  0.000000,  0.154770)
 111 Al ( 0.000000,  0.000000, -0.024535)
 112 Fe ( 0.000000,  0.000000,  2.316614)
 113 Al ( 0.000000,  0.000000, -0.022317)
 114 Ni ( 0.000000,  0.000000,  0.157367)
 115 Al ( 0.000000,  0.000000, -0.007130)
 116 Ni ( 0.000000,  0.000000,  0.241756)
 117 Al ( 0.000000,  0.000000, -0.039823)
 118 Fe ( 0.000000,  0.000000,  2.554470)
 119 Cr ( 0.000000,  0.000000, -2.686020)
 120 Fe ( 0.000000,  0.000000,  2.049978)
 121 Ni ( 0.000000,  0.000000,  0.341262)
 122 Ni ( 0.000000,  0.000000,  0.288589)
 123 Fe ( 0.000000,  0.000000,  2.342974)
 124 Fe ( 0.000000,  0.000000,  2.019943)

Energy contributions relative to reference atoms: (reference = -3726899.091688)

Kinetic:       +372.941597
Potential:     -350.654454
External:        +0.000000
XC:            -947.594974
Entropy (-ST):   -4.790436
Local:          +35.355281
--------------------------
Free energy:   -894.742985
Extrapolated:  -892.347767

Dipole-layer corrected work functions: 4.782290, 4.770886 eV

Spin contamination: 41.015610 electrons
Showing all kpts
                      Up                     Down
 Kpt  Band  Eigenvalues  Occupancy  Eigenvalues  Occupancy
  0   523     -0.00888    0.99365      0.79701    0.04714
  0   524      0.01187    0.99220      0.80563    0.04342
  0   525      0.02776    0.99086      0.81477    0.03978
  0   526      0.02947    0.99071      0.82294    0.03678

  1   523     -0.02273    0.99447      0.79620    0.04751
  1   524     -0.00907    0.99366      0.80389    0.04415
  1   525      0.00796    0.99249      0.81877    0.03828
  1   526      0.02316    0.99127      0.82746    0.03521


Fermi level: 0.49639

No gap

Forces in eV/Ang:
  0 Co    0.18377   -0.22325   -0.42693
  1 Fe    0.05608   -0.02798   -0.98591
  2 Co    0.37897    0.00238   -1.61167
  3 Fe    0.95013   -0.95469    0.51174
  4 Co   -0.06180   -0.02767    0.87636
  5 Fe    0.30150    0.11569   -0.09959
  6 Co   -0.74866    0.09429    0.54162
  7 Al    0.41559    0.53807   -0.07835
  8 Co   -0.37063   -0.35904   -0.32094
  9 Co   -0.95115   -0.38325    0.24059
 10 Fe    0.45658    0.03845    0.71296
 11 Fe    0.19731   -0.39495   -0.74053
 12 Co    0.12808    0.30243   -1.48081
 13 Co    0.92235   -0.31833   -0.55990
 14 Al   -0.31962   -0.12707   -0.49436
 15 Fe   -0.51515    0.19164   -0.12219
 16 Al    0.42613    0.33793   -1.10897
 17 Co   -0.28480   -0.63058    0.24336
 18 Cr   -0.25668    0.26978    0.27756
 19 Ni    0.77616    0.41676   -0.09551
 20 Ni   -1.38148    0.42659   -0.13292
 21 Ni    0.90438    0.14052    0.00005
 22 Cr   -0.06826    0.61310   -1.38185
 23 Al   -0.03532    0.16714    0.57098
 24 Al    0.47207   -0.41415    0.37971
 25 Al   -0.50914   -0.37615    1.17706
 26 Al    0.11921   -0.41695    0.44404
 27 Al    0.86425   -0.75363    0.90396
 28 Fe   -0.07465    0.01605    0.91293
 29 Cr    0.19934   -0.87279   -0.69615
 30 Al    0.27448    0.01954   -0.30893
 31 Ni    0.50414    0.00830    1.16121
 32 Ni   -0.09983   -0.19274    0.48245
 33 Al    0.35905    0.03207   -0.04695
 34 Co   -0.24630   -0.26882   -0.11566
 35 Al   -0.49065   -1.04227   -0.20795
 36 Fe    0.60128   -0.23940    1.27205
 37 Ni    0.13265   -1.47779    1.16498
 38 Co   -0.15984   -0.19257   -0.65290
 39 Cr    0.27691   -0.10988    0.81006
 40 Fe   -0.84757    0.96289   -0.18613
 41 Cr    0.10138    0.40145    0.58540
 42 Fe    0.14888    0.58969    0.15089
 43 Ni   -1.30588    0.14058   -0.00954
 44 Cr    0.68419    0.11955   -0.94813
 45 Fe    0.61276   -0.30375    1.27064
 46 Ni   -0.27313    0.28505   -0.15817
 47 Ni   -0.08331    0.46301    0.21733
 48 Ni   -0.46385    0.85044    0.23572
 49 Al   -0.99800    0.27258   -0.69615
 50 Co   -1.04471   -0.35479    0.44270
 51 Cr   -0.65894   -0.00269    1.06403
 52 Co    0.22354   -0.46762   -0.11938
 53 Ni    0.35581   -0.12404    0.20192
 54 Ni    0.06275    0.36763   -2.00111
 55 Cr    0.33977    0.80279    1.00498
 56 Cr   -0.24225   -0.32436    0.02665
 57 Co    0.48206   -0.33463   -0.11917
 58 Co    0.35280   -0.45465    0.02801
 59 Cr   -0.34803    0.41924   -0.77584
 60 Cr    0.91699   -0.04814   -0.13423
 61 Co   -0.79356    0.90020   -0.47457
 62 Co   -0.45390    0.89803    0.85400
 63 Ni    0.32586   -0.66041    0.21776
 64 Al    0.10586   -0.24831    0.54622
 65 Cr    0.32347    0.64195    0.57205
 66 Fe   -0.44428   -0.12221    0.53305
 67 Cr   -0.65789    0.76631    0.68292
 68 Al    0.03567    0.65092    1.14001
 69 Fe    0.50771   -0.80277   -0.07420
 70 Cr   -1.15816   -0.07547   -0.07307
 71 Ni    0.53649    0.63939    0.22487
 72 Co   -0.11056   -0.02877   -0.81486
 73 Co    0.57182    0.57595   -0.75091
 74 Cr    0.59476    0.34902    0.00230
 75 Al    1.62859    0.10333   -0.93631
 76 Co   -1.63943    0.57047    0.33388
 77 Ni    1.17614    0.28502   -0.50589
 78 Fe   -0.53967   -0.91580    0.08865
 79 Fe    0.51963    0.48044   -0.16209
 80 Al    0.22932   -0.01028   -0.06819
 81 Cr    1.01567    0.15604    0.11843
 82 Cr   -0.74960    0.40039   -0.11459
 83 Co   -0.41466   -0.33975   -0.22279
 84 Fe    1.28720   -0.95784   -0.11657
 85 Ni   -0.15433   -0.46263    0.02405
 86 Cr    0.35752    0.01598   -0.27735
 87 Fe   -0.29193   -0.45208   -0.35713
 88 Ni   -0.03078    1.63521   -0.17407
 89 Co    0.41827   -0.45320    0.07097
 90 Co    0.24065   -0.15748   -0.55518
 91 Co   -0.95200    0.87891   -0.29577
 92 Fe    0.19025   -1.34529   -0.35625
 93 Al   -0.71545   -0.10307   -0.77011
 94 Ni   -0.33677   -0.41338   -0.28805
 95 Cr   -0.66647   -1.02847    0.37263
 96 Co   -1.26314    0.57597   -0.41352
 97 Ni    0.97988   -0.57845   -0.58803
 98 Al    0.67070    1.57783    0.31923
 99 Al   -0.53953    0.07952   -0.72681
100 Cr   -0.44800    0.28026    0.27782
101 Cr   -0.19168   -0.70499   -0.08459
102 Fe    0.97746   -0.35256    0.16666
103 Cr   -2.15348   -1.83836   -0.60560
104 Al    1.31433   -0.01253    0.46984
105 Cr    0.35771    0.99125    0.37940
106 Fe    0.30658   -0.19153   -0.40365
107 Ni   -0.81129    0.43912    0.58749
108 Al    0.81967    1.93542    0.25164
109 Cr   -0.37785    1.19595    0.45490
110 Ni   -0.24015    0.41537   -0.06210
111 Al   -0.30029   -0.03098   -0.01902
112 Fe    0.24324   -0.03698   -0.42596
113 Al   -0.12150   -0.31969    0.25243
114 Ni   -0.12491   -0.07767   -0.86862
115 Al    0.09123    0.55223    0.11108
116 Ni   -0.27730   -0.29229    0.48643
117 Al   -0.23914    0.48489    0.03006
118 Fe    0.24193    0.17445   -0.29490
119 Cr   -0.77904    0.01116   -0.04378
120 Fe    0.48342   -1.58168   -0.06559
121 Ni   -0.21680    0.02390    0.32196
122 Ni    0.50243   -0.73678   -0.55625
123 Fe   -0.50932    0.58975    0.68683
124 Fe    0.32832   -1.14831    0.90745

Timing:                              incl.     excl.
-----------------------------------------------------------
Forces:                             42.207    42.207   0.1% |
Hamiltonian:                         3.166     0.025   0.0% |
 Atomic:                             0.447     0.002   0.0% |
  XC Correction:                     0.445     0.445   0.0% |
 Calculate atomic Hamiltonians:      1.738     1.738   0.0% |
 Communicate:                        0.066     0.066   0.0% |
 Initialize Hamiltonian:             0.002     0.002   0.0% |
 Poisson:                            0.292     0.292   0.0% |
 XC 3D grid:                         0.596     0.596   0.0% |
LCAO initialization:               307.864     0.669   0.0% |
 LCAO eigensolver:                  23.193     0.040   0.0% |
  Calculate projections:             0.000     0.000   0.0% |
  DenseAtomicCorrection:             0.000     0.000   0.0% |
  Distribute overlap matrix:        10.774    10.774   0.0% |
  Orbital Layouts:                  12.272    12.272   0.0% |
  Potential matrix:                  0.015     0.015   0.0% |
  Sum over cells:                    0.092     0.092   0.0% |
 LCAO to grid:                     280.788   280.788   0.5% |
 Set positions (LCAO WFS):           3.213     2.778   0.0% |
  Basic WFS set positions:           0.004     0.004   0.0% |
  Basis functions set positions:     0.001     0.001   0.0% |
  P tci:                             0.001     0.001   0.0% |
  ST tci:                            0.155     0.155   0.0% |
  mktci:                             0.274     0.274   0.0% |
PWDescriptor:                        0.210     0.210   0.0% |
SCF-cycle:                       52291.669   843.223   1.6% ||
 Davidson:                       49326.292 16226.807  30.8% |-----------|
  Apply H:                        1130.599  1107.499   2.1% ||
   HMM T:                           23.100    23.100   0.0% |
  Subspace diag:                  4827.418     0.332   0.0% |
   calc_h_matrix:                 2132.558  1166.743   2.2% ||
    Apply H:                       965.816   935.569   1.8% ||
     HMM T:                         30.246    30.246   0.1% |
   diagonalize:                    505.620   505.620   1.0% |
   rotate_psi:                    2188.908  2188.908   4.2% |-|
  calc. matrices:                11763.557  9986.024  19.0% |-------|
   Apply H:                       1777.533  1719.387   3.3% ||
    HMM T:                          58.147    58.147   0.1% |
  diagonalize:                   10463.056 10463.056  19.9% |-------|
  rotate_psi:                     4914.855  4914.855   9.3% |---|
 Density:                         1228.526     0.025   0.0% |
  Atomic density matrices:          10.298    10.298   0.0% |
  Mix:                             672.675   672.675   1.3% ||
  Multipole moments:                 0.322     0.322   0.0% |
  Pseudo density:                  545.206   545.181   1.0% |
   Symmetrize density:               0.025     0.025   0.0% |
 Hamiltonian:                      875.622     6.557   0.0% |
  Atomic:                          121.641     0.649   0.0% |
   XC Correction:                  120.991   120.991   0.2% |
  Calculate atomic Hamiltonians:   522.316   522.316   1.0% |
  Communicate:                      56.243    56.243   0.1% |
  Poisson:                          17.526    17.526   0.0% |
  XC 3D grid:                      151.339   151.339   0.3% |
 Orthonormalize:                    18.006     0.002   0.0% |
  calc_s_matrix:                     2.109     2.109   0.0% |
  inverse-cholesky:                  0.824     0.824   0.0% |
  projections:                      11.437    11.437   0.0% |
  rotate_psi_s:                      3.634     3.634   0.0% |
Set symmetry:                        0.001     0.001   0.0% |
Other:                              11.042    11.042   0.0% |
-----------------------------------------------------------
Total:                                     52656.159 100.0%

Date: Tue Apr 18 11:16:06 2023
