
  ___ ___ ___ _ _ _  
 |   |   |_  | | | | 
 | | | | | . | | | | 
 |__ |  _|___|_____|  22.8.0
 |___|_|             

User:   c.zeng@d0057
Date:   Mon Apr 17 12:50:44 2023
Arch:   x86_64
Pid:    226331
CWD:    /home/c.zeng/projects/hea-corrosion/hea-mlp/data-curation/surface-md/dft-jobs/47
Python: 3.8.1
gpaw:   /home/c.zeng/usr/installs/gpaw/source/gpaw-22.8.0/gpaw
_gpaw:  /home/c.zeng/usr/installs/gpaw/source/gpaw-22.8.0/
        _gpaw.cpython-38-x86_64-linux-gnu.so
ase:    /home/c.zeng/.local/lib/python3.8/site-packages/ase-3.22.1-py3.8.egg/ase (version 3.22.1)
numpy:  /home/c.zeng/.local/lib/python3.8/site-packages/numpy (version 1.24.2)
scipy:  /home/c.zeng/.local/lib/python3.8/site-packages/scipy (version 1.10.1)
libxc:  4.2.3
units:  Angstrom and eV
cores: 30
OpenMP: False
OMP_NUM_THREADS: 1

Input parameters:
  convergence: {energy: 0.0001}
  kpts: [2 2 1]
  maxiter: 666
  mode: {ecut: 350.0,
         name: pw}
  occupations: {fixmagmom: False,
                name: fermi-dirac,
                width: 0.1}
  poissonsolver: {dipolelayer: xy}
  spinpol: True
  symmetry: {point_group: False}
  xc: PBE

System changes: positions, numbers, cell, pbc, initial_charges, initial_magmoms 

Initialize ...

species:
  Al:
    name: Aluminium
    id: 0292cae29f5d6237e50f6abdd43a7bdd
    Z: 13.0
    valence: 3
    core: 10
    charge: 0.0
    file: /home/c.zeng/usr/data/gpaw-setups-0.9.20000/Al.PBE.gz
    compensation charges: {type: gauss,
                           rc: 0.34,
                           lmax: 2}
    cutoffs: {filter: 1.91,
              core: 2.36}
    valence states:
      #              energy  rcut
      - 3s(2.00)    -7.753   1.085
      - 3p(1.00)    -2.712   1.085
      -  s          19.459   1.085
      -  p          24.499   1.085
      -  d           0.000   1.085
  
    # Using partial waves for Al as LCAO basis

  Ni:
    name: Nickel
    id: 0d9f38a9d6e76a2886f07bb4381f212b
    Z: 28.0
    valence: 16
    core: 12
    charge: 0.0
    file: /home/c.zeng/usr/data/gpaw-setups-0.9.20000/Ni.PBE.gz
    compensation charges: {type: gauss,
                           rc: 0.36,
                           lmax: 2}
    cutoffs: {filter: 2.14,
              core: 1.98}
    valence states:
      #              energy  rcut
      - 4s(2.00)    -5.642   1.164
      - 3p(6.00)   -71.394   1.207
      - 4p(0.00)    -1.226   1.207
      - 3d(8.00)    -8.875   1.138
      -  s          21.570   1.164
      -  d          18.337   1.138
  
    # Using partial waves for Ni as LCAO basis

  Fe:
    name: Iron
    id: 37abbd8d6c3c35915a9b583b742da910
    Z: 26.0
    valence: 8
    core: 18
    charge: 0.0
    file: /home/c.zeng/usr/data/gpaw-setups-0.9.20000/Fe.PBE.gz
    compensation charges: {type: gauss,
                           rc: 0.33,
                           lmax: 2}
    cutoffs: {filter: 2.06,
              core: 2.67}
    valence states:
      #              energy  rcut
      - 4s(2.00)    -5.291   1.164
      - 4p(0.00)    -1.326   1.058
      - 3d(6.00)    -7.505   1.058
      -  s          21.920   1.164
      -  p          25.885   1.058
      -  d          19.706   1.058
  
    # Using partial waves for Fe as LCAO basis

  Cr:
    name: Chromium
    id: 33f258bda2ca9f93018e70263a35547b
    Z: 24.0
    valence: 6
    core: 18
    charge: 0.0
    file: /home/c.zeng/usr/data/gpaw-setups-0.9.20000/Cr.PBE.gz
    compensation charges: {type: gauss,
                           rc: 0.35,
                           lmax: 2}
    cutoffs: {filter: 2.14,
              core: 3.04}
    valence states:
      #              energy  rcut
      - 4s(1.00)    -4.007   1.164
      - 4p(0.00)    -0.989   1.217
      - 3d(5.00)    -2.913   1.111
      -  s          23.205   1.164
      -  p          26.223   1.217
      -  d          24.299   1.111
  
    # Using partial waves for Cr as LCAO basis

  Co:
    name: Cobalt
    id: 339d20d5b0b93d2de9531a1bee871d91
    Z: 27.0
    valence: 9
    core: 18
    charge: 0.0
    file: /home/c.zeng/usr/data/gpaw-setups-0.9.20000/Co.PBE.gz
    compensation charges: {type: gauss,
                           rc: 0.32,
                           lmax: 2}
    cutoffs: {filter: 1.87,
              core: 2.55}
    valence states:
      #              energy  rcut
      - 4s(2.00)    -5.469   1.005
      - 4p(0.00)    -1.277   1.058
      - 3d(7.00)    -8.205   1.005
      -  s          21.742   1.005
      -  p          25.934   1.058
      -  d          19.007   1.005
  
    # Using partial waves for Co as LCAO basis

Reference energy: -4103091.665053  # eV

Spin-polarized calculation.
Magnetic moment: 158.800000

Convergence criteria:
 Maximum [total energy] change in last 3 cyles: 0.0001 eV / electron
 Maximum integral of absolute [dens]ity change: 0.0001 electrons / valence electron
 Maximum integral of absolute [eigenst]ate change: 4e-08 eV^2 / valence electron
 Maximum number of scf [iter]ations: 666
 (Square brackets indicate name in SCF output, whereas a 'c' in
 the SCF output indicates the quantity has converged.)

Symmetries present (total): 1

  ( 1  0  0)
  ( 0  1  0)
  ( 0  0  1)

4 k-points: 2 x 2 x 1 Monkhorst-Pack grid
2 k-points in the irreducible part of the Brillouin zone
       k-points in crystal coordinates                weights
   0:     0.25000000   -0.25000000    0.00000000          2/4
   1:     0.25000000    0.25000000    0.00000000          2/4

Wave functions: Plane wave expansion
  Cutoff energy: 350.000 eV
  Number of coefficients (min, max): 59263, 59339
  Pulay-stress correction: 0.000000 eV/Ang^3 (de/decut=0.000000)
  Using FFTW library
  ScaLapack parameters: grid=1x1, blocksize=None
  Wavefunction extrapolation:
    Improved wavefunction reuse through dual PAW basis 

Occupation numbers: Fermi-Dirac:
  width: 0.1000  # eV
 

Eigensolver
   Davidson(niter=2) 

Densities:
  Coarse grid: 56*56*128 grid
  Fine grid: 112*112*256 grid
  Total Charge: 0.000000 

Density mixing:
  Method: difference
  Backend: pulay
  Linear mixing parameter: 0.05
  old densities: 5
  Damping of long wavelength oscillations: 50 

Hamiltonian:
  XC and Coulomb potentials evaluated on a 112*112*256 grid
  Using the PBE Exchange-Correlation functional
  External potential:
    NoExternalPotential
 

XC parameters: PBE with 2 nearest neighbor stencil

Memory estimate:
  Process memory now: 380.50 MiB
  Calculator: 2263.81 MiB
    Density: 18.78 MiB
      Arrays: 7.39 MiB
      Localized functions: 8.44 MiB
      Mixer: 2.95 MiB
    Hamiltonian: 5.74 MiB
      Arrays: 5.49 MiB
      XC: 0.00 MiB
      Poisson: 0.00 MiB
      vbar: 0.26 MiB
    Wavefunctions: 2239.28 MiB
      Arrays psit_nG: 1414.30 MiB
      Eigensolver: 804.77 MiB
      Projections: 3.48 MiB
      Projectors: 1.15 MiB
      PW-descriptor: 15.58 MiB

Total number of cores used: 30
Parallelization over k-points: 2
Domain decomposition: 1 x 3 x 5

Number of atoms: 125
Number of atomic orbitals: 1149
Number of bands in calculation: 781
Number of valence electrons: 1136
Bands to converge: occupied

... initialized

Initializing position-dependent things.

Density initialized from atomic densities
Creating initial wave functions:
  781 bands from LCAO basis set

                                                                      
                                                                      
                                                                      
                                                                      
                                                       Ni             
                                                 Co                   
                          Fe    Co    Ni                              
                           Ni     Ni    Ni  Cr     CFe                
                       Cr        Ni     Co    Cr    Co    Ni          
                 Fe          Cr    Co      CoFe       Fe              
            Fe     Fe   ACo    Cr   Fer Al      Ni                    
               Co    Cr   Ni  CAl     Fe  Co      Ni   Al             
       Co           Cr    Ni    Fe  CrNi  AlCo  Cr Co                 
               Fe     Cr    Cr  Fei      Fe Ni   Cr      Fe           
                           Co     Cr  CoCr    Cr                      
                 Ni     Ni   Co  CoNi Fe  FeCo     AlNi               
             Co    Ni        Cr   Fe  NiNi    Col    Ni     Cr        
                         Al    Co   Ni  Co Fe    Fe    Ni             
                    Cr  CrCr Cr Al Al  Fe CoFe Fe                     
         Fe    Fe                    Cr    Cr     Ni                  
                     Fe  Cr     CFe    Ni     Cr                      
                 Ni  Fe    Co             Al                          
                             Cr    Ni                                 
                      Fe                                              
                                                                      
                                                                      
                                                                      
                                                                      
                                                                      

Positions:
   0 Al    13.149350    1.096433   10.800540    ( 0.0000,  0.0000,  0.0000)
   1 Ni     3.227123    1.372071   10.422358    ( 0.0000,  0.0000,  1.5000)
   2 Fe     5.056489    1.792071    8.855083    ( 0.0000,  0.0000,  2.0000)
   3 Cr     7.821698    1.579168    9.929954    ( 0.0000,  0.0000,  0.0000)
   4 Ni    10.521947    1.105273    9.904364    ( 0.0000,  0.0000,  1.5000)
   5 Cr    14.270170    3.613723   10.542259    ( 0.0000,  0.0000,  0.0000)
   6 Fe     4.140331    3.564020   10.654797    ( 0.0000,  0.0000,  2.0000)
   7 Co     6.422226    3.801270    9.376181    ( 0.0000,  0.0000,  2.1000)
   8 Fe     8.842478    3.558932   10.228527    ( 0.0000,  0.0000,  2.0000)
   9 Ni    11.449342    3.320779   10.510453    ( 0.0000,  0.0000,  1.5000)
  10 Ni    15.197783    5.881275   10.317626    ( 0.0000,  0.0000,  1.5000)
  11 Cr     5.438089    5.646133   10.797327    ( 0.0000,  0.0000,  0.0000)
  12 Co     7.992569    5.683450    9.576639    ( 0.0000,  0.0000,  2.1000)
  13 Cr    10.128311    5.711223   10.267132    ( 0.0000,  0.0000,  0.0000)
  14 Cr    12.627777    5.290419   10.331193    ( 0.0000,  0.0000,  0.0000)
  15 Ni    16.588879    7.708087   10.240313    ( 0.0000,  0.0000,  1.5000)
  16 Co     7.081541    7.652021   11.026378    ( 0.0000,  0.0000,  2.1000)
  17 Al     8.808504    7.833779    9.435257    ( 0.0000,  0.0000,  0.0000)
  18 Co    11.462585    7.738358    9.624500    ( 0.0000,  0.0000,  2.1000)
  19 Fe    13.645265    7.706329   10.166082    ( 0.0000,  0.0000,  2.0000)
  20 Cr    18.188348    9.732493   10.474023    ( 0.0000,  0.0000,  0.0000)
  21 Fe     7.991002    9.745834   10.866405    ( 0.0000,  0.0000,  2.0000)
  22 Co    10.015552    9.983899    9.772860    ( 0.0000,  0.0000,  2.1000)
  23 Al    12.725388   10.108741    9.851367    ( 0.0000,  0.0000,  0.0000)
  24 Ni    15.316891    9.933349   10.167849    ( 0.0000,  0.0000,  1.5000)
  25 Fe     0.336336   -0.113083   12.887773    ( 0.0000,  0.0000,  2.0000)
  26 Fe     2.792664   -0.253043   12.996352    ( 0.0000,  0.0000,  2.0000)
  27 Fe     4.913996   -0.058744   11.820638    ( 0.0000,  0.0000,  2.0000)
  28 Cr    13.620369   10.984895   11.801594    ( 0.0000,  0.0000,  0.0000)
  29 Fe    16.616432   10.877704   12.186600    ( 0.0000,  0.0000,  2.0000)
  30 Fe    13.959885    1.906108   12.862165    ( 0.0000,  0.0000,  2.0000)
  31 Cr     3.941600    2.162923   12.934343    ( 0.0000,  0.0000,  0.0000)
  32 Cr     5.973347    2.220509   11.112988    ( 0.0000,  0.0000,  0.0000)
  33 Al     8.880506    2.099028   12.561554    ( 0.0000,  0.0000,  0.0000)
  34 Fe    11.618137    2.214089   12.643606    ( 0.0000,  0.0000,  2.0000)
  35 Fe    15.194130    4.231563   12.635666    ( 0.0000,  0.0000,  2.0000)
  36 Al     5.334362    4.414507   12.807900    ( 0.0000,  0.0000,  0.0000)
  37 Cr     7.285480    4.326468   11.730263    ( 0.0000,  0.0000,  0.0000)
  38 Ni    10.143418    4.382020   12.432071    ( 0.0000,  0.0000,  1.5000)
  39 Fe    12.834655    4.298360   12.374207    ( 0.0000,  0.0000,  2.0000)
  40 Ni    16.301478    6.525158   12.601187    ( 0.0000,  0.0000,  1.5000)
  41 Co     6.454149    6.395726   13.115311    ( 0.0000,  0.0000,  2.1000)
  42 Fe     8.665764    6.312359   12.002422    ( 0.0000,  0.0000,  2.0000)
  43 Ni    11.236667    6.387063   12.003143    ( 0.0000,  0.0000,  1.5000)
  44 Co    13.617624    6.456178   12.370495    ( 0.0000,  0.0000,  2.1000)
  45 Al     5.226651    8.398548   12.608174    ( 0.0000,  0.0000,  0.0000)
  46 Ni     7.700844    8.603247   13.219853    ( 0.0000,  0.0000,  1.5000)
  47 Fe     9.821928    8.407798   11.540412    ( 0.0000,  0.0000,  2.0000)
  48 Co    12.239160    8.632329   12.097097    ( 0.0000,  0.0000,  2.1000)
  49 Al    15.087820    8.512980   12.153753    ( 0.0000,  0.0000,  0.0000)
  50 Co     1.419507    0.862650   15.124127    ( 0.0000,  0.0000,  2.1000)
  51 Ni     4.012471    0.773053   15.513130    ( 0.0000,  0.0000,  1.5000)
  52 Cr     6.122825    0.887008   13.880426    ( 0.0000,  0.0000,  0.0000)
  53 Co     8.859334    0.815755   14.626053    ( 0.0000,  0.0000,  2.1000)
  54 Ni    11.509141    0.835495   14.801456    ( 0.0000,  0.0000,  1.5000)
  55 Ni     2.817878    2.766143   14.801973    ( 0.0000,  0.0000,  1.5000)
  56 Ni     5.305209    2.945498   15.193232    ( 0.0000,  0.0000,  1.5000)
  57 Cr     7.594125    2.985422   14.379289    ( 0.0000,  0.0000,  0.0000)
  58 Ni    10.077806    2.898732   14.642259    ( 0.0000,  0.0000,  1.5000)
  59 Fe    12.823143    3.072880   15.013094    ( 0.0000,  0.0000,  2.0000)
  60 Cr     3.988368    5.280673   14.917892    ( 0.0000,  0.0000,  0.0000)
  61 Cr     6.439606    5.040844   15.486823    ( 0.0000,  0.0000,  0.0000)
  62 Co     8.627187    4.997561   13.952886    ( 0.0000,  0.0000,  2.1000)
  63 Cr    11.483173    5.070052   14.299039    ( 0.0000,  0.0000,  0.0000)
  64 Cr    13.950667    5.339340   14.586610    ( 0.0000,  0.0000,  0.0000)
  65 Ni     5.323069    7.239173   15.221352    ( 0.0000,  0.0000,  1.5000)
  66 Fe     7.736539    7.432611   15.249460    ( 0.0000,  0.0000,  2.0000)
  67 Co     9.925646    7.278283   13.714327    ( 0.0000,  0.0000,  2.1000)
  68 Ni    12.508080    7.368619   14.401626    ( 0.0000,  0.0000,  1.5000)
  69 Co    15.304682    7.344336   14.771279    ( 0.0000,  0.0000,  2.1000)
  70 Co     6.360163    9.361343   15.148504    ( 0.0000,  0.0000,  2.1000)
  71 Cr     9.005215    9.584125   15.234816    ( 0.0000,  0.0000,  0.0000)
  72 Al    11.100018    9.699606   13.889798    ( 0.0000,  0.0000,  0.0000)
  73 Cr    13.561625    9.265419   14.087004    ( 0.0000,  0.0000,  0.0000)
  74 Al    16.498758    9.532209   14.909323    ( 0.0000,  0.0000,  0.0000)
  75 Fe    12.577254    1.356179   17.220504    ( 0.0000,  0.0000,  2.0000)
  76 Fe     2.305256    1.568096   17.353393    ( 0.0000,  0.0000,  2.0000)
  77 Cr     4.933246    1.306439   17.631727    ( 0.0000,  0.0000,  0.0000)
  78 Co     6.973424    1.617986   16.378033    ( 0.0000,  0.0000,  2.1000)
  79 Cr    10.114398    1.367922   16.645545    ( 0.0000,  0.0000,  0.0000)
  80 Co    13.479013    3.553685   17.170696    ( 0.0000,  0.0000,  2.1000)
  81 Cr     3.666831    3.720345   16.763461    ( 0.0000,  0.0000,  0.0000)
  82 Ni     6.198739    3.666853   17.397011    ( 0.0000,  0.0000,  1.5000)
  83 Fe     8.651218    3.625220   16.382523    ( 0.0000,  0.0000,  2.0000)
  84 Ni    11.139463    3.604235   16.742884    ( 0.0000,  0.0000,  1.5000)
  85 Ni    15.011148    6.014574   16.789567    ( 0.0000,  0.0000,  1.5000)
  86 Al     4.868205    5.741672   17.380631    ( 0.0000,  0.0000,  0.0000)
  87 Cr     7.725966    5.616498   17.464444    ( 0.0000,  0.0000,  0.0000)
  88 Cr     9.589781    5.868540   15.895842    ( 0.0000,  0.0000,  0.0000)
  89 Co    11.966527    5.760729   16.726341    ( 0.0000,  0.0000,  2.1000)
  90 Fe    16.265911    8.148797   16.958262    ( 0.0000,  0.0000,  2.0000)
  91 Co     6.153203    7.953362   17.293899    ( 0.0000,  0.0000,  2.1000)
  92 Co     8.566890    7.735731   17.531797    ( 0.0000,  0.0000,  2.1000)
  93 Al    10.771894    7.949028   16.209263    ( 0.0000,  0.0000,  0.0000)
  94 Ni    13.621260    8.260085   16.561245    ( 0.0000,  0.0000,  1.5000)
  95 Ni    17.455957   10.176716   16.893576    ( 0.0000,  0.0000,  1.5000)
  96 Ni     7.399860   10.218065   17.181672    ( 0.0000,  0.0000,  1.5000)
  97 Ni     9.950601    9.981480   17.711440    ( 0.0000,  0.0000,  1.5000)
  98 Fe    12.187886   10.109421   16.286213    ( 0.0000,  0.0000,  2.0000)
  99 Co    14.834689   10.387032   16.592913    ( 0.0000,  0.0000,  2.1000)
 100 Co    -0.472878   -0.019667   19.296432    ( 0.0000,  0.0000,  2.1000)
 101 Co     2.448448   -0.032873   19.380704    ( 0.0000,  0.0000,  2.1000)
 102 Cr     4.891520   -0.180186   19.814296    ( 0.0000,  0.0000,  0.0000)
 103 Co    13.412105   10.910443   18.588121    ( 0.0000,  0.0000,  2.1000)
 104 Ni    16.008972   11.230677   19.252682    ( 0.0000,  0.0000,  1.5000)
 105 Fe     0.913091    2.253687   19.306698    ( 0.0000,  0.0000,  2.0000)
 106 Fe     3.639974    2.292563   19.289724    ( 0.0000,  0.0000,  2.0000)
 107 Co     6.231179    1.924483   19.743860    ( 0.0000,  0.0000,  2.1000)
 108 Al     8.386508    2.301823   18.499004    ( 0.0000,  0.0000,  0.0000)
 109 Fe    11.110538    2.472010   18.825222    ( 0.0000,  0.0000,  2.0000)
 110 Fe     2.357601    4.324675   19.041588    ( 0.0000,  0.0000,  2.0000)
 111 Cr     4.658773    4.627885   19.488131    ( 0.0000,  0.0000,  0.0000)
 112 Cr     7.011427    4.205605   19.525503    ( 0.0000,  0.0000,  0.0000)
 113 Fe     9.807655    4.749046   18.236767    ( 0.0000,  0.0000,  2.0000)
 114 Co    12.564374    4.471992   19.283465    ( 0.0000,  0.0000,  2.1000)
 115 Fe    15.726354    6.734490   19.095549    ( 0.0000,  0.0000,  2.0000)
 116 Ni     5.913804    6.571585   19.535201    ( 0.0000,  0.0000,  1.5000)
 117 Ni     8.668423    6.414819   19.653293    ( 0.0000,  0.0000,  1.5000)
 118 Co    10.945428    6.790302   18.410538    ( 0.0000,  0.0000,  2.1000)
 119 Cr    13.263761    6.618980   18.394054    ( 0.0000,  0.0000,  0.0000)
 120 Fe     4.541084    8.961774   19.415237    ( 0.0000,  0.0000,  2.0000)
 121 Co     7.161623    8.880102   19.473873    ( 0.0000,  0.0000,  2.1000)
 122 Ni     9.760639    8.442932   19.630706    ( 0.0000,  0.0000,  1.5000)
 123 Cr    12.201406    8.800846   18.599518    ( 0.0000,  0.0000,  0.0000)
 124 Co    14.617161    9.031712   18.640956    ( 0.0000,  0.0000,  2.1000)

Unit cell:
           periodic     x           y           z      points  spacing
  1. axis:    yes   12.530300    0.000000    0.000000    56     0.1938
  2. axis:    yes    6.259130   10.841100    0.000000    56     0.1936
  3. axis:    no     0.000000    0.000000   29.353100   128     0.2293

  Lengths:  12.530300  12.518233  29.353100
  Angles:   90.000000  90.000000  59.999929

Effective grid spacing dv^(1/3) = 0.2150

     iter     time        total  log10-change:  magmom
                         energy  eigst   dens
iter:   1 13:00:51 -1183.808562                  +159.1295
iter:   2 13:04:19 -1654.271257  +0.27  -1.09    +88.6234
iter:   3 13:07:47 -3611.234961  +1.50  -0.82    +60.0500
iter:   4 13:11:15 -1038.578486  +0.38  -0.52    +27.9477
iter:   5 13:14:44  -978.484930  -0.02  -1.16    +26.2967
iter:   6 13:18:12  -973.884469  -0.52  -1.24    +26.9796
iter:   7 13:21:40  -955.960848  -1.06  -1.25    +29.0582
iter:   8 13:25:08  -966.143763  -0.87  -1.28    +30.3970
iter:   9 13:28:36 -1460.871862  -0.64  -1.23    +33.2461
iter:  10 13:32:04  -947.901656  -0.94  -0.88    +30.0580
iter:  11 13:35:33  -947.996753  -1.59  -1.33    +30.8073
iter:  12 13:39:01  -938.422714  -1.52  -1.33    +33.5800
iter:  13 13:42:29  -953.175216  -1.44  -1.41    +35.2997
iter:  14 13:45:56  -954.630206  -1.48  -1.36    +37.3413
iter:  15 13:49:25  -920.861721  -1.62  -1.37    +37.4730
iter:  16 13:52:53  -943.073605  -1.56  -1.60    +41.6285
iter:  17 13:56:20  -952.135452  -1.69  -1.42    +44.2907
iter:  18 13:59:46  -944.169921  -1.75  -1.39    +44.5112
iter:  19 14:03:14  -922.246232  -2.21  -1.43    +46.3381
iter:  20 14:06:42  -919.449599  -2.60  -1.61    +51.3312
iter:  21 14:10:10  -922.372752  -2.56  -1.66    +57.9464
iter:  22 14:13:37  -920.763119  -2.76  -1.64    +58.5070
iter:  23 14:17:05  -922.411816  -2.24  -1.69    +63.0089
iter:  24 14:20:33  -964.231134  -1.72  -1.74    +63.9325
iter:  25 14:24:01  -971.606726  -1.59  -1.37    +65.1860
iter:  26 14:27:30  -926.389690  -1.90  -1.33    +62.2619
iter:  27 14:30:59  -924.099908  -2.19  -1.74    +66.0722
iter:  28 14:34:28  -921.227683  -2.68  -1.80    +65.9363
iter:  29 14:37:56  -921.878416  -2.96  -1.90    +68.4077
iter:  30 14:41:24  -943.324091  -1.99  -1.91    +72.4680
iter:  31 14:44:51  -941.622399  -1.97  -1.54    +70.5503
iter:  32 14:48:19  -922.864651  -2.48  -1.54    +70.2957
iter:  33 14:51:47  -923.258884  -2.94  -1.95    +73.1057
iter:  34 14:55:16  -924.248443  -2.79  -1.98    +73.8141
iter:  35 14:58:45  -924.115370  -2.70  -2.01    +74.6690
iter:  36 15:02:14  -925.020390  -2.49  -2.03    +75.3435
iter:  37 15:05:41  -928.414401  -2.63  -2.11    +75.2915
iter:  38 15:09:08  -925.512071  -2.71  -1.88    +75.5173
iter:  39 15:12:36  -925.077698  -2.80  -2.09    +75.8027
iter:  40 15:16:05  -924.652082  -3.12  -2.22    +76.2601
iter:  41 15:19:32  -924.795094  -3.22  -2.43    +76.2757
iter:  42 15:23:01  -924.942672  -3.56  -2.43    +76.3040
iter:  43 15:26:29  -925.527693  -3.32  -2.46    +76.1322
iter:  44 15:29:57  -925.088568  -3.73  -2.29    +76.2552
iter:  45 15:33:26  -925.197732  -3.87  -2.50    +76.2491
iter:  46 15:36:54  -925.385405  -3.73  -2.50    +76.2012
iter:  47 15:40:22  -925.289614  -4.08  -2.43    +76.1702
iter:  48 15:43:49  -925.435811  -3.99  -2.49    +76.2475
iter:  49 15:47:17  -926.979314  -3.29  -2.46    +76.2839
iter:  50 15:50:45  -925.499339  -3.38  -2.09    +76.4509
iter:  51 15:54:12  -925.615943  -3.56  -2.46    +76.5031
iter:  52 15:57:40  -926.455191  -3.43  -2.43    +76.5105
iter:  53 16:01:09  -925.601456  -3.80  -2.18    +76.6429
iter:  54 16:04:37  -925.586577  -3.80  -2.47    +76.8797
iter:  55 16:08:05  -925.924420  -3.45  -2.49    +76.8695
iter:  56 16:11:33  -925.973230  -3.47  -2.37    +76.9815
iter:  57 16:14:59  -925.588721  -3.65  -2.35    +76.8928
iter:  58 16:18:25  -925.774255  -3.53  -2.69    +77.1674
iter:  59 16:21:53  -925.682837  -3.71  -2.52    +77.3827
iter:  60 16:25:21  -925.828106  -3.71  -2.62    +77.4710
iter:  61 16:28:48  -925.584205  -4.08  -2.50    +77.3491
iter:  62 16:32:16  -925.625945  -4.23  -2.96    +77.5888
iter:  63 16:35:43  -925.625354c -4.69  -2.95    +77.5999
iter:  64 16:39:11  -925.632076c -4.63  -2.91    +77.8151
iter:  65 16:42:39  -925.651232c -4.58  -3.06    +77.9475
iter:  66 16:46:08  -925.665625c -4.60  -3.07    +78.1104
iter:  67 16:49:36  -925.677623c -4.62  -3.07    +78.2636
iter:  68 16:53:04  -925.689030c -4.75  -3.16    +78.3579
iter:  69 16:56:32  -925.706949c -4.68  -3.19    +78.5370
iter:  70 17:00:00  -925.738352c -4.57  -3.08    +78.6401
iter:  71 17:03:28  -925.719340c -4.93  -2.98    +78.7377
iter:  72 17:06:55  -925.738901c -4.62  -3.25    +78.9461
iter:  73 17:10:20  -925.739679c -5.00  -3.27    +79.0319
iter:  74 17:13:48  -925.753983c -4.81  -3.28    +79.1883
iter:  75 17:17:16  -925.768504c -5.06  -3.28    +79.2713
iter:  76 17:20:44  -925.792554c -4.61  -3.15    +79.4310
iter:  77 17:24:11  -925.773861c -5.02  -2.95    +79.5040
iter:  78 17:27:39  -925.786176c -4.94  -3.29    +79.6947
iter:  79 17:31:08  -925.823390c -4.30  -3.30    +80.1562
iter:  80 17:34:37  -925.781954c -4.42  -3.18    +79.5764
iter:  81 17:38:04  -925.852805c -4.03  -3.38    +80.4620
iter:  82 17:41:22  -925.833850c -4.76  -3.03    +80.1451
iter:  83 17:44:39  -925.847289c -4.53  -3.08    +80.6167
iter:  84 17:48:03  -925.876477c -4.42  -3.25    +81.0669
iter:  85 17:52:12  -925.892549c -4.77  -3.07    +81.2146
iter:  86 17:55:30  -925.893922c -4.90  -2.93    +81.3002
iter:  87 17:58:48  -925.899997c -4.70  -2.93    +81.4046
iter:  88 18:02:05  -925.899656c -4.52  -2.93    +81.4784
iter:  89 18:05:23  -925.895855c -4.12  -2.95    +81.5527
iter:  90 18:08:40  -925.875516c -4.61  -3.02    +81.6072
iter:  91 18:12:30  -925.880413c -4.78  -3.34    +81.6717
iter:  92 18:16:15  -925.885276c -5.07  -3.36    +81.6982
iter:  93 18:19:33  -925.937230c -4.49  -3.34    +81.7874
iter:  94 18:22:51  -925.888940c -5.29  -2.84    +81.7371
iter:  95 18:26:10  -925.892115c -5.42  -3.31    +81.7673
iter:  96 18:29:27  -925.895843c -5.33  -3.31    +81.7873
iter:  97 18:32:46  -925.897732c -5.50  -3.22    +81.8060
iter:  98 18:36:03  -925.898395c -5.56  -3.20    +81.8106
iter:  99 18:39:20  -925.943102c -4.62  -3.23    +81.8750
iter: 100 18:43:01  -925.899159c -5.36  -2.89    +81.8751
iter: 101 18:46:54  -925.903556c -5.66  -3.35    +81.9101
iter: 102 18:50:12  -925.901143c -5.76  -3.27    +81.9095
iter: 103 18:53:30  -925.906489c -5.23  -3.35    +81.9665
iter: 104 18:56:46  -925.905267c -4.76  -3.23    +81.9916
iter: 105 19:00:03  -925.914419c -4.83  -3.32    +82.0535
iter: 106 19:03:21  -925.951297c -4.66  -3.13    +82.0423
iter: 107 19:06:38  -925.904013c -4.89  -2.89    +82.0715
iter: 108 19:09:56  -925.907284c -5.25  -3.46    +82.1251
iter: 109 19:13:12  -925.904275c -5.60  -3.34    +82.1520
iter: 110 19:16:30  -925.905626c -5.82  -3.60    +82.2022
iter: 111 19:19:49  -925.907510c -5.65  -3.62    +82.2638
iter: 112 19:23:06  -925.909445c -5.48  -3.63    +82.2696
iter: 113 19:26:22  -925.912512c -5.42  -3.37    +82.2884
iter: 114 19:29:51  -925.909420c -5.71  -3.41    +82.3230
iter: 115 19:33:54  -925.910479c -5.74  -3.78    +82.3555
iter: 116 19:37:11  -925.910437c -6.21  -3.72    +82.3595
iter: 117 19:40:28  -925.911944c -5.95  -3.95    +82.4038
iter: 118 19:43:45  -925.911644c -6.92  -3.96    +82.3939
iter: 119 19:47:03  -925.911948c -6.46  -3.97    +82.4064
iter: 120 19:50:21  -925.912765c -6.38  -3.89    +82.4282
iter: 121 19:53:38  -925.914898c -5.84  -3.95    +82.4751
iter: 122 19:56:56  -925.910373c -5.26  -3.89    +82.3558
iter: 123 20:00:14  -925.906708c -5.23  -3.89    +82.2702
iter: 124 20:03:31  -925.910222c -5.54  -3.98    +82.3554
iter: 125 20:06:47  -925.909005c -5.92  -3.89    +82.2936
iter: 126 20:10:03  -925.909829c -6.06  -3.77    +82.3576
iter: 127 20:13:21  -925.910550c -6.48  -4.05c   +82.3639
iter: 128 20:16:38  -925.911661c -6.05  -3.93    +82.4028
iter: 129 20:19:55  -925.912388c -6.16  -4.00    +82.3931
iter: 130 20:23:12  -925.913793c -5.73  -3.60    +82.4421
iter: 131 20:26:30  -925.915729c -5.69  -3.75    +82.4776
iter: 132 20:29:45  -925.917356c -5.88  -3.81    +82.5233
iter: 133 20:33:03  -925.916853c -6.77  -3.78    +82.5168
iter: 134 20:36:25  -925.919476c -5.81  -3.82    +82.5500
iter: 135 20:40:35  -925.922084c -5.74  -3.65    +82.5458
iter: 136 20:43:52  -925.927416c -5.45  -3.43    +82.5844
iter: 137 20:47:09  -925.921350c -5.41  -3.27    +82.5584
iter: 138 20:50:27  -925.923020c -5.67  -3.63    +82.5968
iter: 139 20:53:45  -925.926474c -5.40  -3.66    +82.6239
iter: 140 20:57:03  -925.927456c -5.64  -3.53    +82.6314
iter: 141 21:00:21  -925.928043c -5.65  -3.48    +82.6797
iter: 142 21:03:39  -925.930867c -5.85  -3.61    +82.7252
iter: 143 21:06:55  -925.929839c -5.75  -3.50    +82.6748
iter: 144 21:10:13  -925.944921c -5.22  -3.46    +82.7740
iter: 145 21:13:31  -925.933577c -5.73  -3.13    +82.7703
iter: 146 21:16:47  -925.934201c -5.63  -3.46    +82.8305
iter: 147 21:20:06  -925.937149c -5.26  -3.56    +82.8588
iter: 148 21:24:01  -925.936734c -5.65  -3.45    +82.8840
iter: 149 21:27:33  -925.939096c -5.29  -3.55    +82.8732
iter: 150 21:30:52  -925.949869c -5.34  -3.51    +82.8878
iter: 151 21:34:08  -925.941613c -5.48  -3.20    +82.9217
iter: 152 21:37:26  -925.946922c -5.25  -3.55    +82.9473
iter: 153 21:40:43  -925.945274c -5.80  -3.35    +82.9665
iter: 154 21:44:05  -925.949306c -5.61  -3.46    +83.0154
iter: 155 21:48:16  -925.949301c -5.52  -3.35    +83.0208
iter: 156 21:51:33  -926.060249c -4.50  -3.37    +83.0567
iter: 157 21:54:51  -925.952786c -4.60  -2.71    +83.0936
iter: 158 21:58:09  -925.952982c -5.34  -3.32    +83.0795
iter: 159 22:01:25  -925.954662c -5.70  -3.33    +83.1033
iter: 160 22:04:42  -925.963869c -4.99  -3.32    +83.1653
iter: 161 22:08:00  -925.965461c -5.36  -3.20    +83.1397
iter: 162 22:11:18  -926.266854  -4.04  -3.13    +83.1676
iter: 163 22:15:29  -925.962533  -4.33  -2.48    +83.1601
iter: 164 22:18:53  -925.969213  -5.11  -3.24    +83.1965
iter: 165 22:22:11  -925.962951c -4.70  -3.11    +83.1910
iter: 166 22:25:29  -925.955538c -4.83  -3.20    +83.2157
iter: 167 22:28:46  -925.961331c -4.85  -3.37    +83.2747
iter: 168 22:32:04  -925.988809c -4.82  -3.27    +83.2860
iter: 169 22:35:19  -925.959229c -4.96  -2.97    +83.2709
iter: 170 22:38:37  -925.955327c -5.71  -3.30    +83.3173
iter: 171 22:41:55  -925.955814c -6.04  -3.65    +83.3265
iter: 172 22:45:59  -925.955533c -6.37  -3.60    +83.3399
iter: 173 22:49:32  -925.956284c -6.11  -3.69    +83.3541
iter: 174 22:52:50  -925.956337c -5.83  -3.63    +83.3505
iter: 175 22:56:08  -925.956213c -5.92  -3.73    +83.3475
iter: 176 22:59:24  -925.963529c -5.58  -3.77    +83.3643
iter: 177 23:02:43  -925.964107c -5.23  -3.25    +83.3562
iter: 178 23:06:01  -925.956531c -5.66  -3.31    +83.3811
iter: 179 23:09:19  -925.956427c -5.93  -3.90    +83.3609
iter: 180 23:12:36  -925.956222c -6.48  -3.84    +83.3814
iter: 181 23:15:53  -925.956413c -6.75  -4.08c   +83.3896
iter: 182 23:19:20  -925.956484c -6.48  -4.11c   +83.4006
iter: 183 23:23:24  -925.957103c -6.58  -3.83    +83.4037
iter: 184 23:26:41  -925.956605c -6.71  -3.86    +83.4119
iter: 185 23:29:58  -925.956541c -6.89  -4.11c   +83.4065
iter: 186 23:33:15  -925.956654c -6.46  -4.18c   +83.4085
iter: 187 23:36:32  -925.957297c -6.23  -4.17c   +83.4070
iter: 188 23:39:51  -925.956554c -6.67  -3.91    +83.4074
iter: 189 23:43:07  -925.957660c -6.29  -4.30c   +83.4181
iter: 190 23:46:25  -925.957212c -6.37  -3.67    +83.4155
iter: 191 23:50:29  -925.957035c -7.18  -3.93    +83.4125
iter: 192 23:54:02  -925.957018c -7.28  -4.06c   +83.4141
iter: 193 23:57:20  -925.957009c -7.19  -4.09c   +83.4218
iter: 194 00:00:37  -925.956869c -7.28  -4.14c   +83.4214
iter: 195 00:03:55  -925.958655c -6.08  -4.26c   +83.4224
iter: 196 00:07:13  -925.956857c -6.39  -3.54    +83.4233
iter: 197 00:10:31  -925.956953c -7.36  -4.32c   +83.4221
iter: 198 00:13:49  -925.956951c -7.61c -4.26c   +83.4208

Converged after 198 iterations.

Dipole moment: (68.216261, 38.905948, -0.142088) |e|*Ang

Total magnetic moment: (0.000000, 0.000000, 83.420817)
Local magnetic moments:
   0 Al ( 0.000000,  0.000000, -0.026533)
   1 Ni ( 0.000000,  0.000000,  0.517697)
   2 Fe ( 0.000000,  0.000000,  2.960570)
   3 Cr ( 0.000000,  0.000000, -2.129583)
   4 Ni ( 0.000000,  0.000000,  0.448039)
   5 Cr ( 0.000000,  0.000000, -2.488883)
   6 Fe ( 0.000000,  0.000000,  2.124104)
   7 Co ( 0.000000,  0.000000,  1.350953)
   8 Fe ( 0.000000,  0.000000,  2.097418)
   9 Ni ( 0.000000,  0.000000,  0.293895)
  10 Ni ( 0.000000,  0.000000,  0.374209)
  11 Cr ( 0.000000,  0.000000, -2.407696)
  12 Co ( 0.000000,  0.000000,  1.124116)
  13 Cr ( 0.000000,  0.000000, -1.925007)
  14 Cr ( 0.000000,  0.000000,  1.630946)
  15 Ni ( 0.000000,  0.000000,  0.038928)
  16 Co ( 0.000000,  0.000000,  1.193655)
  17 Al ( 0.000000,  0.000000, -0.043199)
  18 Co ( 0.000000,  0.000000,  1.539954)
  19 Fe ( 0.000000,  0.000000,  2.665809)
  20 Cr ( 0.000000,  0.000000, -2.925861)
  21 Fe ( 0.000000,  0.000000,  2.070756)
  22 Co ( 0.000000,  0.000000,  1.634542)
  23 Al ( 0.000000,  0.000000, -0.024077)
  24 Ni ( 0.000000,  0.000000,  0.378394)
  25 Fe ( 0.000000,  0.000000,  2.310284)
  26 Fe ( 0.000000,  0.000000,  2.187714)
  27 Fe ( 0.000000,  0.000000,  1.906502)
  28 Cr ( 0.000000,  0.000000,  1.616385)
  29 Fe ( 0.000000,  0.000000,  2.528257)
  30 Fe ( 0.000000,  0.000000,  2.109369)
  31 Cr ( 0.000000,  0.000000, -2.312667)
  32 Cr ( 0.000000,  0.000000,  0.044943)
  33 Al ( 0.000000,  0.000000, -0.037442)
  34 Fe ( 0.000000,  0.000000,  2.626030)
  35 Fe ( 0.000000,  0.000000,  2.206284)
  36 Al ( 0.000000,  0.000000, -0.005610)
  37 Cr ( 0.000000,  0.000000,  0.804071)
  38 Ni ( 0.000000,  0.000000,  0.303327)
  39 Fe ( 0.000000,  0.000000,  1.566383)
  40 Ni ( 0.000000,  0.000000,  0.154679)
  41 Co ( 0.000000,  0.000000,  0.481926)
  42 Fe ( 0.000000,  0.000000,  2.082523)
  43 Ni ( 0.000000,  0.000000,  0.251291)
  44 Co ( 0.000000,  0.000000,  1.269877)
  45 Al ( 0.000000,  0.000000, -0.021739)
  46 Ni ( 0.000000,  0.000000,  0.438082)
  47 Fe ( 0.000000,  0.000000,  2.415396)
  48 Co ( 0.000000,  0.000000,  1.193110)
  49 Al ( 0.000000,  0.000000, -0.025300)
  50 Co ( 0.000000,  0.000000,  1.463993)
  51 Ni ( 0.000000,  0.000000,  0.082860)
  52 Cr ( 0.000000,  0.000000,  2.105768)
  53 Co ( 0.000000,  0.000000,  1.116881)
  54 Ni ( 0.000000,  0.000000,  0.337001)
  55 Ni ( 0.000000,  0.000000,  0.250953)
  56 Ni ( 0.000000,  0.000000,  0.039603)
  57 Cr ( 0.000000,  0.000000, -1.863804)
  58 Ni ( 0.000000,  0.000000,  0.307857)
  59 Fe ( 0.000000,  0.000000,  2.577708)
  60 Cr ( 0.000000,  0.000000,  1.539928)
  61 Cr ( 0.000000,  0.000000,  1.294674)
  62 Co ( 0.000000,  0.000000,  0.853120)
  63 Cr ( 0.000000,  0.000000, -2.073082)
  64 Cr ( 0.000000,  0.000000, -1.963326)
  65 Ni ( 0.000000,  0.000000,  0.281134)
  66 Fe ( 0.000000,  0.000000,  2.342079)
  67 Co ( 0.000000,  0.000000,  1.214272)
  68 Ni ( 0.000000,  0.000000,  0.022132)
  69 Co ( 0.000000,  0.000000,  0.399252)
  70 Co ( 0.000000,  0.000000,  1.378858)
  71 Cr ( 0.000000,  0.000000, -2.267643)
  72 Al ( 0.000000,  0.000000, -0.031012)
  73 Cr ( 0.000000,  0.000000, -2.500660)
  74 Al ( 0.000000,  0.000000, -0.033969)
  75 Fe ( 0.000000,  0.000000,  2.324184)
  76 Fe ( 0.000000,  0.000000,  2.437364)
  77 Cr ( 0.000000,  0.000000, -1.991187)
  78 Co ( 0.000000,  0.000000,  1.005524)
  79 Cr ( 0.000000,  0.000000, -2.057644)
  80 Co ( 0.000000,  0.000000,  1.588098)
  81 Cr ( 0.000000,  0.000000, -2.087157)
  82 Ni ( 0.000000,  0.000000, -0.022136)
  83 Fe ( 0.000000,  0.000000,  1.924874)
  84 Ni ( 0.000000,  0.000000,  0.495177)
  85 Ni ( 0.000000,  0.000000,  0.166458)
  86 Al ( 0.000000,  0.000000, -0.021220)
  87 Cr ( 0.000000,  0.000000, -1.656124)
  88 Cr ( 0.000000,  0.000000,  1.425083)
  89 Co ( 0.000000,  0.000000,  1.159320)
  90 Fe ( 0.000000,  0.000000,  2.547325)
  91 Co ( 0.000000,  0.000000,  1.669910)
  92 Co ( 0.000000,  0.000000,  1.413311)
  93 Al ( 0.000000,  0.000000, -0.024366)
  94 Ni ( 0.000000,  0.000000,  0.425989)
  95 Ni ( 0.000000,  0.000000,  0.376294)
  96 Ni ( 0.000000,  0.000000,  0.604990)
  97 Ni ( 0.000000,  0.000000,  0.219249)
  98 Fe ( 0.000000,  0.000000,  2.397661)
  99 Co ( 0.000000,  0.000000,  1.456598)
 100 Co ( 0.000000,  0.000000,  1.813962)
 101 Co ( 0.000000,  0.000000,  1.617290)
 102 Cr ( 0.000000,  0.000000, -2.967894)
 103 Co ( 0.000000,  0.000000,  1.306298)
 104 Ni ( 0.000000,  0.000000,  0.500229)
 105 Fe ( 0.000000,  0.000000,  2.688104)
 106 Fe ( 0.000000,  0.000000,  2.383346)
 107 Co ( 0.000000,  0.000000,  1.061327)
 108 Al ( 0.000000,  0.000000, -0.043596)
 109 Fe ( 0.000000,  0.000000,  2.652011)
 110 Fe ( 0.000000,  0.000000,  2.434935)
 111 Cr ( 0.000000,  0.000000, -2.588065)
 112 Cr ( 0.000000,  0.000000,  2.609162)
 113 Fe ( 0.000000,  0.000000,  2.520844)
 114 Co ( 0.000000,  0.000000,  1.681707)
 115 Fe ( 0.000000,  0.000000,  2.691711)
 116 Ni ( 0.000000,  0.000000,  0.099989)
 117 Ni ( 0.000000,  0.000000,  0.453262)
 118 Co ( 0.000000,  0.000000,  1.219022)
 119 Cr ( 0.000000,  0.000000, -2.310980)
 120 Fe ( 0.000000,  0.000000,  2.961486)
 121 Co ( 0.000000,  0.000000,  1.872817)
 122 Ni ( 0.000000,  0.000000,  0.511086)
 123 Cr ( 0.000000,  0.000000,  2.013454)
 124 Co ( 0.000000,  0.000000,  1.447710)

Energy contributions relative to reference atoms: (reference = -4103091.665053)

Kinetic:       +335.627837
Potential:     -343.316123
External:        +0.000000
XC:            -955.002012
Entropy (-ST):   -5.291368
Local:          +39.379032
--------------------------
Free energy:   -928.602635
Extrapolated:  -925.956951

Dipole-layer corrected work functions: 4.526717, 4.715987 eV

Spin contamination: 49.071198 electrons
Showing all kpts
                      Up                     Down
 Kpt  Band  Eigenvalues  Occupancy  Eigenvalues  Occupancy
  0   566      0.07304    0.99866      1.10994    0.02284
  0   567      0.08817    0.99844      1.11556    0.02162
  0   568      0.09409    0.99835      1.12495    0.01972
  0   569      0.10529    0.99815      1.13423    0.01800

  1   566      0.07840    0.99859      1.11392    0.02197
  1   567      0.09066    0.99840      1.12610    0.01950
  1   568      0.10809    0.99810      1.13417    0.01802
  1   569      0.12085    0.99784      1.14305    0.01651


Fermi level: 0.73433

No gap

Forces in eV/Ang:
  0 Al   -0.55296    1.18602   -1.69348
  1 Ni   -0.42574   -0.31537    0.92503
  2 Fe    0.40118   -0.15393    1.39576
  3 Cr    0.39790   -0.81441   -0.07989
  4 Ni   -0.14360    0.10555    1.30651
  5 Cr   -0.11598   -0.86312   -0.10649
  6 Fe   -0.04424    0.82041   -0.47205
  7 Co    0.13660   -0.17975    0.65985
  8 Fe    0.90187   -0.00088   -0.22406
  9 Ni   -0.37376   -0.47166   -0.05480
 10 Ni   -0.28894   -0.83789    1.14753
 11 Cr    0.16182    1.11374   -1.56437
 12 Co   -1.39116   -0.68338    0.72022
 13 Cr    0.02474   -0.81755   -1.66701
 14 Cr    0.55441    0.83997   -0.85534
 15 Ni    0.30844    0.93996    0.98592
 16 Co   -1.19297   -0.41733   -0.35557
 17 Al    0.38511    0.62201   -1.34555
 18 Co   -0.68848    0.13248    1.08519
 19 Fe    0.77200    0.31674    0.08207
 20 Cr   -1.13598    0.04064   -0.66114
 21 Fe    0.04938    1.05196    0.29669
 22 Co    1.11646    0.04647   -0.20770
 23 Al   -1.15054   -0.84309   -1.58870
 24 Ni   -0.24000    0.17143    0.08145
 25 Fe   -1.00909   -0.91337    0.51908
 26 Fe   -0.25371    0.91079   -0.21491
 27 Fe   -0.40456    0.87393   -1.22236
 28 Cr    1.55307   -0.25206    1.50972
 29 Fe    0.20726   -0.22434    0.40167
 30 Fe    1.06170    1.19901    0.51479
 31 Cr    0.66320   -1.08323   -0.61988
 32 Cr    0.07593   -0.61138    1.06912
 33 Al    0.69595    0.41973   -1.88622
 34 Fe   -0.87188   -0.23571    0.38767
 35 Fe    0.18170    0.36258    0.31705
 36 Al   -2.29169   -1.60749    2.99919
 37 Cr    2.13441   -0.52220   -1.04191
 38 Ni    0.26574   -1.71850   -1.36254
 39 Fe   -0.77609   -0.42667    1.11126
 40 Ni    0.12111   -0.97179    0.03822
 41 Co    0.66507   -0.28491    0.52625
 42 Fe   -0.31478   -0.05060   -0.01030
 43 Ni    1.70350    1.02457    1.25572
 44 Co    1.15923    0.53911    0.11990
 45 Al    0.36931    0.12604    0.60248
 46 Ni    0.53719   -0.50292   -0.62499
 47 Fe    0.80260    0.67628    1.10419
 48 Co    1.05290   -0.42841   -0.66248
 49 Al   -0.11700    0.38471   -0.16491
 50 Co    0.06532   -0.82917   -0.22976
 51 Ni    0.01806   -0.02138   -0.65934
 52 Cr    0.76218    1.06476    0.55158
 53 Co   -0.73884   -0.35695   -0.55966
 54 Ni    0.02045    0.11758   -0.46425
 55 Ni   -1.08611    1.13864    0.53079
 56 Ni   -0.67569   -0.35207   -0.83501
 57 Cr   -1.35233    0.27771    0.33555
 58 Ni    0.83119    0.42535   -0.69524
 59 Fe   -0.33234   -0.17806   -1.08915
 60 Cr   -0.60215   -0.77999   -0.34316
 61 Cr    1.06758    0.35318   -1.01357
 62 Co   -0.98894    0.42012    1.32946
 63 Cr   -0.88099   -0.06320    0.02877
 64 Cr    0.72701   -0.67795    0.33749
 65 Ni   -1.01254   -0.30853   -0.76279
 66 Fe    0.43746   -0.95282    0.32390
 67 Co   -0.11065    0.78796    1.86178
 68 Ni   -1.02967   -1.05109    0.45775
 69 Co   -0.73225    0.51764   -0.42464
 70 Co    0.98455    0.96954   -0.37717
 71 Cr   -1.48901   -0.59404    0.40484
 72 Al   -0.45942   -1.57130    1.00448
 73 Cr    1.81408    2.17934    0.77479
 74 Al   -1.03717    0.13420   -1.64205
 75 Fe   -1.88677    0.65211   -1.10606
 76 Fe    1.69887   -0.15764   -0.28684
 77 Cr    0.64494    0.41271    0.05029
 78 Co    1.11983   -1.08622   -0.26477
 79 Cr   -0.96434    0.87241    0.31081
 80 Co    1.03460    1.41338    0.19999
 81 Cr   -0.77812   -0.38491    0.97394
 82 Ni   -0.62319   -1.05248    0.39809
 83 Fe   -0.84986   -0.08800    0.12582
 84 Ni   -0.19200   -0.32309   -0.88749
 85 Ni   -0.47459   -0.46188    0.17043
 86 Al    0.61431    2.00867   -0.53490
 87 Cr   -0.48700    0.29645   -0.03463
 88 Cr   -0.08337   -1.22761    0.37535
 89 Co    1.25341   -0.24352   -1.58754
 90 Fe   -0.98076   -0.77721    0.49140
 91 Co    0.47126    0.44237    0.96716
 92 Co    0.53886    0.96667    0.51653
 93 Al    1.00559    0.75725    0.27036
 94 Ni    0.32426   -1.13681   -0.69256
 95 Ni    0.50348   -0.10451    1.74854
 96 Ni    0.62439   -1.40541    0.59306
 97 Ni    0.55299   -0.21775   -1.48158
 98 Fe    0.12194    1.07357   -0.10678
 99 Co   -0.50287   -0.21714    0.56283
100 Co    1.35471    0.85570   -0.81662
101 Co   -1.08046    0.65550    0.17862
102 Cr   -0.20951    0.03588    0.29338
103 Co   -0.35228    0.85177   -0.57006
104 Ni   -0.60950   -0.39255   -1.24996
105 Fe    0.77522   -0.43116    0.76319
106 Fe    0.34725   -0.71465    0.23960
107 Co   -0.62831    0.44369   -0.83819
108 Al    0.07137   -0.22607    0.13653
109 Fe   -0.63706   -0.24524    0.37683
110 Fe   -0.19734    0.53869   -0.84715
111 Cr   -0.20649   -1.74404    0.84573
112 Cr    0.44137    1.13788    0.75701
113 Fe   -0.26235   -0.12858    1.01283
114 Co   -0.85986    0.09807   -0.85342
115 Fe    0.21366    0.71813   -0.08171
116 Ni    0.51746    0.96158   -0.75889
117 Ni   -0.69490   -0.14905   -0.64969
118 Co   -1.48602   -0.15950    1.01827
119 Cr    1.18017    0.38249    0.97921
120 Fe   -0.02351   -1.12952   -0.75868
121 Co    0.25886   -0.40913   -0.81303
122 Ni    0.04835    1.15256   -0.23605
123 Cr   -0.58369    0.41454   -0.28039
124 Co    1.05664   -0.84739    0.19982

Timing:                              incl.     excl.
-----------------------------------------------------------
Forces:                             62.342    62.342   0.2% |
Hamiltonian:                         2.280     0.019   0.0% |
 Atomic:                             0.415     0.002   0.0% |
  XC Correction:                     0.412     0.412   0.0% |
 Calculate atomic Hamiltonians:      1.166     1.166   0.0% |
 Communicate:                        0.089     0.089   0.0% |
 Initialize Hamiltonian:             0.001     0.001   0.0% |
 Poisson:                            0.125     0.125   0.0% |
 XC 3D grid:                         0.465     0.465   0.0% |
LCAO initialization:               375.750     0.642   0.0% |
 LCAO eigensolver:                  23.138     0.019   0.0% |
  Calculate projections:             0.000     0.000   0.0% |
  DenseAtomicCorrection:             0.000     0.000   0.0% |
  Distribute overlap matrix:        10.028    10.028   0.0% |
  Orbital Layouts:                  12.991    12.991   0.0% |
  Potential matrix:                  0.015     0.015   0.0% |
  Sum over cells:                    0.085     0.085   0.0% |
 LCAO to grid:                     349.499   349.499   0.9% |
 Set positions (LCAO WFS):           2.472     2.090   0.0% |
  Basic WFS set positions:           0.004     0.004   0.0% |
  Basis functions set positions:     0.001     0.001   0.0% |
  P tci:                             0.001     0.001   0.0% |
  ST tci:                            0.154     0.154   0.0% |
  mktci:                             0.221     0.221   0.0% |
PWDescriptor:                        0.122     0.122   0.0% |
SCF-cycle:                       40602.451     2.263   0.0% |
 Davidson:                       39274.154 10516.292  25.6% |---------|
  Apply H:                         773.253   759.742   1.9% ||
   HMM T:                           13.511    13.511   0.0% |
  Subspace diag:                  3660.299     0.131   0.0% |
   calc_h_matrix:                 1609.306   907.051   2.2% ||
    Apply H:                       702.255   688.212   1.7% ||
     HMM T:                         14.043    14.043   0.0% |
   diagonalize:                    347.081   347.081   0.8% |
   rotate_psi:                    1703.782  1703.782   4.2% |-|
  calc. matrices:                 8463.595  7103.747  17.3% |------|
   Apply H:                       1359.848  1331.785   3.2% ||
    HMM T:                          28.063    28.063   0.1% |
  diagonalize:                   12190.235 12190.235  29.7% |-----------|
  rotate_psi:                     3670.480  3670.480   8.9% |---|
 Density:                          766.826     0.010   0.0% |
  Atomic density matrices:           6.383     6.383   0.0% |
  Mix:                             403.766   403.766   1.0% |
  Multipole moments:                 0.178     0.178   0.0% |
  Pseudo density:                  356.488   356.475   0.9% |
   Symmetrize density:               0.013     0.013   0.0% |
 Hamiltonian:                      538.727     3.687   0.0% |
  Atomic:                           84.344     0.423   0.0% |
   XC Correction:                   83.920    83.920   0.2% |
  Calculate atomic Hamiltonians:   326.762   326.762   0.8% |
  Communicate:                      16.793    16.793   0.0% |
  Poisson:                           9.994     9.994   0.0% |
  XC 3D grid:                       97.147    97.147   0.2% |
 Orthonormalize:                    20.482     0.001   0.0% |
  calc_s_matrix:                     2.520     2.520   0.0% |
  inverse-cholesky:                  1.000     1.000   0.0% |
  projections:                      12.576    12.576   0.0% |
  rotate_psi_s:                      4.385     4.385   0.0% |
Set symmetry:                        0.001     0.001   0.0% |
Other:                               9.459     9.459   0.0% |
-----------------------------------------------------------
Total:                                     41052.405 100.0%

Date: Tue Apr 18 00:14:57 2023
