
  ___ ___ ___ _ _ _  
 |   |   |_  | | | | 
 | | | | | . | | | | 
 |__ |  _|___|_____|  22.8.0
 |___|_|             

User:   c.zeng@d0007
Date:   Mon Apr 17 23:52:48 2023
Arch:   x86_64
Pid:    261020
CWD:    /home/c.zeng/projects/hea-corrosion/hea-mlp/data-curation/surface-md/dft-jobs/92
Python: 3.8.1
gpaw:   /home/c.zeng/usr/installs/gpaw/source/gpaw-22.8.0/gpaw
_gpaw:  /home/c.zeng/usr/installs/gpaw/source/gpaw-22.8.0/
        _gpaw.cpython-38-x86_64-linux-gnu.so
ase:    /home/c.zeng/.local/lib/python3.8/site-packages/ase-3.22.1-py3.8.egg/ase (version 3.22.1)
numpy:  /home/c.zeng/.local/lib/python3.8/site-packages/numpy (version 1.24.2)
scipy:  /home/c.zeng/.local/lib/python3.8/site-packages/scipy (version 1.10.1)
libxc:  4.2.3
units:  Angstrom and eV
cores: 30
OpenMP: False
OMP_NUM_THREADS: 1

Input parameters:
  convergence: {energy: 0.0001}
  kpts: [2 2 1]
  maxiter: 666
  mode: {ecut: 350.0,
         name: pw}
  occupations: {fixmagmom: False,
                name: fermi-dirac,
                width: 0.1}
  poissonsolver: {dipolelayer: xy}
  spinpol: True
  symmetry: {point_group: False}
  xc: PBE

System changes: positions, numbers, cell, pbc, initial_charges, initial_magmoms 

Initialize ...

species:
  Co:
    name: Cobalt
    id: 339d20d5b0b93d2de9531a1bee871d91
    Z: 27.0
    valence: 9
    core: 18
    charge: 0.0
    file: /home/c.zeng/usr/data/gpaw-setups-0.9.20000/Co.PBE.gz
    compensation charges: {type: gauss,
                           rc: 0.32,
                           lmax: 2}
    cutoffs: {filter: 1.87,
              core: 2.55}
    valence states:
      #              energy  rcut
      - 4s(2.00)    -5.469   1.005
      - 4p(0.00)    -1.277   1.058
      - 3d(7.00)    -8.205   1.005
      -  s          21.742   1.005
      -  p          25.934   1.058
      -  d          19.007   1.005
  
    # Using partial waves for Co as LCAO basis

  Fe:
    name: Iron
    id: 37abbd8d6c3c35915a9b583b742da910
    Z: 26.0
    valence: 8
    core: 18
    charge: 0.0
    file: /home/c.zeng/usr/data/gpaw-setups-0.9.20000/Fe.PBE.gz
    compensation charges: {type: gauss,
                           rc: 0.33,
                           lmax: 2}
    cutoffs: {filter: 2.06,
              core: 2.67}
    valence states:
      #              energy  rcut
      - 4s(2.00)    -5.291   1.164
      - 4p(0.00)    -1.326   1.058
      - 3d(6.00)    -7.505   1.058
      -  s          21.920   1.164
      -  p          25.885   1.058
      -  d          19.706   1.058
  
    # Using partial waves for Fe as LCAO basis

  Al:
    name: Aluminium
    id: 0292cae29f5d6237e50f6abdd43a7bdd
    Z: 13.0
    valence: 3
    core: 10
    charge: 0.0
    file: /home/c.zeng/usr/data/gpaw-setups-0.9.20000/Al.PBE.gz
    compensation charges: {type: gauss,
                           rc: 0.34,
                           lmax: 2}
    cutoffs: {filter: 1.91,
              core: 2.36}
    valence states:
      #              energy  rcut
      - 3s(2.00)    -7.753   1.085
      - 3p(1.00)    -2.712   1.085
      -  s          19.459   1.085
      -  p          24.499   1.085
      -  d           0.000   1.085
  
    # Using partial waves for Al as LCAO basis

  Cr:
    name: Chromium
    id: 33f258bda2ca9f93018e70263a35547b
    Z: 24.0
    valence: 6
    core: 18
    charge: 0.0
    file: /home/c.zeng/usr/data/gpaw-setups-0.9.20000/Cr.PBE.gz
    compensation charges: {type: gauss,
                           rc: 0.35,
                           lmax: 2}
    cutoffs: {filter: 2.14,
              core: 3.04}
    valence states:
      #              energy  rcut
      - 4s(1.00)    -4.007   1.164
      - 4p(0.00)    -0.989   1.217
      - 3d(5.00)    -2.913   1.111
      -  s          23.205   1.164
      -  p          26.223   1.217
      -  d          24.299   1.111
  
    # Using partial waves for Cr as LCAO basis

  Ni:
    name: Nickel
    id: 0d9f38a9d6e76a2886f07bb4381f212b
    Z: 28.0
    valence: 16
    core: 12
    charge: 0.0
    file: /home/c.zeng/usr/data/gpaw-setups-0.9.20000/Ni.PBE.gz
    compensation charges: {type: gauss,
                           rc: 0.36,
                           lmax: 2}
    cutoffs: {filter: 2.14,
              core: 1.98}
    valence states:
      #              energy  rcut
      - 4s(2.00)    -5.642   1.164
      - 3p(6.00)   -71.394   1.207
      - 4p(0.00)    -1.226   1.207
      - 3d(8.00)    -8.875   1.138
      -  s          21.570   1.164
      -  d          18.337   1.138
  
    # Using partial waves for Ni as LCAO basis

Reference energy: -3726899.091688  # eV

Spin-polarized calculation.
Magnetic moment: 140.000000

Convergence criteria:
 Maximum [total energy] change in last 3 cyles: 0.0001 eV / electron
 Maximum integral of absolute [dens]ity change: 0.0001 electrons / valence electron
 Maximum integral of absolute [eigenst]ate change: 4e-08 eV^2 / valence electron
 Maximum number of scf [iter]ations: 666
 (Square brackets indicate name in SCF output, whereas a 'c' in
 the SCF output indicates the quantity has converged.)

Symmetries present (total): 1

  ( 1  0  0)
  ( 0  1  0)
  ( 0  0  1)

4 k-points: 2 x 2 x 1 Monkhorst-Pack grid
2 k-points in the irreducible part of the Brillouin zone
       k-points in crystal coordinates                weights
   0:     0.25000000   -0.25000000    0.00000000          2/4
   1:     0.25000000    0.25000000    0.00000000          2/4

Wave functions: Plane wave expansion
  Cutoff energy: 350.000 eV
  Number of coefficients (min, max): 60935, 60955
  Pulay-stress correction: 0.000000 eV/Ang^3 (de/decut=0.000000)
  Using FFTW library
  ScaLapack parameters: grid=1x1, blocksize=None
  Wavefunction extrapolation:
    Improved wavefunction reuse through dual PAW basis 

Occupation numbers: Fermi-Dirac:
  width: 0.1000  # eV
 

Eigensolver
   Davidson(niter=2) 

Densities:
  Coarse grid: 56*56*128 grid
  Fine grid: 112*112*256 grid
  Total Charge: 0.000000 

Density mixing:
  Method: difference
  Backend: pulay
  Linear mixing parameter: 0.05
  old densities: 5
  Damping of long wavelength oscillations: 50 

Hamiltonian:
  XC and Coulomb potentials evaluated on a 112*112*256 grid
  Using the PBE Exchange-Correlation functional
  External potential:
    NoExternalPotential
 

XC parameters: PBE with 2 nearest neighbor stencil

Memory estimate:
  Process memory now: 381.15 MiB
  Calculator: 2131.41 MiB
    Density: 19.02 MiB
      Arrays: 7.39 MiB
      Localized functions: 8.68 MiB
      Mixer: 2.95 MiB
    Hamiltonian: 5.75 MiB
      Arrays: 5.49 MiB
      XC: 0.00 MiB
      Poisson: 0.00 MiB
      vbar: 0.26 MiB
    Wavefunctions: 2106.64 MiB
      Arrays psit_nG: 1335.62 MiB
      Eigensolver: 751.15 MiB
      Projections: 3.10 MiB
      Projectors: 1.18 MiB
      PW-descriptor: 15.59 MiB

Total number of cores used: 30
Parallelization over k-points: 2
Domain decomposition: 1 x 3 x 5

Number of atoms: 125
Number of atomic orbitals: 1075
Number of bands in calculation: 718
Number of valence electrons: 1050
Bands to converge: occupied

... initialized

Initializing position-dependent things.

Density initialized from atomic densities
Creating initial wave functions:
  718 bands from LCAO basis set

                                                                      
                                                                      
                                                                      
                                                                      
                                                                      
                                            Cr                        
                       Fe           Cr                                
                                 Al              Al     Al            
                          NiFeCo  Cr   Ni Ni FeCr  Al                 
                     Al            Al              Cr                 
                           Ni        Fe FNi  CNi   Co                 
                   Ni      Co CriAl Al         Ni                     
                Cr    CrAlr              Co    Co                     
                   Fe       Fe      Fe   Al     Fe                    
                   Fe  CFe    Co  Ni     Al                           
                  Cr    Co   Fe      Fe         Al         Al         
            Co    Ni   Fe     Co   Cr       Al                        
                  Cr     CCo  NiCoNiNiCr Ni    Ni                     
                    Cr      Ni Fe     Ni    FeCr       Ni             
                   Fe    AlNiNi  CCoAl   Cr Cr  Al                    
         Co    Ni    Co       ACr      Cr    Fe                       
               ACo      Fe Co   CCo    Al         Al                  
          Cr     Fe    Ni   CoCo   Co                                 
           Cr     Al    Fe                                            
                 Al           Co Fe                                   
           Fe     Co                Al                                
                                                                      
                                                                      
                                                                      
                                                                      
                                                                      
                                                                      

Positions:
   0 Co    10.066193    0.422532   10.377149    ( 0.0000,  0.0000,  2.1000)
   1 Fe     2.558329    0.151898    9.346779    ( 0.0000,  0.0000,  2.0000)
   2 Co     5.361205    0.500045    9.792797    ( 0.0000,  0.0000,  2.1000)
   3 Fe     7.571579    0.471497   11.199200    ( 0.0000,  0.0000,  2.0000)
   4 Co    10.389554   -0.755032   12.479485    ( 0.0000,  0.0000,  2.1000)
   5 Fe    10.688996    2.740307    9.048428    ( 0.0000,  0.0000,  2.0000)
   6 Co     4.189282    1.947152   11.803146    ( 0.0000,  0.0000,  2.1000)
   7 Al     4.197818    2.512133    9.285035    ( 0.0000,  0.0000,  0.0000)
   8 Co     8.783129    2.771818   10.491714    ( 0.0000,  0.0000,  2.1000)
   9 Co    11.544525    2.190587   11.329037    ( 0.0000,  0.0000,  2.1000)
  10 Fe    14.350117    6.291377   12.024784    ( 0.0000,  0.0000,  2.0000)
  11 Fe     3.551541    5.594933    9.381393    ( 0.0000,  0.0000,  2.0000)
  12 Co     7.719005    5.086480   10.417454    ( 0.0000,  0.0000,  2.1000)
  13 Co    10.232665    4.835502   10.278841    ( 0.0000,  0.0000,  2.1000)
  14 Al    12.893787    4.200062   10.424431    ( 0.0000,  0.0000,  0.0000)
  15 Fe    14.285692    7.245658    9.860693    ( 0.0000,  0.0000,  2.0000)
  16 Al     6.375335    7.010395   10.818950    ( 0.0000,  0.0000,  0.0000)
  17 Co     9.238694    7.021668    9.681981    ( 0.0000,  0.0000,  2.1000)
  18 Cr    11.879229    7.105143   10.100201    ( 0.0000,  0.0000,  0.0000)
  19 Ni    14.806421    9.162662   11.365488    ( 0.0000,  0.0000,  1.5000)
  20 Ni    17.800038    9.278051   10.636243    ( 0.0000,  0.0000,  1.5000)
  21 Ni     7.314452    9.498256    9.636260    ( 0.0000,  0.0000,  1.5000)
  22 Cr    13.331741    9.638480    9.870190    ( 0.0000,  0.0000,  0.0000)
  23 Al    16.008148    8.684446    8.814384    ( 0.0000,  0.0000,  0.0000)
  24 Al    14.497143   11.675275    8.691602    ( 0.0000,  0.0000,  0.0000)
  25 Al    19.223867   10.458686   12.185881    ( 0.0000,  0.0000,  0.0000)
  26 Al    10.225089    9.323457    9.860446    ( 0.0000,  0.0000,  0.0000)
  27 Al     5.343642   -0.833972   11.992292    ( 0.0000,  0.0000,  0.0000)
  28 Fe     7.826458   -0.591281   13.328171    ( 0.0000,  0.0000,  2.0000)
  29 Cr    10.827069   -1.659244   15.042031    ( 0.0000,  0.0000,  0.0000)
  30 Al    12.243712    0.716542    9.420768    ( 0.0000,  0.0000,  0.0000)
  31 Ni     3.912224    0.604831   13.751889    ( 0.0000,  0.0000,  1.5000)
  32 Ni     6.500072    2.526826   10.983244    ( 0.0000,  0.0000,  1.5000)
  33 Al     9.570602    1.575464   12.998752    ( 0.0000,  0.0000,  0.0000)
  34 Co    11.725900    0.535482   14.280123    ( 0.0000,  0.0000,  2.1000)
  35 Al     2.898056    4.089341   11.133512    ( 0.0000,  0.0000,  0.0000)
  36 Fe     5.198317    4.721198   11.129462    ( 0.0000,  0.0000,  2.0000)
  37 Ni     7.851231    3.846975   12.508505    ( 0.0000,  0.0000,  1.5000)
  38 Co    10.194716    3.910076   12.887358    ( 0.0000,  0.0000,  2.1000)
  39 Cr    13.546374    3.613497   13.117339    ( 0.0000,  0.0000,  0.0000)
  40 Fe     3.819037    7.132341   11.126892    ( 0.0000,  0.0000,  2.0000)
  41 Cr     6.473565    5.849369   13.023611    ( 0.0000,  0.0000,  0.0000)
  42 Fe     9.000495    6.095223   11.945061    ( 0.0000,  0.0000,  2.0000)
  43 Ni    12.022111    5.629050   12.137255    ( 0.0000,  0.0000,  1.5000)
  44 Cr    15.681166    3.029957   13.906183    ( 0.0000,  0.0000,  0.0000)
  45 Fe     5.313670    8.191960   12.849970    ( 0.0000,  0.0000,  2.0000)
  46 Ni     8.122943    8.520066   12.187399    ( 0.0000,  0.0000,  1.5000)
  47 Ni    10.334761    7.989187   11.902726    ( 0.0000,  0.0000,  1.5000)
  48 Ni    12.717707    8.073740   12.151017    ( 0.0000,  0.0000,  1.5000)
  49 Al    15.514407    7.973875   13.786578    ( 0.0000,  0.0000,  0.0000)
  50 Co     1.373496    1.299749   13.533541    ( 0.0000,  0.0000,  2.1000)
  51 Cr     2.676622   -0.270531   11.889375    ( 0.0000,  0.0000,  0.0000)
  52 Co     6.280699    1.345747   13.164343    ( 0.0000,  0.0000,  2.1000)
  53 Ni     9.293024    0.353060   14.966383    ( 0.0000,  0.0000,  1.5000)
  54 Ni    11.815124   -0.175573   16.498985    ( 0.0000,  0.0000,  1.5000)
  55 Cr     1.570701    1.786307   11.056055    ( 0.0000,  0.0000,  0.0000)
  56 Cr     5.353204    3.444563   13.665951    ( 0.0000,  0.0000,  0.0000)
  57 Co     7.922582    2.540956   14.789645    ( 0.0000,  0.0000,  2.1000)
  58 Co    10.428006    2.682355   14.962085    ( 0.0000,  0.0000,  2.1000)
  59 Cr    12.909121    2.303166   15.259133    ( 0.0000,  0.0000,  0.0000)
  60 Cr     3.784690    5.747074   13.120319    ( 0.0000,  0.0000,  0.0000)
  61 Co     6.602879    4.704059   15.251568    ( 0.0000,  0.0000,  2.1000)
  62 Co     8.962387    4.931855   14.460508    ( 0.0000,  0.0000,  2.1000)
  63 Ni    10.243935    6.341560   15.781660    ( 0.0000,  0.0000,  1.5000)
  64 Al    14.389713    5.227547   14.561687    ( 0.0000,  0.0000,  0.0000)
  65 Cr     5.349383    7.251947   15.005198    ( 0.0000,  0.0000,  0.0000)
  66 Fe     7.914378    7.231755   14.329339    ( 0.0000,  0.0000,  2.0000)
  67 Cr    10.401853    6.488240   13.598220    ( 0.0000,  0.0000,  0.0000)
  68 Al    12.542685    7.668161   14.722044    ( 0.0000,  0.0000,  0.0000)
  69 Fe    15.824754    6.930842   16.082265    ( 0.0000,  0.0000,  2.0000)
  70 Cr     6.707529    9.539398   14.200082    ( 0.0000,  0.0000,  0.0000)
  71 Ni     9.309610    9.116598   14.272074    ( 0.0000,  0.0000,  1.5000)
  72 Co    11.968664   10.180491   14.254423    ( 0.0000,  0.0000,  2.1000)
  73 Co    14.566903    9.263161   15.730444    ( 0.0000,  0.0000,  2.1000)
  74 Cr    14.299605    7.803923   17.744051    ( 0.0000,  0.0000,  0.0000)
  75 Al    11.989871    2.903954   19.636932    ( 0.0000,  0.0000,  0.0000)
  76 Co     2.428466    1.891792   16.067889    ( 0.0000,  0.0000,  2.1000)
  77 Ni     4.754700    2.599783   15.673728    ( 0.0000,  0.0000,  1.5000)
  78 Fe     7.009094    2.935978   16.933974    ( 0.0000,  0.0000,  2.0000)
  79 Fe    11.898213    5.028057   14.980959    ( 0.0000,  0.0000,  2.0000)
  80 Al    13.865389    3.612971   17.755955    ( 0.0000,  0.0000,  0.0000)
  81 Cr     4.095556    4.914370   15.216800    ( 0.0000,  0.0000,  0.0000)
  82 Cr     7.005889    4.618942   18.325412    ( 0.0000,  0.0000,  0.0000)
  83 Co     9.071835    4.207728   16.828831    ( 0.0000,  0.0000,  2.1000)
  84 Fe    11.451800    4.405322   17.689407    ( 0.0000,  0.0000,  2.0000)
  85 Ni    15.595215    5.548686   17.967055    ( 0.0000,  0.0000,  1.5000)
  86 Cr     5.178516    6.021466   17.096220    ( 0.0000,  0.0000,  0.0000)
  87 Fe     7.900498    6.129200   16.581133    ( 0.0000,  0.0000,  2.0000)
  88 Ni     9.198461    6.040172   18.476130    ( 0.0000,  0.0000,  1.5000)
  89 Co    12.738770    6.497242   16.725701    ( 0.0000,  0.0000,  2.1000)
  90 Co    16.847271    7.751738   18.391725    ( 0.0000,  0.0000,  2.1000)
  91 Co     6.642208    8.724427   16.431731    ( 0.0000,  0.0000,  2.1000)
  92 Fe     7.812330   10.701201   15.837870    ( 0.0000,  0.0000,  2.0000)
  93 Al     9.121583    8.158284   16.706584    ( 0.0000,  0.0000,  0.0000)
  94 Ni    13.087528    8.227405   19.462459    ( 0.0000,  0.0000,  1.5000)
  95 Cr    16.122996   10.322221   17.350033    ( 0.0000,  0.0000,  0.0000)
  96 Co     7.033028   12.027955   17.765907    ( 0.0000,  0.0000,  2.1000)
  97 Ni    10.334182   11.100895   16.253981    ( 0.0000,  0.0000,  1.5000)
  98 Al    13.200962   11.459425   15.916033    ( 0.0000,  0.0000,  0.0000)
  99 Al    15.373443   12.698019   17.128701    ( 0.0000,  0.0000,  0.0000)
 100 Cr     8.842900   10.840460   18.092002    ( 0.0000,  0.0000,  0.0000)
 101 Cr     9.436973   12.849843   18.556742    ( 0.0000,  0.0000,  0.0000)
 102 Fe     5.453881    0.929392   18.158101    ( 0.0000,  0.0000,  2.0000)
 103 Cr    12.855424   10.790353   20.334253    ( 0.0000,  0.0000,  0.0000)
 104 Al    15.447077    9.665741   19.667304    ( 0.0000,  0.0000,  0.0000)
 105 Cr     4.261795    0.483409   20.347645    ( 0.0000,  0.0000,  0.0000)
 106 Fe     4.703523    3.752361   17.756827    ( 0.0000,  0.0000,  2.0000)
 107 Ni     5.096091    2.950383   19.903291    ( 0.0000,  0.0000,  1.5000)
 108 Al     7.332894    1.936427   19.094830    ( 0.0000,  0.0000,  0.0000)
 109 Cr     9.303140    3.433487   19.136200    ( 0.0000,  0.0000,  0.0000)
 110 Ni    15.630469    4.148548   19.900707    ( 0.0000,  0.0000,  1.5000)
 111 Al     5.231092    5.358707   19.734410    ( 0.0000,  0.0000,  0.0000)
 112 Fe     7.994573    5.870773   20.346246    ( 0.0000,  0.0000,  2.0000)
 113 Al    10.673188    5.281786   20.189134    ( 0.0000,  0.0000,  0.0000)
 114 Ni    13.287600    5.613913   18.975051    ( 0.0000,  0.0000,  1.5000)
 115 Al    18.156750   10.016595   18.980373    ( 0.0000,  0.0000,  0.0000)
 116 Ni     6.886168    7.394794   18.387845    ( 0.0000,  0.0000,  1.5000)
 117 Al     9.173604    8.222324   19.816094    ( 0.0000,  0.0000,  0.0000)
 118 Fe    11.009219    7.293292   18.052125    ( 0.0000,  0.0000,  2.0000)
 119 Cr    15.112746    7.032260   20.171303    ( 0.0000,  0.0000,  0.0000)
 120 Fe     4.135646   12.165795   19.041906    ( 0.0000,  0.0000,  2.0000)
 121 Ni     5.068574   13.166453   17.217244    ( 0.0000,  0.0000,  1.5000)
 122 Ni    11.191865    9.524849   18.835698    ( 0.0000,  0.0000,  1.5000)
 123 Fe    11.941791    9.393329   16.749452    ( 0.0000,  0.0000,  2.0000)
 124 Fe    13.653474   10.145679   18.193665    ( 0.0000,  0.0000,  2.0000)

Unit cell:
           periodic     x           y           z      points  spacing
  1. axis:    yes   12.688900    0.000000    0.000000    56     0.1962
  2. axis:    yes    6.352870   11.003500    0.000000    56     0.1965
  3. axis:    no     0.000000    0.000000   29.353100   128     0.2293

  Lengths:  12.688900  12.705746  29.353100
  Angles:   90.000000  90.000000  60.000014

Effective grid spacing dv^(1/3) = 0.2169

     iter     time        total  log10-change:  magmom
                         energy  eigst   dens
iter:   1 00:00:26 -1093.404983                  +140.3334
iter:   2 00:02:53 -1035.133822  +0.06  -1.06    +70.8720
iter:   3 00:05:21 -2361.608206  +0.89  -0.99    +63.8598
iter:   4 00:07:49 -1000.097473  +0.48  -0.61    +53.0833
iter:   5 00:10:17  -946.520805  +0.13  -1.06    +41.7194
iter:   6 00:12:44  -984.369684  -0.20  -1.15    +43.7999
iter:   7 00:15:12  -917.281365  -1.08  -1.07    +45.2660
iter:   8 00:17:40  -918.413771  -1.41  -1.22    +49.1953
iter:   9 00:20:08 -1080.507549  -0.74  -1.22    +52.9918
iter:  10 00:22:36  -918.684478  -0.87  -1.03    +50.4198
iter:  11 00:25:04  -890.587160  -1.48  -1.21    +52.5924
iter:  12 00:27:32  -936.917790  -1.02  -1.34    +55.9475
iter:  13 00:30:00  -883.513151  -1.27  -1.22    +51.2618
iter:  14 00:32:28  -876.804046  -1.63  -1.39    +50.4970
iter:  15 00:34:54  -869.066484  -1.50  -1.41    +57.0086
iter:  16 00:37:23  -908.946108  -1.49  -1.53    +60.6181
iter:  17 00:39:51  -875.521057  -1.60  -1.30    +58.1430
iter:  18 00:42:20  -874.700234  -2.04  -1.49    +59.1328
iter:  19 00:44:48  -868.641615  -1.88  -1.54    +63.8679
iter:  20 00:47:17  -868.781032  -2.05  -1.60    +63.3623
iter:  21 00:49:47  -863.178786  -2.41  -1.60    +59.3356
iter:  22 00:52:17  -863.356004  -2.59  -1.75    +61.1818
iter:  23 00:54:46  -867.312254  -2.53  -1.77    +64.9486
iter:  24 00:57:16  -864.461820  -2.59  -1.70    +65.3315
iter:  25 00:59:46  -865.264348  -2.57  -1.84    +68.2695
iter:  26 01:02:16  -870.847602  -2.48  -1.84    +69.5861
iter:  27 01:04:46  -866.372973  -2.21  -1.69    +69.5723
iter:  28 01:07:16  -871.313570  -2.28  -1.93    +71.3052
iter:  29 01:09:46  -867.581118  -2.27  -1.74    +71.7894
iter:  30 01:12:16  -866.268663  -2.70  -1.91    +72.6931
iter:  31 01:14:46  -866.001216  -2.81  -2.07    +73.4906
iter:  32 01:17:16  -866.334406  -2.81  -2.15    +74.0375
iter:  33 01:19:47  -867.134660  -2.95  -2.11    +75.8618
iter:  34 01:22:17  -867.784180  -2.73  -2.06    +75.6995
iter:  35 01:24:47  -866.535430  -3.32  -2.00    +76.3707
iter:  36 01:27:17  -866.755041  -3.21  -2.23    +78.0352
iter:  37 01:29:47  -867.166477  -3.15  -2.30    +79.4681
iter:  38 01:32:17  -867.469940  -3.22  -2.29    +80.3395
iter:  39 01:34:48  -868.518164  -2.85  -2.28    +82.0482
iter:  40 01:37:18  -867.937999  -3.34  -2.10    +81.2725
iter:  41 01:39:49  -868.075950  -3.59  -2.24    +82.0812
iter:  42 01:42:19  -868.080439  -3.09  -2.24    +83.5519
iter:  43 01:44:49  -867.896862  -3.59  -2.22    +83.5291
iter:  44 01:47:19  -868.017366  -3.36  -2.25    +83.7411
iter:  45 01:49:49  -869.443733  -3.16  -2.23    +83.5590
iter:  46 01:52:20  -868.031536  -3.21  -2.01    +83.3485
iter:  47 01:54:50  -868.951734  -2.87  -2.28    +83.3735
iter:  48 01:57:20  -868.270543  -3.06  -2.13    +83.8216
iter:  49 01:59:50  -867.980729  -3.38  -2.25    +83.8613
iter:  50 02:02:21  -868.109997  -3.22  -2.36    +83.4943
iter:  51 02:04:51  -868.501951  -3.26  -2.35    +83.4353
iter:  52 02:07:21  -868.634576  -3.12  -2.24    +83.9278
iter:  53 02:09:51  -868.250746  -3.55  -2.17    +83.9667
iter:  54 02:12:21  -868.082904  -3.28  -2.32    +83.2392
iter:  55 02:14:51  -867.946337  -3.73  -2.40    +83.2775
iter:  56 02:17:21  -868.053268  -3.90  -2.51    +83.5646
iter:  57 02:19:52  -868.174172  -3.83  -2.44    +83.5468
iter:  58 02:22:22  -868.450011  -3.30  -2.39    +83.4131
iter:  59 02:24:52  -868.039835  -3.81  -2.27    +83.4856
iter:  60 02:27:22  -868.140887  -3.49  -2.54    +84.0038
iter:  61 02:29:52  -868.013511  -3.53  -2.50    +84.0154
iter:  62 02:32:22  -868.120988  -3.74  -2.60    +83.7689
iter:  63 02:34:52  -868.040080  -3.86  -2.53    +83.7698
iter:  64 02:37:22  -868.114779c -3.68  -2.63    +84.0435
iter:  65 02:39:53  -867.984718  -4.37  -2.48    +83.9005
iter:  66 02:42:23  -867.971156  -4.37  -2.70    +83.6464
iter:  67 02:44:53  -868.017281c -4.14  -2.81    +83.6077
iter:  68 02:47:24  -868.015601c -4.51  -2.73    +83.6259
iter:  69 02:49:54  -868.020329c -4.24  -2.72    +83.5148
iter:  70 02:52:24  -868.398923  -3.60  -2.81    +83.4058
iter:  71 02:54:54  -868.024483  -3.93  -2.37    +83.4063
iter:  72 02:57:24  -868.047182  -4.12  -2.86    +83.6149
iter:  73 02:59:54  -868.016117c -4.47  -2.78    +83.5610
iter:  74 03:02:24  -868.017491c -4.80  -2.90    +83.3773
iter:  75 03:04:54  -868.028791c -5.00  -2.99    +83.3327
iter:  76 03:07:25  -868.046730c -4.70  -2.98    +83.3026
iter:  77 03:09:55  -868.039427c -4.87  -2.92    +83.2583
iter:  78 03:12:25  -868.053699c -4.89  -3.02    +83.2653
iter:  79 03:14:55  -868.084473c -4.67  -3.01    +83.2306
iter:  80 03:17:25  -868.060678c -5.08  -2.94    +83.2308
iter:  81 03:19:55  -868.088197c -4.80  -2.97    +83.2277
iter:  82 03:22:26  -868.075553c -4.61  -2.83    +83.1324
iter:  83 03:24:56  -868.077320c -4.60  -3.00    +83.1153
iter:  84 03:27:26  -868.093910c -4.50  -3.01    +83.1393
iter:  85 03:29:56  -868.107228c -4.43  -2.97    +83.0333
iter:  86 03:32:26  -868.138550c -4.32  -2.94    +83.0179
iter:  87 03:34:56  -868.104020c -4.46  -2.76    +82.9454
iter:  88 03:37:26  -868.096371c -4.78  -2.99    +83.0101
iter:  89 03:39:57  -868.099855c -4.69  -3.13    +82.9948
iter:  90 03:42:27  -868.095576c -4.94  -3.10    +82.9684
iter:  91 03:44:57  -868.101811c -4.90  -3.19    +82.9644
iter:  92 03:47:27  -868.187047c -4.33  -3.12    +82.9402
iter:  93 03:49:58  -868.103697c -4.71  -2.72    +82.9404
iter:  94 03:52:28  -868.101114c -5.11  -3.22    +82.8815
iter:  95 03:54:58  -868.109596c -4.91  -3.31    +82.9046
iter:  96 03:57:28  -868.104132c -5.08  -3.21    +82.9458
iter:  97 03:59:58  -868.107305c -5.45  -3.37    +82.9318
iter:  98 04:02:28  -868.108658c -5.19  -3.36    +82.9420
iter:  99 04:04:58  -868.105038c -5.95  -3.16    +82.9192
iter: 100 04:07:29  -868.106216c -5.66  -3.32    +82.8740
iter: 101 04:09:59  -868.109055c -5.54  -3.37    +82.8760
iter: 102 04:12:29  -868.104449c -5.33  -3.27    +82.8613
iter: 103 04:14:59  -868.116949c -4.98  -3.47    +82.8122
iter: 104 04:17:29  -868.106723c -5.70  -3.24    +82.8363
iter: 105 04:19:59  -868.106942c -5.45  -3.63    +82.8428
iter: 106 04:22:30  -868.107797c -5.93  -3.64    +82.8688
iter: 107 04:25:00  -868.107923c -6.02  -3.70    +82.8834
iter: 108 04:27:30  -868.108645c -6.14  -3.87    +82.8856
iter: 109 04:30:00  -868.106876c -6.10  -3.72    +82.8958
iter: 110 04:32:30  -868.108467c -6.35  -3.92    +82.8881
iter: 111 04:35:00  -868.107960c -6.57  -3.81    +82.8891
iter: 112 04:37:30  -868.109192c -6.26  -3.92    +82.8876
iter: 113 04:40:00  -868.112085c -5.59  -3.80    +82.8914
iter: 114 04:42:28  -868.109307c -5.83  -3.42    +82.8893
iter: 115 04:44:56  -868.109059c -6.43  -3.79    +82.8821
iter: 116 04:47:23  -868.108606c -6.34  -4.12c   +82.8843
iter: 117 04:49:51  -868.109167c -6.71  -4.11c   +82.8793
iter: 118 04:52:19  -868.109041c -6.70  -4.16c   +82.8742
iter: 119 04:54:46  -868.109474c -6.76  -4.26c   +82.8693
iter: 120 04:57:14  -868.109140c -6.74  -4.29c   +82.8653
iter: 121 04:59:41  -868.109671c -6.79  -4.05c   +82.8573
iter: 122 05:02:09  -868.110072c -6.85  -4.27c   +82.8579
iter: 123 05:04:37  -868.109692c -6.52  -4.17c   +82.8511
iter: 124 05:07:04  -868.110156c -6.33  -4.24c   +82.8611
iter: 125 05:09:32  -868.109867c -7.40c -4.30c   +82.8599

Converged after 125 iterations.

Dipole moment: (-20.017457, -18.507634, 0.174080) |e|*Ang

Total magnetic moment: (0.000000, 0.000000, 82.859903)
Local magnetic moments:
   0 Co ( 0.000000,  0.000000,  1.436948)
   1 Fe ( 0.000000,  0.000000,  2.612569)
   2 Co ( 0.000000,  0.000000,  1.133973)
   3 Fe ( 0.000000,  0.000000,  2.167456)
   4 Co ( 0.000000,  0.000000,  1.413174)
   5 Fe ( 0.000000,  0.000000,  2.962507)
   6 Co ( 0.000000,  0.000000,  1.004501)
   7 Al ( 0.000000,  0.000000, -0.032529)
   8 Co ( 0.000000,  0.000000,  1.754849)
   9 Co ( 0.000000,  0.000000,  1.445600)
  10 Fe ( 0.000000,  0.000000,  2.290351)
  11 Fe ( 0.000000,  0.000000,  2.800488)
  12 Co ( 0.000000,  0.000000,  1.649182)
  13 Co ( 0.000000,  0.000000,  1.717605)
  14 Al ( 0.000000,  0.000000, -0.005839)
  15 Fe ( 0.000000,  0.000000,  2.295568)
  16 Al ( 0.000000,  0.000000, -0.043646)
  17 Co ( 0.000000,  0.000000,  1.699074)
  18 Cr ( 0.000000,  0.000000, -3.041696)
  19 Ni ( 0.000000,  0.000000,  0.170386)
  20 Ni ( 0.000000,  0.000000,  0.320271)
  21 Ni ( 0.000000,  0.000000,  0.485173)
  22 Cr ( 0.000000,  0.000000, -2.549526)
  23 Al ( 0.000000,  0.000000, -0.031743)
  24 Al ( 0.000000,  0.000000, -0.018744)
  25 Al ( 0.000000,  0.000000, -0.010015)
  26 Al ( 0.000000,  0.000000, -0.032821)
  27 Al ( 0.000000,  0.000000, -0.024667)
  28 Fe ( 0.000000,  0.000000,  2.666041)
  29 Cr ( 0.000000,  0.000000,  1.214867)
  30 Al ( 0.000000,  0.000000, -0.028256)
  31 Ni ( 0.000000,  0.000000,  0.363938)
  32 Ni ( 0.000000,  0.000000,  0.651409)
  33 Al ( 0.000000,  0.000000, -0.048521)
  34 Co ( 0.000000,  0.000000,  1.059598)
  35 Al ( 0.000000,  0.000000, -0.034747)
  36 Fe ( 0.000000,  0.000000,  2.383883)
  37 Ni ( 0.000000,  0.000000,  0.451055)
  38 Co ( 0.000000,  0.000000,  1.633571)
  39 Cr ( 0.000000,  0.000000,  2.214666)
  40 Fe ( 0.000000,  0.000000,  2.346139)
  41 Cr ( 0.000000,  0.000000, -1.925388)
  42 Fe ( 0.000000,  0.000000,  2.284747)
  43 Ni ( 0.000000,  0.000000,  0.189113)
  44 Cr ( 0.000000,  0.000000, -1.685121)
  45 Fe ( 0.000000,  0.000000,  1.978175)
  46 Ni ( 0.000000,  0.000000,  0.185521)
  47 Ni ( 0.000000,  0.000000,  0.134223)
  48 Ni ( 0.000000,  0.000000,  0.123435)
  49 Al ( 0.000000,  0.000000, -0.034222)
  50 Co ( 0.000000,  0.000000,  0.768952)
  51 Cr ( 0.000000,  0.000000,  2.249401)
  52 Co ( 0.000000,  0.000000,  1.446557)
  53 Ni ( 0.000000,  0.000000,  0.286240)
  54 Ni ( 0.000000,  0.000000,  0.300325)
  55 Cr ( 0.000000,  0.000000, -2.693960)
  56 Cr ( 0.000000,  0.000000,  1.373355)
  57 Co ( 0.000000,  0.000000,  1.530424)
  58 Co ( 0.000000,  0.000000,  1.515207)
  59 Cr ( 0.000000,  0.000000, -2.069465)
  60 Cr ( 0.000000,  0.000000, -0.181456)
  61 Co ( 0.000000,  0.000000,  1.410483)
  62 Co ( 0.000000,  0.000000,  1.389853)
  63 Ni ( 0.000000,  0.000000,  0.224056)
  64 Al ( 0.000000,  0.000000, -0.024274)
  65 Cr ( 0.000000,  0.000000, -0.695463)
  66 Fe ( 0.000000,  0.000000,  2.404501)
  67 Cr ( 0.000000,  0.000000, -1.756795)
  68 Al ( 0.000000,  0.000000, -0.024273)
  69 Fe ( 0.000000,  0.000000,  1.951756)
  70 Cr ( 0.000000,  0.000000, -0.769101)
  71 Ni ( 0.000000,  0.000000,  0.358696)
  72 Co ( 0.000000,  0.000000,  1.220004)
  73 Co ( 0.000000,  0.000000,  0.953893)
  74 Cr ( 0.000000,  0.000000, -1.582827)
  75 Al ( 0.000000,  0.000000, -0.034117)
  76 Co ( 0.000000,  0.000000,  1.104180)
  77 Ni ( 0.000000,  0.000000,  0.341082)
  78 Fe ( 0.000000,  0.000000,  1.746679)
  79 Fe ( 0.000000,  0.000000,  2.535599)
  80 Al ( 0.000000,  0.000000, -0.006673)
  81 Cr ( 0.000000,  0.000000,  0.142601)
  82 Cr ( 0.000000,  0.000000, -1.547154)
  83 Co ( 0.000000,  0.000000,  1.267961)
  84 Fe ( 0.000000,  0.000000,  2.587264)
  85 Ni ( 0.000000,  0.000000,  0.187411)
  86 Cr ( 0.000000,  0.000000,  0.076805)
  87 Fe ( 0.000000,  0.000000,  2.115418)
  88 Ni ( 0.000000,  0.000000,  0.576841)
  89 Co ( 0.000000,  0.000000,  1.220342)
  90 Co ( 0.000000,  0.000000,  0.818047)
  91 Co ( 0.000000,  0.000000,  1.257128)
  92 Fe ( 0.000000,  0.000000,  2.355243)
  93 Al ( 0.000000,  0.000000, -0.041300)
  94 Ni ( 0.000000,  0.000000, -0.012844)
  95 Cr ( 0.000000,  0.000000,  1.944101)
  96 Co ( 0.000000,  0.000000,  0.409399)
  97 Ni ( 0.000000,  0.000000,  0.498768)
  98 Al ( 0.000000,  0.000000, -0.051701)
  99 Al ( 0.000000,  0.000000, -0.039582)
 100 Cr ( 0.000000,  0.000000,  1.833512)
 101 Cr ( 0.000000,  0.000000, -2.094729)
 102 Fe ( 0.000000,  0.000000,  2.351432)
 103 Cr ( 0.000000,  0.000000,  2.974867)
 104 Al ( 0.000000,  0.000000, -0.018258)
 105 Cr ( 0.000000,  0.000000, -3.113138)
 106 Fe ( 0.000000,  0.000000,  2.468456)
 107 Ni ( 0.000000,  0.000000,  0.225139)
 108 Al ( 0.000000,  0.000000, -0.038800)
 109 Cr ( 0.000000,  0.000000,  2.486584)
 110 Ni ( 0.000000,  0.000000,  0.160062)
 111 Al ( 0.000000,  0.000000, -0.008865)
 112 Fe ( 0.000000,  0.000000,  2.871592)
 113 Al ( 0.000000,  0.000000, -0.033784)
 114 Ni ( 0.000000,  0.000000,  0.199961)
 115 Al ( 0.000000,  0.000000, -0.023178)
 116 Ni ( 0.000000,  0.000000,  0.442760)
 117 Al ( 0.000000,  0.000000, -0.035904)
 118 Fe ( 0.000000,  0.000000,  2.527529)
 119 Cr ( 0.000000,  0.000000, -3.348021)
 120 Fe ( 0.000000,  0.000000,  2.320207)
 121 Ni ( 0.000000,  0.000000,  0.451465)
 122 Ni ( 0.000000,  0.000000,  0.449533)
 123 Fe ( 0.000000,  0.000000,  2.683593)
 124 Fe ( 0.000000,  0.000000,  1.692221)

Energy contributions relative to reference atoms: (reference = -3726899.091688)

Kinetic:       +289.390994
Potential:     -288.180492
External:        +0.000000
XC:            -901.267120
Entropy (-ST):   -4.971703
Local:          +34.432602
--------------------------
Free energy:   -870.595718
Extrapolated:  -868.109867

Dipole-layer corrected work functions: 4.286226, 4.060618 eV

Spin contamination: 37.427149 electrons
Showing all kpts
                      Up                     Down
 Kpt  Band  Eigenvalues  Occupancy  Eigenvalues  Occupancy
  0   523      0.26790    0.99873      1.33603    0.01779
  0   524      0.27196    0.99868      1.34787    0.01583
  0   525      0.29185    0.99839      1.35854    0.01425
  0   526      0.30138    0.99823      1.36320    0.01361

  1   523      0.26043    0.99882      1.33222    0.01846
  1   524      0.26551    0.99876      1.34325    0.01657
  1   525      0.28810    0.99845      1.36063    0.01396
  1   526      0.30323    0.99820      1.36624    0.01321


Fermi level: 0.93488

Gap: 0.006 eV
Transition (v -> c):
  (s=1, k=1, n=483, [0.25, 0.25, 0.00]) -> (s=1, k=1, n=484, [0.25, 0.25, 0.00])

Forces in eV/Ang:
  0 Co   -0.72071    0.02766    0.22487
  1 Fe   -0.38567    1.92865    0.30422
  2 Co   -0.12448   -0.37152    0.68354
  3 Fe    0.57090    0.25036   -0.01805
  4 Co   -0.65963    0.33552    1.34566
  5 Fe   -0.25567   -0.14617    1.38714
  6 Co    0.16828    0.23778   -0.21718
  7 Al   -0.04194    0.47833    0.75629
  8 Co    1.09341   -0.37616    0.22496
  9 Co   -0.29573    0.39051   -0.15044
 10 Fe   -0.17550   -0.41358   -0.12263
 11 Fe    0.24678    0.39252   -0.06370
 12 Co   -0.30998   -1.32102   -0.37602
 13 Co    0.51249   -0.17097    0.37202
 14 Al   -0.25451    0.01959   -0.06893
 15 Fe   -0.22948   -0.41121    0.30380
 16 Al    0.24804    1.34983   -1.27124
 17 Co   -0.34671   -0.27181    1.27291
 18 Cr   -0.44327   -0.87124   -0.27785
 19 Ni    2.10195   -0.90198    0.90406
 20 Ni   -0.43148   -0.26726   -1.45675
 21 Ni    0.42674   -0.01830    1.16754
 22 Cr   -1.31487   -0.14653   -1.62648
 23 Al    0.09182    0.35718    1.21999
 24 Al    0.10958    0.44490    0.82591
 25 Al   -0.57296    1.89135   -2.94456
 26 Al    0.57462   -0.59791   -0.26970
 27 Al   -0.30190    1.13471   -0.79541
 28 Fe    0.00103   -0.61413    0.71116
 29 Cr   -0.70857   -0.43060    0.29832
 30 Al    0.99708   -1.03588    0.31311
 31 Ni   -0.71086    0.56482    0.54875
 32 Ni   -1.16315    0.62121   -0.40670
 33 Al   -0.51075   -0.23449   -1.60644
 34 Co   -0.15729    0.62973   -1.26589
 35 Al   -0.90501   -0.54902    1.06790
 36 Fe    0.73563   -0.16793   -0.19516
 37 Ni   -0.63144   -0.50982    0.49721
 38 Co    1.50083    0.21048   -1.11044
 39 Cr   -1.40582   -0.52547   -1.74432
 40 Fe   -0.06418    0.22693   -0.01433
 41 Cr   -0.06251   -0.81622    0.35672
 42 Fe   -1.04258   -0.44106    0.30114
 43 Ni   -0.18484   -0.09873    0.43804
 44 Cr   -0.15940   -0.04517   -0.48600
 45 Fe    0.31328   -0.40188   -0.40002
 46 Ni   -1.85459   -0.40461   -0.28584
 47 Ni    0.75058    1.29777   -0.49300
 48 Ni    0.75891   -0.03988    0.95980
 49 Al   -0.70764    0.45778   -1.07273
 50 Co    0.30113   -1.50718    0.11158
 51 Cr    0.71355   -0.05771   -0.14145
 52 Co    0.38150   -0.18582    0.24166
 53 Ni    0.47398    0.06602    0.87493
 54 Ni    0.27594    0.97500    0.61765
 55 Cr   -0.06673   -0.19909   -0.02734
 56 Cr    0.16411    0.62795   -2.24574
 57 Co   -0.27042    0.28704   -0.11587
 58 Co    0.14297    0.67955    0.47312
 59 Cr    0.12668    0.74323    0.43871
 60 Cr    0.99833   -0.47354    0.52715
 61 Co   -0.15312    0.12847    0.39247
 62 Co   -1.34623   -0.60320    0.51396
 63 Ni   -0.02463    0.62655    2.52467
 64 Al   -0.18060    1.44966    1.53326
 65 Cr    0.22055   -0.90991   -0.06700
 66 Fe   -0.08036   -0.29908    0.45216
 67 Cr    0.52430    0.42628   -0.21909
 68 Al    0.15206    0.79766   -0.69744
 69 Fe   -0.46350    1.04525   -0.55352
 70 Cr    0.85827   -1.08029    1.89497
 71 Ni    0.84790    0.95065    0.07624
 72 Co    0.40793   -1.15067    1.57081
 73 Co   -0.60174   -0.35859    0.04024
 74 Cr    1.38427    0.40607   -0.92801
 75 Al    0.45680    0.31842    0.01923
 76 Co   -0.19067    0.48017    0.08141
 77 Ni    0.49527   -1.46203    0.92078
 78 Fe   -1.45449   -0.46809   -0.43248
 79 Fe    0.46379   -1.58780   -1.00934
 80 Al    0.67883   -0.27533   -0.46825
 81 Cr    0.72058   -0.43566    0.56084
 82 Cr    1.29575    0.28315   -0.12149
 83 Co    0.81398   -0.60146   -0.98898
 84 Fe   -0.96154    1.71156   -0.86295
 85 Ni   -0.05593   -0.15956    0.26920
 86 Cr    0.58405    0.80417    0.14941
 87 Fe   -1.94530    0.27412   -1.17156
 88 Ni   -0.04597   -0.14652   -0.31265
 89 Co    0.26262   -0.86389   -0.05954
 90 Co    0.00919    0.24526   -0.09076
 91 Co   -0.16409   -0.89495    0.62532
 92 Fe    1.14509    0.51773   -0.67189
 93 Al   -0.28024    2.36354    0.05704
 94 Ni   -0.83621   -0.30384    1.46617
 95 Cr   -0.80975   -1.55909   -0.52181
 96 Co    0.20479    0.72443    0.73604
 97 Ni    0.58962   -0.39473   -0.60907
 98 Al   -0.01900    0.40860   -0.39439
 99 Al    0.49580    0.10586   -1.16425
100 Cr    0.86894   -0.98679    1.20454
101 Cr   -0.02619    0.87261   -0.57278
102 Fe   -1.09480   -0.14874   -0.97510
103 Cr   -0.31027   -0.18720    0.57995
104 Al    0.32197   -0.26987    0.45382
105 Cr    0.09547   -0.28936   -0.10110
106 Fe   -0.34088   -0.13661   -0.75876
107 Ni    0.12655   -1.03623   -0.08833
108 Al    0.19588   -0.15830    1.40385
109 Cr    0.38691    0.65475   -0.20949
110 Ni   -0.09617    0.02739   -0.77601
111 Al   -1.50335    1.32560    0.46591
112 Fe   -0.41312   -0.21212   -0.11748
113 Al    0.81040    0.53573   -0.17163
114 Ni   -0.49131    0.16954    0.40345
115 Al    0.76927   -0.63722   -0.88352
116 Ni   -0.02321   -0.22586    1.09803
117 Al    0.00842    0.13061   -0.66508
118 Fe    2.04045   -0.10868    0.65110
119 Cr    0.74648   -0.93752   -0.42192
120 Fe   -0.69495   -1.61326    0.53228
121 Ni   -0.61484    0.84781   -0.26032
122 Ni   -1.30938    0.43929    1.17623
123 Fe    0.45047   -1.00611   -1.49456
124 Fe   -0.22642    0.83610   -1.54777

Timing:                              incl.     excl.
-----------------------------------------------------------
Forces:                             43.282    43.282   0.2% |
Hamiltonian:                         2.169     0.018   0.0% |
 Atomic:                             0.412     0.002   0.0% |
  XC Correction:                     0.410     0.410   0.0% |
 Calculate atomic Hamiltonians:      1.098     1.098   0.0% |
 Communicate:                        0.102     0.102   0.0% |
 Initialize Hamiltonian:             0.001     0.001   0.0% |
 Poisson:                            0.129     0.129   0.0% |
 XC 3D grid:                         0.409     0.409   0.0% |
LCAO initialization:               289.888     0.573   0.0% |
 LCAO eigensolver:                  13.645     0.012   0.0% |
  Calculate projections:             0.000     0.000   0.0% |
  DenseAtomicCorrection:             0.000     0.000   0.0% |
  Distribute overlap matrix:         9.023     9.023   0.0% |
  Orbital Layouts:                   4.501     4.501   0.0% |
  Potential matrix:                  0.007     0.007   0.0% |
  Sum over cells:                    0.102     0.102   0.0% |
 LCAO to grid:                     273.369   273.369   1.4% ||
 Set positions (LCAO WFS):           2.302     2.015   0.0% |
  Basic WFS set positions:           0.004     0.004   0.0% |
  Basis functions set positions:     0.001     0.001   0.0% |
  P tci:                             0.000     0.000   0.0% |
  ST tci:                            0.101     0.101   0.0% |
  mktci:                             0.181     0.181   0.0% |
PWDescriptor:                        0.176     0.176   0.0% |
SCF-cycle:                       18707.329     1.512   0.0% |
 Davidson:                       18000.123  6156.066  32.3% |------------|
  Apply H:                         416.879   410.656   2.2% ||
   HMM T:                            6.224     6.224   0.0% |
  Subspace diag:                  2021.679     0.051   0.0% |
   calc_h_matrix:                  907.415   509.594   2.7% ||
    Apply H:                       397.821   392.142   2.1% ||
     HMM T:                          5.678     5.678   0.0% |
   diagonalize:                    140.889   140.889   0.7% |
   rotate_psi:                     973.325   973.325   5.1% |-|
  calc. matrices:                 4645.122  3905.671  20.5% |-------|
   Apply H:                        739.451   727.533   3.8% |-|
    HMM T:                          11.918    11.918   0.1% |
  diagonalize:                    2717.463  2717.463  14.3% |-----|
  rotate_psi:                     2042.913  2042.913  10.7% |---|
 Density:                          388.976     0.004   0.0% |
  Atomic density matrices:           3.668     3.668   0.0% |
  Mix:                             195.188   195.188   1.0% |
  Multipole moments:                 0.114     0.114   0.0% |
  Pseudo density:                  190.001   189.995   1.0% |
   Symmetrize density:               0.006     0.006   0.0% |
 Hamiltonian:                      298.035     1.785   0.0% |
  Atomic:                           51.211     0.179   0.0% |
   XC Correction:                   51.031    51.031   0.3% |
  Calculate atomic Hamiltonians:   172.551   172.551   0.9% |
  Communicate:                      13.907    13.907   0.1% |
  Poisson:                           6.000     6.000   0.0% |
  XC 3D grid:                       52.581    52.581   0.3% |
 Orthonormalize:                    18.683     0.001   0.0% |
  calc_s_matrix:                     2.184     2.184   0.0% |
  inverse-cholesky:                  0.779     0.779   0.0% |
  projections:                      11.890    11.890   0.1% |
  rotate_psi_s:                      3.830     3.830   0.0% |
Set symmetry:                        0.001     0.001   0.0% |
Other:                               8.608     8.608   0.0% |
-----------------------------------------------------------
Total:                                     19051.453 100.0%

Date: Tue Apr 18 05:10:20 2023
