
  ___ ___ ___ _ _ _  
 |   |   |_  | | | | 
 | | | | | . | | | | 
 |__ |  _|___|_____|  22.8.0
 |___|_|             

User:   c.zeng@d0006
Date:   Fri Apr 14 16:29:39 2023
Arch:   x86_64
Pid:    258168
CWD:    /home/c.zeng/projects/hea-corrosion/hea-mlp/data-curation/bulk-mcmc/dft-jobs/144
Python: 3.8.1
gpaw:   /home/c.zeng/usr/installs/gpaw/source/gpaw-22.8.0/gpaw
_gpaw:  /home/c.zeng/usr/installs/gpaw/source/gpaw-22.8.0/
        _gpaw.cpython-38-x86_64-linux-gnu.so
ase:    /home/c.zeng/.local/lib/python3.8/site-packages/ase-3.22.1-py3.8.egg/ase (version 3.22.1)
numpy:  /shared/centos7/python/3.8.1/lib/python3.8/site-packages/numpy (version 1.17.4)
scipy:  /shared/centos7/python/3.8.1/lib/python3.8/site-packages/scipy (version 1.4.1)
libxc:  4.2.3
units:  Angstrom and eV
cores: 30
OpenMP: False
OMP_NUM_THREADS: 1

Input parameters:
  convergence: {energy: 0.0001}
  kpts: [2 2 2]
  maxiter: 666
  mode: {ecut: 350.0,
         name: pw}
  occupations: {fixmagmom: False,
                name: fermi-dirac,
                width: 0.1}
  spinpol: True
  xc: PBE

System changes: positions, numbers, cell, pbc, initial_charges, initial_magmoms 

Initialize ...

species:
  Co:
    name: Cobalt
    id: 339d20d5b0b93d2de9531a1bee871d91
    Z: 27.0
    valence: 9
    core: 18
    charge: 0.0
    file: /home/c.zeng/usr/data/gpaw-setups-0.9.20000/Co.PBE.gz
    compensation charges: {type: gauss,
                           rc: 0.32,
                           lmax: 2}
    cutoffs: {filter: 1.87,
              core: 2.55}
    valence states:
      #              energy  rcut
      - 4s(2.00)    -5.469   1.005
      - 4p(0.00)    -1.277   1.058
      - 3d(7.00)    -8.205   1.005
      -  s          21.742   1.005
      -  p          25.934   1.058
      -  d          19.007   1.005
  
    # Using partial waves for Co as LCAO basis

  Fe:
    name: Iron
    id: 37abbd8d6c3c35915a9b583b742da910
    Z: 26.0
    valence: 8
    core: 18
    charge: 0.0
    file: /home/c.zeng/usr/data/gpaw-setups-0.9.20000/Fe.PBE.gz
    compensation charges: {type: gauss,
                           rc: 0.33,
                           lmax: 2}
    cutoffs: {filter: 2.06,
              core: 2.67}
    valence states:
      #              energy  rcut
      - 4s(2.00)    -5.291   1.164
      - 4p(0.00)    -1.326   1.058
      - 3d(6.00)    -7.505   1.058
      -  s          21.920   1.164
      -  p          25.885   1.058
      -  d          19.706   1.058
  
    # Using partial waves for Fe as LCAO basis

  Ni:
    name: Nickel
    id: 0d9f38a9d6e76a2886f07bb4381f212b
    Z: 28.0
    valence: 16
    core: 12
    charge: 0.0
    file: /home/c.zeng/usr/data/gpaw-setups-0.9.20000/Ni.PBE.gz
    compensation charges: {type: gauss,
                           rc: 0.36,
                           lmax: 2}
    cutoffs: {filter: 2.14,
              core: 1.98}
    valence states:
      #              energy  rcut
      - 4s(2.00)    -5.642   1.164
      - 3p(6.00)   -71.394   1.207
      - 4p(0.00)    -1.226   1.207
      - 3d(8.00)    -8.875   1.138
      -  s          21.570   1.164
      -  d          18.337   1.138
  
    # Using partial waves for Ni as LCAO basis

  Al:
    name: Aluminium
    id: 0292cae29f5d6237e50f6abdd43a7bdd
    Z: 13.0
    valence: 3
    core: 10
    charge: 0.0
    file: /home/c.zeng/usr/data/gpaw-setups-0.9.20000/Al.PBE.gz
    compensation charges: {type: gauss,
                           rc: 0.34,
                           lmax: 2}
    cutoffs: {filter: 1.91,
              core: 2.36}
    valence states:
      #              energy  rcut
      - 3s(2.00)    -7.753   1.085
      - 3p(1.00)    -2.712   1.085
      -  s          19.459   1.085
      -  p          24.499   1.085
      -  d           0.000   1.085
  
    # Using partial waves for Al as LCAO basis

  Cr:
    name: Chromium
    id: 33f258bda2ca9f93018e70263a35547b
    Z: 24.0
    valence: 6
    core: 18
    charge: 0.0
    file: /home/c.zeng/usr/data/gpaw-setups-0.9.20000/Cr.PBE.gz
    compensation charges: {type: gauss,
                           rc: 0.35,
                           lmax: 2}
    cutoffs: {filter: 2.14,
              core: 3.04}
    valence states:
      #              energy  rcut
      - 4s(1.00)    -4.007   1.164
      - 4p(0.00)    -0.989   1.217
      - 3d(5.00)    -2.913   1.111
      -  s          23.205   1.164
      -  p          26.223   1.217
      -  d          24.299   1.111
  
    # Using partial waves for Cr as LCAO basis

Reference energy: -3548577.034362  # eV

Spin-polarized calculation.
Magnetic moment: 136.400000

Convergence criteria:
 Maximum [total energy] change in last 3 cyles: 0.0001 eV / electron
 Maximum integral of absolute [dens]ity change: 0.0001 electrons / valence electron
 Maximum integral of absolute [eigenst]ate change: 4e-08 eV^2 / valence electron
 Maximum number of scf [iter]ations: 666
 (Square brackets indicate name in SCF output, whereas a 'c' in
 the SCF output indicates the quantity has converged.)

Symmetries present (total): 1

  ( 1  0  0)
  ( 0  1  0)
  ( 0  0  1)

8 k-points: 2 x 2 x 2 Monkhorst-Pack grid
4 k-points in the irreducible part of the Brillouin zone
       k-points in crystal coordinates                weights
   0:     0.25000000   -0.25000000   -0.25000000          2/8
   1:     0.25000000   -0.25000000    0.25000000          2/8
   2:     0.25000000    0.25000000   -0.25000000          2/8
   3:     0.25000000    0.25000000    0.25000000          2/8

Wave functions: Plane wave expansion
  Cutoff energy: 350.000 eV
  Number of coefficients (min, max): 18331, 18331
  Pulay-stress correction: 0.000000 eV/Ang^3 (de/decut=0.000000)
  Using FFTW library
  ScaLapack parameters: grid=1x1, blocksize=None
  Wavefunction extrapolation:
    Improved wavefunction reuse through dual PAW basis 

Occupation numbers: Fermi-Dirac:
  width: 0.1000  # eV
 

Eigensolver
   Davidson(niter=2) 

Densities:
  Coarse grid: 48*48*48 grid
  Fine grid: 96*96*96 grid
  Total Charge: 0.000000 

Density mixing:
  Method: difference
  Backend: pulay
  Linear mixing parameter: 0.05
  old densities: 5
  Damping of long wavelength oscillations: 50 

Hamiltonian:
  XC and Coulomb potentials evaluated on a 96*96*96 grid
  Using the PBE Exchange-Correlation functional
  External potential:
    NoExternalPotential
 

XC parameters: PBE with 2 nearest neighbor stencil

Memory estimate:
  Process memory now: 250.28 MiB
  Calculator: 1030.73 MiB
    Density: 5.48 MiB
      Arrays: 2.05 MiB
      Localized functions: 2.61 MiB
      Mixer: 0.82 MiB
    Hamiltonian: 1.60 MiB
      Arrays: 1.52 MiB
      XC: 0.00 MiB
      Poisson: 0.00 MiB
      vbar: 0.08 MiB
    Wavefunctions: 1023.65 MiB
      Arrays psit_nG: 754.10 MiB
      Eigensolver: 259.26 MiB
      Projections: 5.19 MiB
      Projectors: 0.71 MiB
      PW-descriptor: 4.39 MiB

Total number of cores used: 30
Parallelization over k-points: 2
Domain decomposition: 5 x 3 x 1

Number of atoms: 108
Number of atomic orbitals: 994
Number of bands in calculation: 674
Number of valence electrons: 980
Bands to converge: occupied

... initialized

Initializing position-dependent things.

Density initialized from atomic densities
Creating initial wave functions:
  674 bands from LCAO basis set

        Co-------Co---------------.  
       /|  Co       Fe            |  
      / |   AlCr     CrCo     CrCo|  
     / Ni       CAl     Ni        |  
    /   CCo      Ni      FNi      |  
   /    | CoCo     Co      CoCo   |  
  /   Co|  NiFeAl   NiNi    CrCr  |  
 *      Cr  CrCoNi   CoNiAl   FeNi|  
 |Fe   NiNiCr   CrACr   FeCr      |  
 | Fe   | NiNi   NiNiCr    Cr     |  
 |     Co  CoFeNi   FeNiAl  NiAl  |  
 |      Fe    FeNi   FeAlFe   AlCr|  
 |Cr    |CoNi   NFeFe   FeFe     Fe  
 |      .-FeCr-----FeCr--FeCoNi---.  
 |     Cr    CoCr     FeCo  Cr Fe/   
 |    / Al      Co       Cr     /    
 Cr  /            Cr           /     
 |  /      Ni      Cr       Fe/      
 | / Co              Fe      /       
 |/                     Co  /        
 *-------------------------*         

Positions:
   0 Co    10.732479   -0.010418   10.721263    ( 0.0000,  0.0000,  2.1000)
   1 Fe    10.706231    1.787006    1.816653    ( 0.0000,  0.0000,  1.5000)
   2 Co     1.827923    0.046024    1.820803    ( 0.0000,  0.0000,  0.0000)
   3 Co     1.781666    1.794790   10.668295    ( 0.0000,  0.0000,  0.0000)
   4 Co     3.605675   -0.024615   10.696977    ( 0.0000,  0.0000,  0.0000)
   5 Ni     3.626284    1.755611    1.827590    ( 0.0000,  0.0000,  2.0000)
   6 Fe     5.347186   -0.032870    1.798425    ( 0.0000,  0.0000,  2.0000)
   7 Al     5.383406    1.755353   -0.004078    ( 0.0000,  0.0000,  2.0000)
   8 Fe     7.108694   -0.021619    0.052076    ( 0.0000,  0.0000,  0.0000)
   9 Cr     7.129131    1.783639    1.838109    ( 0.0000,  0.0000,  2.0000)
  10 Al     8.928414   -0.004386    1.840918    ( 0.0000,  0.0000,  2.0000)
  11 Co     8.945645    1.852509    0.063651    ( 0.0000,  0.0000,  0.0000)
  12 Co    10.721403    3.615743   10.707625    ( 0.0000,  0.0000,  2.1000)
  13 Fe    10.714905    5.407607    1.816064    ( 0.0000,  0.0000,  2.0000)
  14 Al     1.786931    3.537020    1.885127    ( 0.0000,  0.0000,  0.0000)
  15 Co     1.774396    5.426328   10.657058    ( 0.0000,  0.0000,  0.0000)
  16 Co     3.564340    3.564490   10.690115    ( 0.0000,  0.0000,  0.0000)
  17 Co     3.570334    5.434059    1.813919    ( 0.0000,  0.0000,  0.0000)
  18 Co     5.350145    3.574934    1.808708    ( 0.0000,  0.0000,  0.0000)
  19 Al     5.345084    5.410577   10.703464    ( 0.0000,  0.0000,  2.1000)
  20 Fe     7.157695    3.624514    0.002553    ( 0.0000,  0.0000,  2.1000)
  21 Fe     7.157792    5.380200    1.803904    ( 0.0000,  0.0000,  0.0000)
  22 Cr     8.944980    3.620622    1.842988    ( 0.0000,  0.0000,  0.0000)
  23 Ni     8.940316    5.370571   -0.005231    ( 0.0000,  0.0000,  0.0000)
  24 Co    10.674578    7.138041   10.683446    ( 0.0000,  0.0000,  2.0000)
  25 Fe    10.668413    8.869012    1.800001    ( 0.0000,  0.0000,  0.0000)
  26 Fe     1.807904    7.157309    1.806960    ( 0.0000,  0.0000,  1.5000)
  27 Co     1.808086    8.895217   10.689064    ( 0.0000,  0.0000,  0.0000)
  28 Cr     3.612462    7.185391   10.698339    ( 0.0000,  0.0000,  2.0000)
  29 Ni     3.598277    8.905404    1.808097    ( 0.0000,  0.0000,  1.5000)
  30 Fe     5.362229    7.149643    1.778835    ( 0.0000,  0.0000,  2.1000)
  31 Fe     5.368084    8.904170   10.708750    ( 0.0000,  0.0000,  2.0000)
  32 Co     7.127640    7.124156   10.700741    ( 0.0000,  0.0000,  2.0000)
  33 Fe     7.139982    8.914904    1.783157    ( 0.0000,  0.0000,  0.0000)
  34 Co     8.884516    7.107975    1.798232    ( 0.0000,  0.0000,  2.0000)
  35 Cr     8.895410    8.880302    0.005476    ( 0.0000,  0.0000,  0.0000)
  36 Cr    10.737840    0.006469    3.587908    ( 0.0000,  0.0000,  1.5000)
  37 Cr     0.009110    1.816214    5.359506    ( 0.0000,  0.0000,  1.5000)
  38 Cr     1.833434   -0.010553    5.335488    ( 0.0000,  0.0000,  2.1000)
  39 Cr     1.814369    1.777409    3.664755    ( 0.0000,  0.0000,  1.5000)
  40 Ni     3.608002   -0.027958    3.615958    ( 0.0000,  0.0000,  2.1000)
  41 Ni     3.597397    1.774364    5.368180    ( 0.0000,  0.0000,  1.5000)
  42 Co     5.355185   -0.018813    5.365682    ( 0.0000,  0.0000,  2.1000)
  43 Cr     5.354005    1.762698    3.609396    ( 0.0000,  0.0000,  1.5000)
  44 Cr     7.096449    0.004839    3.553950    ( 0.0000,  0.0000,  0.0000)
  45 Fe     7.124574    1.817747    5.354692    ( 0.0000,  0.0000,  2.1000)
  46 Fe     8.888698   10.712332    5.289714    ( 0.0000,  0.0000,  0.0000)
  47 Co     8.931727    1.815495    3.558979    ( 0.0000,  0.0000,  1.5000)
  48 Ni    10.700248    3.599864    3.631730    ( 0.0000,  0.0000,  0.0000)
  49 Al    -0.007893    5.382698    5.388017    ( 0.0000,  0.0000,  2.0000)
  50 Fe     1.794265    3.594073    5.365264    ( 0.0000,  0.0000,  2.0000)
  51 Co     1.782020    5.398675    3.628600    ( 0.0000,  0.0000,  1.5000)
  52 Cr     3.583351    3.582086    3.661657    ( 0.0000,  0.0000,  1.5000)
  53 Fe     3.572253    5.392895    5.375354    ( 0.0000,  0.0000,  1.5000)
  54 Ni     5.361747    3.593312    5.376780    ( 0.0000,  0.0000,  2.1000)
  55 Fe     5.348633    5.403146    3.628053    ( 0.0000,  0.0000,  0.0000)
  56 Cr     7.166745    3.584809    3.633875    ( 0.0000,  0.0000,  0.0000)
  57 Ni     7.149503    5.367108    5.369102    ( 0.0000,  0.0000,  2.1000)
  58 Fe     8.930869    3.577164    5.375332    ( 0.0000,  0.0000,  0.0000)
  59 Fe     8.940702    5.382345    3.619239    ( 0.0000,  0.0000,  2.0000)
  60 Cr    10.717414    7.117990    3.608013    ( 0.0000,  0.0000,  1.5000)
  61 Ni    10.744381    8.888719    5.331252    ( 0.0000,  0.0000,  1.5000)
  62 Ni     1.794962    7.151487    5.364771    ( 0.0000,  0.0000,  0.0000)
  63 Co     1.818208    8.914453    3.615261    ( 0.0000,  0.0000,  1.5000)
  64 Fe     3.588305    7.165673    3.591211    ( 0.0000,  0.0000,  2.1000)
  65 Cr     3.591168    8.919954    5.360224    ( 0.0000,  0.0000,  2.1000)
  66 Ni     5.360428    7.147734    5.374228    ( 0.0000,  0.0000,  2.1000)
  67 Fe     5.341814    8.914764    3.584723    ( 0.0000,  0.0000,  0.0000)
  68 Al     7.129249    7.125850    3.593677    ( 0.0000,  0.0000,  0.0000)
  69 Fe     7.100223    8.892258    5.376018    ( 0.0000,  0.0000,  0.0000)
  70 Cr     8.918303    7.140303    5.371193    ( 0.0000,  0.0000,  2.0000)
  71 Ni     8.906186    8.874212    3.587994    ( 0.0000,  0.0000,  1.5000)
  72 Cr     0.119377   10.701749    7.140164    ( 0.0000,  0.0000,  0.0000)
  73 Fe     0.030718    1.806049    8.929851    ( 0.0000,  0.0000,  2.1000)
  74 Al     1.830550   -0.004511    8.938600    ( 0.0000,  0.0000,  2.1000)
  75 Co     1.836758    1.805813    7.113412    ( 0.0000,  0.0000,  2.0000)
  76 Ni     3.562903   -0.022955    7.119030    ( 0.0000,  0.0000,  2.0000)
  77 Cr     3.576478    1.763277    8.893223    ( 0.0000,  0.0000,  2.0000)
  78 Cr     5.345063   10.686330    8.914389    ( 0.0000,  0.0000,  2.0000)
  79 Ni     5.352558    1.755900    7.113926    ( 0.0000,  0.0000,  0.0000)
  80 Fe     7.098261   10.714369    7.120349    ( 0.0000,  0.0000,  1.5000)
  81 Cr     7.138309    1.797192    8.899174    ( 0.0000,  0.0000,  0.0000)
  82 Cr     8.894810   10.661132    8.939297    ( 0.0000,  0.0000,  0.0000)
  83 Al     8.927760    1.796388    7.142759    ( 0.0000,  0.0000,  1.5000)
  84 Fe     0.015366    3.574709    7.137977    ( 0.0000,  0.0000,  0.0000)
  85 Cr    -0.017679    5.373273    8.884763    ( 0.0000,  0.0000,  2.1000)
  86 Cr     1.787842    3.561692    8.869848    ( 0.0000,  0.0000,  1.5000)
  87 Ni     1.785719    5.382398    7.128520    ( 0.0000,  0.0000,  2.0000)
  88 Ni     3.567643    3.596465    7.102625    ( 0.0000,  0.0000,  2.1000)
  89 Fe     3.577679    5.405248    8.871392    ( 0.0000,  0.0000,  2.0000)
  90 Ni     5.369596    3.593312    8.903688    ( 0.0000,  0.0000,  0.0000)
  91 Al     5.358702    5.401699    7.119073    ( 0.0000,  0.0000,  2.1000)
  92 Cr     7.150436    3.604581    7.099987    ( 0.0000,  0.0000,  2.0000)
  93 Ni     7.158199    5.390858    8.905983    ( 0.0000,  0.0000,  1.5000)
  94 Al     8.930826    3.597912    8.885374    ( 0.0000,  0.0000,  0.0000)
  95 Cr     8.935737    5.388735    7.127651    ( 0.0000,  0.0000,  0.0000)
  96 Ni    10.717929    7.165190    7.144378    ( 0.0000,  0.0000,  2.1000)
  97 Ni    10.739341    8.898756    8.943093    ( 0.0000,  0.0000,  1.5000)
  98 Co     1.793750    7.182882    8.888666    ( 0.0000,  0.0000,  1.5000)
  99 Ni     1.836501    8.904825    7.123094    ( 0.0000,  0.0000,  2.1000)
 100 Co     3.587511    7.157223    7.133645    ( 0.0000,  0.0000,  2.1000)
 101 Co     3.596025    8.923803    8.905018    ( 0.0000,  0.0000,  1.5000)
 102 Co     5.369413    7.149278    8.921112    ( 0.0000,  0.0000,  2.0000)
 103 Ni     5.343776    8.916533    7.143070    ( 0.0000,  0.0000,  2.1000)
 104 Ni     7.139778    7.140400    7.139349    ( 0.0000,  0.0000,  2.1000)
 105 Ni     7.106892    8.889835    8.908727    ( 0.0000,  0.0000,  1.5000)
 106 Co     8.907419    7.146362    8.906765    ( 0.0000,  0.0000,  2.0000)
 107 Cr     8.922313    8.892279    7.115031    ( 0.0000,  0.0000,  2.0000)

Unit cell:
           periodic     x           y           z      points  spacing
  1. axis:    yes   10.722400    0.000000    0.000000    48     0.2234
  2. axis:    yes    0.000000   10.722400    0.000000    48     0.2234
  3. axis:    yes    0.000000    0.000000   10.722400    48     0.2234

  Lengths:  10.722400  10.722400  10.722400
  Angles:   90.000000  90.000000  90.000000

Effective grid spacing dv^(1/3) = 0.2234

     iter     time        total  log10-change:  magmom
                         energy  eigst   dens
iter:   1 16:33:19  -927.613128                  +135.8661
iter:   2 16:34:43  -912.105294  -0.43  -1.31    +98.6087
iter:   3 16:36:09  -892.146259  -0.82  -1.28    +70.4874
iter:   4 16:37:34  -856.966959  -1.42  -1.31    +59.0093
iter:   5 16:38:59  -854.748960  -1.81  -1.45    +52.9859
iter:   6 16:40:24  -855.196722  -1.92  -1.46    +50.1621
iter:   7 16:41:49  -856.761420  -1.70  -1.50    +48.7175
iter:   8 16:43:15  -850.966168  -1.78  -1.51    +48.1869
iter:   9 16:44:40  -866.494213  -1.57  -1.65    +48.1708
iter:  10 16:46:05  -848.914054  -1.79  -1.56    +47.4300
iter:  11 16:47:29  -850.163255  -2.23  -1.84    +47.9248
iter:  12 16:48:54  -848.626433  -2.51  -1.83    +48.4689
iter:  13 16:50:19  -849.266012  -2.47  -1.90    +49.3122
iter:  14 16:51:44  -849.401102  -2.60  -1.92    +50.2932
iter:  15 16:53:09  -851.161756  -2.46  -1.99    +50.8247
iter:  16 16:54:34  -851.359779  -2.41  -1.95    +51.9836
iter:  17 16:55:59  -851.267351  -2.49  -1.95    +52.1193
iter:  18 16:57:24  -850.149783  -2.63  -2.01    +52.6653
iter:  19 16:58:49  -850.519992  -2.56  -2.11    +53.4287
iter:  20 17:00:14  -849.538058  -2.99  -2.08    +53.7551
iter:  21 17:01:39  -849.848075  -3.11  -2.24    +54.9362
iter:  22 17:03:04  -849.861013  -3.11  -2.23    +55.2990
iter:  23 17:04:29  -849.869441c -3.31  -2.24    +56.5668
iter:  24 17:05:54  -850.053860  -3.29  -2.32    +57.6076
iter:  25 17:07:19  -850.183510  -3.45  -2.34    +58.0178
iter:  26 17:08:44  -850.275850  -3.42  -2.32    +59.0517
iter:  27 17:10:09  -850.566184  -3.38  -2.40    +59.8487
iter:  28 17:11:34  -850.741596  -3.24  -2.36    +60.6179
iter:  29 17:12:59  -850.827964  -3.38  -2.39    +61.0041
iter:  30 17:14:24  -850.828944c -3.44  -2.41    +61.4403
iter:  31 17:15:49  -850.963254  -3.43  -2.43    +61.9579
iter:  32 17:17:14  -850.914852  -3.68  -2.43    +62.3937
iter:  33 17:18:39  -850.980536c -3.83  -2.49    +62.7911
iter:  34 17:20:04  -851.019806  -4.15  -2.49    +63.0799
iter:  35 17:21:29  -851.300804  -3.37  -2.53    +63.7980
iter:  36 17:22:54  -851.298991  -3.44  -2.51    +63.5501
iter:  37 17:24:19  -851.245197c -3.65  -2.59    +63.7931
iter:  38 17:25:44  -851.272619c -3.81  -2.77    +63.8096
iter:  39 17:27:08  -851.261011c -4.22  -2.78    +63.9441
iter:  40 17:28:33  -851.281708c -4.46  -2.94    +64.0463
iter:  41 17:29:58  -851.309363c -4.50  -2.96    +64.1369
iter:  42 17:31:23  -851.342566c -4.32  -2.99    +64.2814
iter:  43 17:32:48  -851.359891c -4.50  -3.00    +64.2577
iter:  44 17:34:13  -851.378960c -4.48  -3.04    +64.3061
iter:  45 17:35:38  -851.405913c -4.33  -3.10    +64.3282
iter:  46 17:37:02  -851.408798c -4.65  -3.13    +64.3201
iter:  47 17:38:28  -851.421073c -4.60  -3.22    +64.3476
iter:  48 17:39:53  -851.419477c -4.89  -3.22    +64.3713
iter:  49 17:41:18  -851.425640c -4.98  -3.33    +64.3608
iter:  50 17:42:43  -851.427486c -5.31  -3.37    +64.3786
iter:  51 17:44:08  -851.434486c -5.22  -3.43    +64.4073
iter:  52 17:45:34  -851.444513c -4.94  -3.44    +64.4432
iter:  53 17:46:59  -851.443868c -5.64  -3.43    +64.4456
iter:  54 17:48:24  -851.449349c -5.27  -3.51    +64.4293
iter:  55 17:49:49  -851.453564c -5.40  -3.57    +64.4552
iter:  56 17:51:14  -851.456149c -5.56  -3.56    +64.4692
iter:  57 17:52:39  -851.461662c -5.38  -3.65    +64.4875
iter:  58 17:54:05  -851.465389c -5.59  -3.69    +64.5044
iter:  59 17:55:31  -851.474375c -5.05  -3.68    +64.5200
iter:  60 17:56:58  -851.463754c -5.26  -3.68    +64.4935
iter:  61 17:58:24  -851.484813c -4.62  -3.68    +64.5626
iter:  62 17:59:50  -851.444506c -4.05  -3.51    +64.4032
iter:  63 18:01:16  -851.411845c -3.73  -3.72    +64.1904
iter:  64 18:02:42  -851.407547c -4.36  -3.53    +64.1367
iter:  65 18:04:09  -851.402384c -3.79  -3.50    +63.9280
iter:  66 18:05:35  -851.404474c -4.38  -3.31    +63.8926
iter:  67 18:07:01  -851.405538c -4.92  -3.29    +63.9114
iter:  68 18:08:28  -851.404776c -5.18  -3.28    +63.9536
iter:  69 18:09:54  -851.405939c -5.56  -3.33    +63.9742
iter:  70 18:11:20  -851.405141c -5.42  -3.33    +64.0023
iter:  71 18:12:46  -851.407860c -4.69  -3.36    +64.0135
iter:  72 18:14:14  -851.403728c -5.22  -3.32    +64.0624
iter:  73 18:15:42  -851.405916c -5.46  -3.48    +64.1198
iter:  74 18:17:11  -851.406960c -5.51  -3.52    +64.1315
iter:  75 18:18:39  -851.408723c -5.42  -3.53    +64.1749
iter:  76 18:20:08  -851.411479c -5.40  -3.54    +64.2089
iter:  77 18:21:36  -851.410663c -5.59  -3.54    +64.2170
iter:  78 18:23:05  -851.412808c -5.53  -3.71    +64.2541
iter:  79 18:24:33  -851.412716c -5.83  -3.61    +64.2694
iter:  80 18:26:02  -851.415344c -5.63  -3.72    +64.3024
iter:  81 18:27:30  -851.414515c -6.08  -3.67    +64.3066
iter:  82 18:28:59  -851.416878c -5.75  -3.83    +64.3294
iter:  83 18:30:28  -851.416174c -6.38  -3.76    +64.3229
iter:  84 18:31:56  -851.417385c -5.87  -3.89    +64.3266
iter:  85 18:33:25  -851.417977c -6.13  -3.82    +64.3519
iter:  86 18:34:53  -851.419424c -5.97  -3.89    +64.3743
iter:  87 18:36:22  -851.421098c -5.81  -3.97    +64.4019
iter:  88 18:37:50  -851.420061c -6.71  -3.91    +64.3845
iter:  89 18:39:19  -851.422433c -5.86  -3.91    +64.4273
iter:  90 18:40:47  -851.420701c -6.11  -3.85    +64.3922
iter:  91 18:42:16  -851.424642c -5.50  -3.88    +64.4589
iter:  92 18:43:44  -851.422271c -6.18  -3.80    +64.4202
iter:  93 18:45:13  -851.423468c -6.29  -3.88    +64.4318
iter:  94 18:46:42  -851.424589c -5.75  -3.77    +64.4499
iter:  95 18:48:10  -851.425071c -6.00  -3.69    +64.4420
iter:  96 18:49:39  -851.426466c -6.07  -3.83    +64.4572
iter:  97 18:51:07  -851.414844c -4.42  -3.79    +64.3273
iter:  98 18:52:36  -851.416122c -5.81  -4.00    +64.3651
iter:  99 18:54:04  -851.417196c -6.39  -4.18c   +64.3804
iter: 100 18:55:33  -851.414381c -5.61  -4.13c   +64.3444
iter: 101 18:57:01  -851.425148c -4.56  -4.22c   +64.4802
iter: 102 18:58:29  -851.418860c -5.40  -3.80    +64.4034
iter: 103 18:59:58  -851.419869c -6.79  -4.07c   +64.4164
iter: 104 19:01:26  -851.420628c -6.41  -4.03c   +64.4283
iter: 105 19:02:55  -851.422394c -5.93  -3.98    +64.4414
iter: 106 19:04:23  -851.423804c -5.99  -3.95    +64.4569
iter: 107 19:05:52  -851.421968c -6.15  -3.90    +64.4368
iter: 108 19:07:20  -851.423892c -6.05  -3.94    +64.4556
iter: 109 19:08:49  -851.422492c -5.81  -3.84    +64.4280
iter: 110 19:10:18  -851.424953c -5.41  -3.77    +64.4725
iter: 111 19:11:46  -851.425355c -5.76  -3.69    +64.4727
iter: 112 19:13:15  -851.426311c -5.90  -3.68    +64.4922
iter: 113 19:14:43  -851.429463c -5.47  -3.81    +64.5023
iter: 114 19:16:12  -851.428051c -5.84  -3.57    +64.4955
iter: 115 19:17:40  -851.429910c -5.61  -3.73    +64.4870
iter: 116 19:19:09  -851.429381c -5.93  -3.71    +64.4968
iter: 117 19:20:38  -851.430380c -5.86  -3.78    +64.5018
iter: 118 19:22:06  -851.430899c -6.35  -3.79    +64.5101
iter: 119 19:23:35  -851.433088c -5.78  -3.87    +64.5198
iter: 120 19:25:04  -851.432211c -6.61  -3.72    +64.5218
iter: 121 19:26:33  -851.433207c -6.12  -3.77    +64.5077
iter: 122 19:28:01  -851.433691c -6.00  -3.76    +64.5163
iter: 123 19:29:30  -851.434721c -5.77  -3.74    +64.5216
iter: 124 19:30:58  -851.435925c -5.85  -3.81    +64.5395
iter: 125 19:32:27  -851.437245c -5.49  -3.86    +64.5364
iter: 126 19:33:55  -851.436708c -5.91  -3.68    +64.5332
iter: 127 19:35:23  -851.437975c -5.89  -4.05c   +64.5418
iter: 128 19:36:52  -851.438311c -6.39  -3.97    +64.5411
iter: 129 19:38:21  -851.439203c -6.06  -4.04c   +64.5410
iter: 130 19:39:50  -851.440053c -6.13  -4.14c   +64.5434
iter: 131 19:41:18  -851.435130c -5.07  -4.07c   +64.4909
iter: 132 19:42:47  -851.433098c -5.25  -4.14c   +64.4794
iter: 133 19:44:15  -851.434512c -6.24  -4.12c   +64.4929
iter: 134 19:45:44  -851.434321c -7.04  -4.32c   +64.4902
iter: 135 19:47:13  -851.435556c -6.04  -4.29c   +64.4964
iter: 136 19:48:41  -851.433835c -5.89  -4.30c   +64.4926
iter: 137 19:50:10  -851.431677c -5.31  -4.35c   +64.4756
iter: 138 19:51:38  -851.431709c -6.17  -4.13c   +64.4657
iter: 139 19:53:06  -851.432689c -5.85  -4.10c   +64.4379
iter: 140 19:54:35  -851.435203c -5.21  -4.05c   +64.4098
iter: 141 19:56:03  -851.437054c -5.45  -3.92    +64.4181
iter: 142 19:57:32  -851.435675c -6.28  -3.85    +64.4245
iter: 143 19:59:00  -851.438260c -5.48  -3.89    +64.4139
iter: 144 20:00:29  -851.438399c -6.11  -3.80    +64.4360
iter: 145 20:01:57  -851.440374c -5.42  -3.82    +64.4263
iter: 146 20:03:26  -851.439694c -5.63  -3.62    +64.4576
iter: 147 20:04:55  -851.440281c -5.89  -3.76    +64.4745
iter: 148 20:06:23  -851.441016c -5.76  -3.97    +64.4865
iter: 149 20:07:53  -851.441265c -6.35  -3.81    +64.4889
iter: 150 20:09:21  -851.442438c -5.97  -4.03c   +64.4904
iter: 151 20:10:50  -851.442857c -6.45  -4.00    +64.4948
iter: 152 20:12:19  -851.442843c -6.71  -3.92    +64.4720
iter: 153 20:13:47  -851.444147c -6.07  -3.93    +64.5062
iter: 154 20:15:16  -851.443856c -6.71  -3.86    +64.4874
iter: 155 20:16:45  -851.445225c -5.90  -3.90    +64.4931
iter: 156 20:18:14  -851.446415c -5.82  -3.89    +64.5179
iter: 157 20:19:42  -851.446426c -6.17  -3.77    +64.5211
iter: 158 20:21:11  -851.447765c -5.96  -3.86    +64.5351
iter: 159 20:22:39  -851.448459c -5.96  -3.84    +64.5270
iter: 160 20:24:08  -851.449127c -6.14  -3.88    +64.5294
iter: 161 20:25:37  -851.449557c -5.99  -3.72    +64.5231
iter: 162 20:27:05  -851.450638c -5.83  -3.77    +64.5371
iter: 163 20:28:34  -851.450347c -6.15  -3.74    +64.5391
iter: 164 20:30:02  -851.451953c -5.83  -3.93    +64.5553
iter: 165 20:31:31  -851.452641c -5.88  -4.01c   +64.5569
iter: 166 20:33:00  -851.453422c -6.14  -4.13c   +64.5634
iter: 167 20:34:28  -851.454279c -6.07  -4.17c   +64.5741
iter: 168 20:35:56  -851.454134c -6.91  -4.22c   +64.5700
iter: 169 20:37:25  -851.455045c -6.27  -4.22c   +64.5768
iter: 170 20:38:54  -851.453169c -5.89  -4.22c   +64.5647
iter: 171 20:40:22  -851.449588c -5.05  -4.22c   +64.5470
iter: 172 20:41:51  -851.446484c -4.93  -4.14c   +64.5002
iter: 173 20:43:19  -851.441568c -4.31  -3.92    +64.3860
iter: 174 20:44:48  -851.440899c -4.80  -3.60    +64.3256
iter: 175 20:46:16  -851.440496c -4.78  -3.52    +64.2256
iter: 176 20:47:45  -851.440629c -4.92  -3.45    +64.1523
iter: 177 20:49:13  -851.442819c -4.53  -3.40    +64.0321
iter: 178 20:50:42  -851.441340c -5.46  -3.29    +64.0752
iter: 179 20:52:10  -851.446809c -5.10  -3.34    +64.0502
iter: 180 20:53:39  -851.447891c -4.99  -3.21    +64.0989
iter: 181 20:55:07  -851.453875c -4.71  -3.18    +64.1044
iter: 182 20:56:36  -851.440769c -4.46  -3.11    +64.0684
iter: 183 20:58:04  -851.439393c -4.70  -3.27    +64.0359
iter: 184 20:59:32  -851.433379c -5.19  -3.26    +64.1471
iter: 185 21:01:01  -851.436005c -5.40  -3.59    +64.1723
iter: 186 21:02:30  -851.434955c -5.44  -3.56    +64.1807
iter: 187 21:03:58  -851.436842c -5.37  -3.55    +64.2187
iter: 188 21:05:26  -851.436337c -5.44  -3.48    +64.2266
iter: 189 21:06:55  -851.437498c -5.33  -3.56    +64.2510
iter: 190 21:08:24  -851.435734c -5.45  -3.57    +64.2360
iter: 191 21:09:52  -851.435703c -5.74  -3.67    +64.2746
iter: 192 21:11:18  -851.437256c -5.72  -3.75    +64.3066
iter: 193 21:12:42  -851.436440c -6.00  -3.73    +64.3107
iter: 194 21:14:07  -851.436799c -5.90  -3.88    +64.3277
iter: 195 21:15:32  -851.436729c -6.30  -3.86    +64.3386
iter: 196 21:16:57  -851.437931c -5.93  -3.99    +64.3694
iter: 197 21:18:21  -851.437844c -6.25  -3.89    +64.3679
iter: 198 21:19:46  -851.437845c -6.09  -4.00    +64.3818
iter: 199 21:21:11  -851.438336c -6.31  -4.03c   +64.3984
iter: 200 21:22:36  -851.438601c -6.50  -4.10c   +64.4077
iter: 201 21:24:01  -851.439056c -6.31  -4.17c   +64.4168
iter: 202 21:25:26  -851.439097c -6.71  -4.22c   +64.4201
iter: 203 21:26:51  -851.439660c -6.35  -4.22c   +64.4369
iter: 204 21:28:16  -851.439917c -6.79  -4.23c   +64.4405
iter: 205 21:29:42  -851.440308c -6.24  -4.28c   +64.4479
iter: 206 21:31:07  -851.440242c -6.94  -4.19c   +64.4465
iter: 207 21:32:32  -851.440877c -6.28  -4.31c   +64.4570
iter: 208 21:33:57  -851.440922c -6.85  -4.21c   +64.4575
iter: 209 21:35:22  -851.441322c -6.30  -4.39c   +64.4567
iter: 210 21:36:47  -851.441154c -7.03  -4.26c   +64.4557
iter: 211 21:38:12  -851.441850c -6.38  -4.40c   +64.4664
iter: 212 21:39:37  -851.441549c -7.31  -4.38c   +64.4620
iter: 213 21:41:03  -851.436067c -4.37  -4.43c   +64.3468
iter: 214 21:42:28  -851.434145c -4.44  -4.00    +64.2760
iter: 215 21:43:53  -851.433162c -4.38  -3.75    +64.1928
iter: 216 21:45:18  -851.433230c -4.86  -3.57    +64.1673
iter: 217 21:46:43  -851.433421c -5.15  -3.52    +64.1611
iter: 218 21:48:07  -851.433938c -5.15  -3.49    +64.1480
iter: 219 21:49:32  -851.433357c -5.86  -3.44    +64.1471
iter: 220 21:50:57  -851.432156c -5.83  -3.46    +64.1533
iter: 221 21:52:22  -851.444761c -4.90  -3.46    +64.1534
iter: 222 21:53:48  -851.432307c -4.95  -3.18    +64.1787
iter: 223 21:55:14  -851.437687c -4.74  -3.37    +64.2056
iter: 224 21:56:39  -851.432252c -4.93  -3.26    +64.1889
iter: 225 21:58:04  -851.428118c -5.42  -3.35    +64.2334
iter: 226 21:59:30  -851.429428c -5.67  -3.67    +64.2642
iter: 227 22:00:55  -851.428790c -5.64  -3.67    +64.2772
iter: 228 22:02:20  -851.429325c -5.83  -3.65    +64.2997
iter: 229 22:03:46  -851.429901c -5.67  -3.73    +64.3079
iter: 230 22:05:11  -851.430238c -5.67  -3.65    +64.3343
iter: 231 22:06:37  -851.429804c -5.79  -3.71    +64.3392
iter: 232 22:08:02  -851.429192c -6.02  -3.80    +64.3430
iter: 233 22:09:28  -851.430357c -6.03  -3.82    +64.3689
iter: 234 22:10:53  -851.429663c -6.17  -3.87    +64.3745
iter: 235 22:12:18  -851.430190c -6.31  -3.99    +64.3994
iter: 236 22:13:44  -851.430094c -6.45  -4.01c   +64.4033
iter: 237 22:15:09  -851.430520c -6.20  -4.04c   +64.4184
iter: 238 22:16:34  -851.430828c -6.39  -3.97    +64.4245
iter: 239 22:17:59  -851.430494c -6.44  -4.07c   +64.4289
iter: 240 22:19:24  -851.431016c -6.42  -4.15c   +64.4399
iter: 241 22:20:49  -851.430851c -6.81  -4.12c   +64.4425
iter: 242 22:22:13  -851.431193c -6.51  -4.29c   +64.4567
iter: 243 22:23:38  -851.431217c -6.96  -4.31c   +64.4551
iter: 244 22:25:03  -851.431354c -6.65  -4.31c   +64.4615
iter: 245 22:26:28  -851.431707c -6.56  -4.36c   +64.4644
iter: 246 22:27:54  -851.431561c -7.24  -4.35c   +64.4639
iter: 247 22:29:19  -851.431799c -6.72  -4.37c   +64.4694
iter: 248 22:30:44  -851.431742c -7.17  -4.47c   +64.4688
iter: 249 22:32:09  -851.431989c -6.66  -4.39c   +64.4748
iter: 250 22:33:34  -851.432103c -6.86  -4.56c   +64.4752
iter: 251 22:34:59  -851.432140c -6.75  -4.62c   +64.4765
iter: 252 22:36:24  -851.432359c -6.82  -4.49c   +64.4779
iter: 253 22:37:49  -851.432485c -6.83  -4.72c   +64.4774
iter: 254 22:39:14  -851.432146c -6.50  -4.69c   +64.4749
iter: 255 22:40:39  -851.430974c -5.20  -4.75c   +64.4669
iter: 256 22:42:04  -851.429600c -4.64  -4.39c   +64.4434
iter: 257 22:43:30  -851.429300c -5.09  -3.93    +64.4284
iter: 258 22:44:54  -851.428882c -4.73  -3.85    +64.3821
iter: 259 22:46:20  -851.428942c -5.11  -3.68    +64.3579
iter: 260 22:47:45  -851.428901c -5.69  -3.63    +64.3789
iter: 261 22:49:10  -851.428837c -5.99  -3.69    +64.3614
iter: 262 22:50:34  -851.428973c -6.25  -3.64    +64.3708
iter: 263 22:51:59  -851.429385c -5.91  -3.68    +64.3702
iter: 264 22:53:24  -851.428864c -6.45  -3.65    +64.3671
iter: 265 22:54:49  -851.433342c -5.09  -3.67    +64.3581
iter: 266 22:56:15  -851.427593c -5.42  -3.34    +64.3512
iter: 267 22:57:40  -851.433292c -5.11  -3.67    +64.3732
iter: 268 22:59:05  -851.427835c -5.36  -3.40    +64.3714
iter: 269 23:00:30  -851.426801c -5.91  -3.62    +64.3468
iter: 270 23:01:55  -851.427213c -6.15  -3.97    +64.3612
iter: 271 23:03:21  -851.427466c -6.15  -3.89    +64.3579
iter: 272 23:04:46  -851.427570c -6.19  -3.94    +64.3643
iter: 273 23:06:11  -851.427660c -6.10  -3.96    +64.3669
iter: 274 23:07:37  -851.428427c -6.03  -3.86    +64.3782
iter: 275 23:09:02  -851.427968c -6.22  -3.92    +64.3890
iter: 276 23:10:27  -851.427992c -6.30  -4.06c   +64.3845
iter: 277 23:11:52  -851.428246c -6.54  -4.11c   +64.3937
iter: 278 23:13:18  -851.428397c -6.57  -4.24c   +64.3975
iter: 279 23:14:44  -851.428477c -6.58  -4.30c   +64.4002
iter: 280 23:16:09  -851.428563c -6.83  -4.36c   +64.4037
iter: 281 23:17:35  -851.428952c -6.42  -4.44c   +64.4077
iter: 282 23:19:00  -851.428795c -7.31  -4.31c   +64.4056
iter: 283 23:20:25  -851.428820c -6.89  -4.54c   +64.4034
iter: 284 23:21:51  -851.428964c -7.04  -4.48c   +64.4112
iter: 285 23:23:18  -851.429298c -6.52  -4.61c   +64.4204
iter: 286 23:24:45  -851.429321c -7.07  -4.49c   +64.4221
iter: 287 23:26:11  -851.429494c -6.84  -4.58c   +64.4270
iter: 288 23:27:38  -851.429021c -6.12  -4.48c   +64.4171
iter: 289 23:29:05  -851.428630c -6.21  -4.53c   +64.4002
iter: 290 23:30:32  -851.428973c -6.69  -4.65c   +64.4093
iter: 291 23:31:58  -851.428364c -6.01  -4.74c   +64.3904
iter: 292 23:33:25  -851.427890c -5.91  -4.55c   +64.3740
iter: 293 23:34:51  -851.427987c -7.09  -4.42c   +64.3772
iter: 294 23:36:18  -851.429424c -5.11  -4.45c   +64.4152
iter: 295 23:37:45  -851.429152c -6.56  -4.33c   +64.4054
iter: 296 23:39:12  -851.429667c -5.92  -4.49c   +64.4174
iter: 297 23:40:38  -851.429078c -6.03  -4.28c   +64.4030
iter: 298 23:42:05  -851.429598c -6.05  -4.59c   +64.4167
iter: 299 23:43:32  -851.428940c -5.99  -4.35c   +64.4007
iter: 300 23:44:59  -851.429138c -7.24  -4.52c   +64.4071
iter: 301 23:46:25  -851.429263c -7.29  -4.54c   +64.4100
iter: 302 23:47:52  -851.429419c -6.71  -4.63c   +64.4144
iter: 303 23:49:19  -851.429561c -6.82  -4.31c   +64.4180
iter: 304 23:50:46  -851.429736c -7.08  -4.52c   +64.4213
iter: 305 23:52:12  -851.429637c -7.69c -4.41c   +64.4193

Converged after 305 iterations.

Dipole moment: (-1.857214, 13.105379, 14.539398) |e|*Ang

Total magnetic moment: (0.000000, 0.000000, 64.419276)
Local magnetic moments:
   0 Co ( 0.000000,  0.000000,  1.041668)
   1 Fe ( 0.000000,  0.000000,  2.193744)
   2 Co ( 0.000000,  0.000000,  1.438797)
   3 Co ( 0.000000,  0.000000,  1.099945)
   4 Co ( 0.000000,  0.000000,  1.089465)
   5 Ni ( 0.000000,  0.000000,  0.192278)
   6 Fe ( 0.000000,  0.000000,  1.919493)
   7 Al ( 0.000000,  0.000000, -0.020003)
   8 Fe ( 0.000000,  0.000000, -1.380273)
   9 Cr ( 0.000000,  0.000000,  0.930769)
  10 Al ( 0.000000,  0.000000, -0.015417)
  11 Co ( 0.000000,  0.000000,  0.951574)
  12 Co ( 0.000000,  0.000000,  1.081106)
  13 Fe ( 0.000000,  0.000000,  2.336470)
  14 Al ( 0.000000,  0.000000, -0.031038)
  15 Co ( 0.000000,  0.000000,  1.295280)
  16 Co ( 0.000000,  0.000000,  1.263539)
  17 Co ( 0.000000,  0.000000,  1.136074)
  18 Co ( 0.000000,  0.000000,  1.099914)
  19 Al ( 0.000000,  0.000000, -0.042755)
  20 Fe ( 0.000000,  0.000000,  2.208786)
  21 Fe ( 0.000000,  0.000000,  2.134408)
  22 Cr ( 0.000000,  0.000000, -1.473887)
  23 Ni ( 0.000000,  0.000000,  0.327723)
  24 Co ( 0.000000,  0.000000,  1.344613)
  25 Fe ( 0.000000,  0.000000,  2.231156)
  26 Fe ( 0.000000,  0.000000,  2.313454)
  27 Co ( 0.000000,  0.000000,  1.465988)
  28 Cr ( 0.000000,  0.000000, -2.085757)
  29 Ni ( 0.000000,  0.000000,  0.470471)
  30 Fe ( 0.000000,  0.000000,  2.009995)
  31 Fe ( 0.000000,  0.000000,  2.134257)
  32 Co ( 0.000000,  0.000000,  1.226305)
  33 Fe ( 0.000000,  0.000000,  1.849947)
  34 Co ( 0.000000,  0.000000,  1.159527)
  35 Cr ( 0.000000,  0.000000, -1.332399)
  36 Cr ( 0.000000,  0.000000, -1.619496)
  37 Cr ( 0.000000,  0.000000,  0.094019)
  38 Cr ( 0.000000,  0.000000,  0.882541)
  39 Cr ( 0.000000,  0.000000,  0.317300)
  40 Ni ( 0.000000,  0.000000,  0.281604)
  41 Ni ( 0.000000,  0.000000,  0.170712)
  42 Co ( 0.000000,  0.000000,  1.036082)
  43 Cr ( 0.000000,  0.000000,  0.461496)
  44 Cr ( 0.000000,  0.000000, -1.444815)
  45 Fe ( 0.000000,  0.000000,  1.657415)
  46 Fe ( 0.000000,  0.000000,  2.014327)
  47 Co ( 0.000000,  0.000000,  0.370348)
  48 Ni ( 0.000000,  0.000000,  0.275460)
  49 Al ( 0.000000,  0.000000, -0.019386)
  50 Fe ( 0.000000,  0.000000,  2.104675)
  51 Co ( 0.000000,  0.000000,  1.011824)
  52 Cr ( 0.000000,  0.000000, -1.725103)
  53 Fe ( 0.000000,  0.000000,  2.280423)
  54 Ni ( 0.000000,  0.000000,  0.146096)
  55 Fe ( 0.000000,  0.000000,  2.199021)
  56 Cr ( 0.000000,  0.000000, -1.346202)
  57 Ni ( 0.000000,  0.000000,  0.203380)
  58 Fe ( 0.000000,  0.000000,  1.752297)
  59 Fe ( 0.000000,  0.000000,  1.628542)
  60 Cr ( 0.000000,  0.000000, -1.735835)
  61 Ni ( 0.000000,  0.000000,  0.005317)
  62 Ni ( 0.000000,  0.000000,  0.285132)
  63 Co ( 0.000000,  0.000000,  1.148384)
  64 Fe ( 0.000000,  0.000000,  2.291822)
  65 Cr ( 0.000000,  0.000000, -1.665155)
  66 Ni ( 0.000000,  0.000000,  0.365411)
  67 Fe ( 0.000000,  0.000000,  2.170542)
  68 Al ( 0.000000,  0.000000, -0.052320)
  69 Fe ( 0.000000,  0.000000,  2.008950)
  70 Cr ( 0.000000,  0.000000, -0.408565)
  71 Ni ( 0.000000,  0.000000,  0.104956)
  72 Cr ( 0.000000,  0.000000, -1.028194)
  73 Fe ( 0.000000,  0.000000,  2.063356)
  74 Al ( 0.000000,  0.000000, -0.031744)
  75 Co ( 0.000000,  0.000000,  0.319275)
  76 Ni ( 0.000000,  0.000000,  0.192342)
  77 Cr ( 0.000000,  0.000000,  1.406150)
  78 Cr ( 0.000000,  0.000000, -1.171147)
  79 Ni ( 0.000000,  0.000000,  0.271819)
  80 Fe ( 0.000000,  0.000000,  2.022989)
  81 Cr ( 0.000000,  0.000000,  0.832171)
  82 Cr ( 0.000000,  0.000000, -1.121337)
  83 Al ( 0.000000,  0.000000, -0.029991)
  84 Fe ( 0.000000,  0.000000,  1.741039)
  85 Cr ( 0.000000,  0.000000,  0.633470)
  86 Cr ( 0.000000,  0.000000, -1.735186)
  87 Ni ( 0.000000,  0.000000,  0.304337)
  88 Ni ( 0.000000,  0.000000,  0.314271)
  89 Fe ( 0.000000,  0.000000,  2.396399)
  90 Ni ( 0.000000,  0.000000,  0.201279)
  91 Al ( 0.000000,  0.000000, -0.029425)
  92 Cr ( 0.000000,  0.000000,  0.807739)
  93 Ni ( 0.000000,  0.000000,  0.277980)
  94 Al ( 0.000000,  0.000000, -0.029693)
  95 Cr ( 0.000000,  0.000000,  0.219443)
  96 Ni ( 0.000000,  0.000000,  0.103384)
  97 Ni ( 0.000000,  0.000000,  0.182099)
  98 Co ( 0.000000,  0.000000,  1.343506)
  99 Ni ( 0.000000,  0.000000,  0.202943)
 100 Co ( 0.000000,  0.000000,  1.361256)
 101 Co ( 0.000000,  0.000000,  1.266931)
 102 Co ( 0.000000,  0.000000,  1.302799)
 103 Ni ( 0.000000,  0.000000,  0.353818)
 104 Ni ( 0.000000,  0.000000,  0.233429)
 105 Ni ( 0.000000,  0.000000,  0.207880)
 106 Co ( 0.000000,  0.000000,  0.936630)
 107 Cr ( 0.000000,  0.000000,  0.323720)

Energy contributions relative to reference atoms: (reference = -3548577.034362)

Kinetic:       +185.119354
Potential:     -216.761602
External:        +0.000000
XC:            -853.463623
Entropy (-ST):   -4.529717
Local:          +35.941093
--------------------------
Free energy:   -853.694496
Extrapolated:  -851.429637

Spin contamination: 25.904752 electrons
Showing only first 2 kpts
                      Up                     Down
 Kpt  Band  Eigenvalues  Occupancy  Eigenvalues  Occupancy
  0   488      9.47599    0.99455     10.36600    0.02430
  0   489      9.48325    0.99415     10.37965    0.02126
  0   490      9.50042    0.99306     10.38867    0.01947
  0   491      9.51105    0.99228     10.40753    0.01617

  1   488      9.47501    0.99461     10.37795    0.02162
  1   489      9.48425    0.99409     10.38507    0.02016
  1   490      9.49178    0.99363     10.40796    0.01611
  1   491      9.50895    0.99244     10.41507    0.01502


Fermi level: 9.99672

No gap

Forces in eV/Ang:
  0 Co   -0.24626    0.14406    0.08850
  1 Fe    0.13456   -0.02999   -0.35027
  2 Co   -0.15983   -0.44857   -0.16311
  3 Co    0.09099    0.03074    0.48538
  4 Co   -0.36362   -0.11934    0.45984
  5 Ni   -0.45032    0.07750   -0.25386
  6 Fe   -0.22437   -0.47082    0.10193
  7 Al   -0.74778    0.77636    0.45026
  8 Fe    0.51089    0.16786   -0.46634
  9 Cr    0.04361    0.53194   -0.10946
 10 Al    0.30334   -0.01890   -0.88515
 11 Co    0.01031   -0.33993   -0.55835
 12 Co    0.16600   -0.19367    0.10196
 13 Fe   -0.28169   -0.01502   -0.49758
 14 Al   -0.02655    0.69053   -1.35834
 15 Co    0.16460   -0.31542    0.18800
 16 Co   -0.24299    0.25356    0.33203
 17 Co   -0.18336   -0.38466    0.06471
 18 Co   -0.03076    0.24185    0.16337
 19 Al    0.35484   -1.16193    0.00758
 20 Fe    0.07507   -0.22533    0.19404
 21 Fe    0.07574   -0.52663   -0.12772
 22 Cr    0.33092   -0.15064   -0.60375
 23 Ni    0.03935    0.09248    0.08532
 24 Co    0.33685    0.08346    0.15146
 25 Fe    0.58771    0.11756   -0.22906
 26 Fe    0.01753    0.08776   -0.45288
 27 Co   -0.05907   -0.09381    0.59763
 28 Cr   -1.11755    0.59194   -0.02028
 29 Ni   -0.42236    0.43380   -0.12898
 30 Fe   -0.28767    0.23917    0.02107
 31 Fe   -0.02717    0.12852    0.02782
 32 Co    0.44743    0.32653    0.03718
 33 Fe    0.01732    0.08838   -0.20924
 34 Co    0.41588    0.13641   -0.28713
 35 Cr   -0.08007   -0.39275   -0.53597
 36 Cr    0.52012   -0.36674    0.75467
 37 Cr    0.18199    0.04679   -0.26984
 38 Cr   -0.56687    0.33307    0.26396
 39 Cr    0.04990   -0.85099   -0.20159
 40 Ni   -0.10814    0.26926   -0.39687
 41 Ni   -0.13236   -0.05552    0.04468
 42 Co    0.11603    0.00542   -0.00867
 43 Cr   -0.12375    0.09305   -0.10716
 44 Cr   -0.35045    0.11349    0.74527
 45 Fe    0.10450   -0.24044   -0.32494
 46 Fe    0.49604   -0.39244    0.23521
 47 Co    0.10004    0.13476    0.52942
 48 Ni    0.04644   -0.24233   -0.29609
 49 Al    0.88605   -0.52628    0.17630
 50 Fe    0.28870   -0.51382    0.26146
 51 Co    0.42361    0.07431   -0.30006
 52 Cr    0.65367    0.10415   -0.04567
 53 Fe   -0.58385    0.01631   -0.34754
 54 Ni    0.16739   -0.06740   -0.10105
 55 Fe   -0.37882   -0.96780   -0.50885
 56 Cr   -0.41041   -0.01912    0.14313
 57 Ni    0.01760   -0.09098   -0.18137
 58 Fe   -0.19071   -0.02982   -0.36758
 59 Fe   -0.30615   -0.23941   -0.04833
 60 Cr    0.19325    0.95183   -1.02332
 61 Ni   -0.24462    0.55895    0.07208
 62 Ni    0.25643    0.02864   -0.02658
 63 Co   -0.16310    0.07915   -0.61622
 64 Fe   -0.32975   -0.11157    0.19718
 65 Cr    0.17943   -0.21564   -0.19228
 66 Ni   -0.12445    0.19167   -0.01241
 67 Fe   -0.08302    0.39469   -0.06913
 68 Al   -0.08459    0.18981   -0.16174
 69 Fe    0.24859    0.48935    0.22430
 70 Cr    0.05594    0.35219    0.90575
 71 Ni    0.12664    0.31188   -0.00653
 72 Cr   -0.76320    0.01696   -1.03171
 73 Fe    0.12611   -0.35836    0.40841
 74 Al   -0.07814   -0.67637    0.41964
 75 Co   -0.30587   -0.16963   -0.05768
 76 Ni    0.15625    0.12947    0.07290
 77 Cr    0.44981    1.07038   -0.08727
 78 Cr    0.31649   -0.19361   -0.28943
 79 Ni    0.13322    0.32262    0.17558
 80 Fe   -0.02942   -0.38360    0.07536
 81 Cr   -0.23098   -0.67050    0.35502
 82 Cr    0.07090    0.06826    0.32825
 83 Al    0.16817   -0.86039   -0.72713
 84 Fe    0.29226   -0.29657   -0.03804
 85 Cr    0.78908    0.98163    0.43350
 86 Cr   -0.02497    0.09921    0.39557
 87 Ni    0.26929    0.03529    0.25955
 88 Ni    0.04799   -0.15834    0.19424
 89 Fe   -0.86987   -0.22230    0.45595
 90 Ni   -0.16650   -0.19035   -0.10965
 91 Al    0.20969    0.01399    0.17736
 92 Cr   -0.21158   -0.55235   -0.15536
 93 Ni    0.11713   -0.09689   -0.00968
 94 Al    0.10085    0.24249    1.58008
 95 Cr   -0.61719    0.41667    0.16336
 96 Ni   -0.04178    0.14044    0.14085
 97 Ni   -0.27403    0.21422   -0.02606
 98 Co    0.06259   -0.40620    0.39324
 99 Ni   -0.40382    0.09996    0.16230
100 Co   -0.21793    0.09918    0.27393
101 Co    0.21497   -0.33570    0.23053
102 Co   -0.24879    0.54070   -0.02040
103 Ni   -0.07478    0.04780    0.05023
104 Ni    0.22151    0.23417    0.14423
105 Ni    0.46618    0.26143    0.05522
106 Co    0.12428    0.15636    0.01405
107 Cr    0.12707    0.22130    0.32912

Timing:                              incl.     excl.
-----------------------------------------------------------
Forces:                             16.328    16.328   0.1% |
Hamiltonian:                         0.571     0.004   0.0% |
 Atomic:                             0.354     0.096   0.0% |
  XC Correction:                     0.258     0.258   0.0% |
 Calculate atomic Hamiltonians:      0.115     0.115   0.0% |
 Communicate:                        0.008     0.008   0.0% |
 Initialize Hamiltonian:             0.000     0.000   0.0% |
 Poisson:                            0.000     0.000   0.0% |
 XC 3D grid:                         0.090     0.090   0.0% |
LCAO initialization:               125.631     1.013   0.0% |
 LCAO eigensolver:                  12.922     0.012   0.0% |
  Calculate projections:             0.388     0.388   0.0% |
  DenseAtomicCorrection:             0.555     0.555   0.0% |
  Distribute overlap matrix:         1.175     1.175   0.0% |
  Orbital Layouts:                   6.481     6.481   0.0% |
  Potential matrix:                  3.721     3.721   0.0% |
  Sum over cells:                    0.589     0.589   0.0% |
 LCAO to grid:                     109.978   109.978   0.4% |
 Set positions (LCAO WFS):           1.718     0.807   0.0% |
  Basic WFS set positions:           0.003     0.003   0.0% |
  Basis functions set positions:     0.001     0.001   0.0% |
  P tci:                             0.500     0.500   0.0% |
  ST tci:                            0.165     0.165   0.0% |
  mktci:                             0.243     0.243   0.0% |
PWDescriptor:                        0.050     0.050   0.0% |
SCF-cycle:                       26425.167     1.733   0.0% |
 Davidson:                       26010.201  6415.677  24.1% |---------|
  Apply H:                         228.896   223.437   0.8% |
   HMM T:                            5.459     5.459   0.0% |
  Subspace diag:                  2470.387     0.195   0.0% |
   calc_h_matrix:                  905.245   613.378   2.3% ||
    Apply H:                       291.867   286.065   1.1% |
     HMM T:                          5.802     5.802   0.0% |
   diagonalize:                    454.484   454.484   1.7% ||
   rotate_psi:                    1110.462  1110.462   4.2% |-|
  calc. matrices:                 4941.185  4506.341  17.0% |------|
   Apply H:                        434.844   423.924   1.6% ||
    HMM T:                          10.920    10.920   0.0% |
  diagonalize:                    9525.043  9525.043  35.8% |-------------|
  rotate_psi:                     2429.014  2429.014   9.1% |---|
 Density:                          222.167     0.007   0.0% |
  Atomic density matrices:           7.257     7.257   0.0% |
  Mix:                              52.076    52.076   0.2% |
  Multipole moments:                 0.117     0.117   0.0% |
  Pseudo density:                  162.710   162.699   0.6% |
   Symmetrize density:               0.011     0.011   0.0% |
 Hamiltonian:                      182.412     1.147   0.0% |
  Atomic:                          107.329    27.690   0.1% |
   XC Correction:                   79.639    79.639   0.3% |
  Calculate atomic Hamiltonians:    39.962    39.962   0.2% |
  Communicate:                       7.572     7.572   0.0% |
  Poisson:                           0.131     0.131   0.0% |
  XC 3D grid:                       26.271    26.271   0.1% |
 Orthonormalize:                     8.654     0.001   0.0% |
  calc_s_matrix:                     1.189     1.189   0.0% |
  inverse-cholesky:                  0.601     0.601   0.0% |
  projections:                       4.962     4.962   0.0% |
  rotate_psi_s:                      1.901     1.901   0.0% |
Set symmetry:                        0.001     0.001   0.0% |
Other:                               2.643     2.643   0.0% |
-----------------------------------------------------------
Total:                                     26570.391 100.0%

Date: Fri Apr 14 23:52:30 2023
