
  ___ ___ ___ _ _ _  
 |   |   |_  | | | | 
 | | | | | . | | | | 
 |__ |  _|___|_____|  22.8.0
 |___|_|             

User:   c.zeng@d0044
Date:   Tue Apr 18 06:38:37 2023
Arch:   x86_64
Pid:    36298
CWD:    /home/c.zeng/projects/hea-corrosion/hea-mlp/data-curation/surface-mcmc/dft-jobs/28
Python: 3.8.1
gpaw:   /home/c.zeng/usr/installs/gpaw/source/gpaw-22.8.0/gpaw
_gpaw:  /home/c.zeng/usr/installs/gpaw/source/gpaw-22.8.0/
        _gpaw.cpython-38-x86_64-linux-gnu.so
ase:    /home/c.zeng/.local/lib/python3.8/site-packages/ase-3.22.1-py3.8.egg/ase (version 3.22.1)
numpy:  /home/c.zeng/.local/lib/python3.8/site-packages/numpy (version 1.24.2)
scipy:  /home/c.zeng/.local/lib/python3.8/site-packages/scipy (version 1.10.1)
libxc:  4.2.3
units:  Angstrom and eV
cores: 30
OpenMP: False
OMP_NUM_THREADS: 1

Input parameters:
  convergence: {energy: 0.0001}
  kpts: [2 2 1]
  maxiter: 666
  mode: {ecut: 350.0,
         name: pw}
  occupations: {fixmagmom: False,
                name: fermi-dirac,
                width: 0.1}
  poissonsolver: {dipolelayer: xy}
  spinpol: True
  symmetry: {point_group: False}
  xc: PBE

System changes: positions, numbers, cell, pbc, initial_charges, initial_magmoms 

Initialize ...

species:
  Cr:
    name: Chromium
    id: 33f258bda2ca9f93018e70263a35547b
    Z: 24.0
    valence: 6
    core: 18
    charge: 0.0
    file: /home/c.zeng/usr/data/gpaw-setups-0.9.20000/Cr.PBE.gz
    compensation charges: {type: gauss,
                           rc: 0.35,
                           lmax: 2}
    cutoffs: {filter: 2.14,
              core: 3.04}
    valence states:
      #              energy  rcut
      - 4s(1.00)    -4.007   1.164
      - 4p(0.00)    -0.989   1.217
      - 3d(5.00)    -2.913   1.111
      -  s          23.205   1.164
      -  p          26.223   1.217
      -  d          24.299   1.111
  
    # Using partial waves for Cr as LCAO basis

  Co:
    name: Cobalt
    id: 339d20d5b0b93d2de9531a1bee871d91
    Z: 27.0
    valence: 9
    core: 18
    charge: 0.0
    file: /home/c.zeng/usr/data/gpaw-setups-0.9.20000/Co.PBE.gz
    compensation charges: {type: gauss,
                           rc: 0.32,
                           lmax: 2}
    cutoffs: {filter: 1.87,
              core: 2.55}
    valence states:
      #              energy  rcut
      - 4s(2.00)    -5.469   1.005
      - 4p(0.00)    -1.277   1.058
      - 3d(7.00)    -8.205   1.005
      -  s          21.742   1.005
      -  p          25.934   1.058
      -  d          19.007   1.005
  
    # Using partial waves for Co as LCAO basis

  Ni:
    name: Nickel
    id: 0d9f38a9d6e76a2886f07bb4381f212b
    Z: 28.0
    valence: 16
    core: 12
    charge: 0.0
    file: /home/c.zeng/usr/data/gpaw-setups-0.9.20000/Ni.PBE.gz
    compensation charges: {type: gauss,
                           rc: 0.36,
                           lmax: 2}
    cutoffs: {filter: 2.14,
              core: 1.98}
    valence states:
      #              energy  rcut
      - 4s(2.00)    -5.642   1.164
      - 3p(6.00)   -71.394   1.207
      - 4p(0.00)    -1.226   1.207
      - 3d(8.00)    -8.875   1.138
      -  s          21.570   1.164
      -  d          18.337   1.138
  
    # Using partial waves for Ni as LCAO basis

  Fe:
    name: Iron
    id: 37abbd8d6c3c35915a9b583b742da910
    Z: 26.0
    valence: 8
    core: 18
    charge: 0.0
    file: /home/c.zeng/usr/data/gpaw-setups-0.9.20000/Fe.PBE.gz
    compensation charges: {type: gauss,
                           rc: 0.33,
                           lmax: 2}
    cutoffs: {filter: 2.06,
              core: 2.67}
    valence states:
      #              energy  rcut
      - 4s(2.00)    -5.291   1.164
      - 4p(0.00)    -1.326   1.058
      - 3d(6.00)    -7.505   1.058
      -  s          21.920   1.164
      -  p          25.885   1.058
      -  d          19.706   1.058
  
    # Using partial waves for Fe as LCAO basis

Reference energy: -4451268.207082  # eV

Spin-polarized calculation.
Magnetic moment: 175.600000

Convergence criteria:
 Maximum [total energy] change in last 3 cyles: 0.0001 eV / electron
 Maximum integral of absolute [dens]ity change: 0.0001 electrons / valence electron
 Maximum integral of absolute [eigenst]ate change: 4e-08 eV^2 / valence electron
 Maximum number of scf [iter]ations: 666
 (Square brackets indicate name in SCF output, whereas a 'c' in
 the SCF output indicates the quantity has converged.)

Symmetries present (total): 1

  ( 1  0  0)
  ( 0  1  0)
  ( 0  0  1)

4 k-points: 2 x 2 x 1 Monkhorst-Pack grid
2 k-points in the irreducible part of the Brillouin zone
       k-points in crystal coordinates                weights
   0:     0.25000000   -0.25000000    0.00000000          2/4
   1:     0.25000000    0.25000000    0.00000000          2/4

Wave functions: Plane wave expansion
  Cutoff energy: 350.000 eV
  Number of coefficients (min, max): 58495, 58567
  Pulay-stress correction: 0.000000 eV/Ang^3 (de/decut=0.000000)
  Using FFTW library
  ScaLapack parameters: grid=1x1, blocksize=None
  Wavefunction extrapolation:
    Improved wavefunction reuse through dual PAW basis 

Occupation numbers: Fermi-Dirac:
  width: 0.1000  # eV
 

Eigensolver
   Davidson(niter=2) 

Densities:
  Coarse grid: 54*54*128 grid
  Fine grid: 108*108*256 grid
  Total Charge: 0.000000 

Density mixing:
  Method: difference
  Backend: pulay
  Linear mixing parameter: 0.05
  old densities: 5
  Damping of long wavelength oscillations: 50 

Hamiltonian:
  XC and Coulomb potentials evaluated on a 108*108*256 grid
  Using the PBE Exchange-Correlation functional
  External potential:
    NoExternalPotential
 

XC parameters: PBE with 2 nearest neighbor stencil

Memory estimate:
  Process memory now: 367.09 MiB
  Calculator: 2405.48 MiB
    Density: 16.73 MiB
      Arrays: 6.75 MiB
      Localized functions: 7.29 MiB
      Mixer: 2.70 MiB
    Hamiltonian: 5.22 MiB
      Arrays: 5.01 MiB
      XC: 0.00 MiB
      Poisson: 0.00 MiB
      vbar: 0.21 MiB
    Wavefunctions: 2383.52 MiB
      Arrays psit_nG: 1501.35 MiB
      Eigensolver: 862.84 MiB
      Projections: 3.85 MiB
      Projectors: 0.98 MiB
      PW-descriptor: 14.51 MiB

Total number of cores used: 30
Parallelization over k-points: 2
Domain decomposition: 1 x 3 x 5

Number of atoms: 125
Number of atomic orbitals: 1218
Number of bands in calculation: 840
Number of valence electrons: 1217
Bands to converge: occupied

... initialized

Initializing position-dependent things.

Density initialized from atomic densities
Creating initial wave functions:
  840 bands from LCAO basis set

                                                                  
                                                                  
                                                                  
                                                                  
                                   Co    Fe           Ni          
                         Ni    Ni    Fe    Co    Cr               
                    Co    Cr     Cr    Ni    Co                   
                                Fe    Ni    Ni    Cr    Fe        
                Cr    Ni   NCr   CFe    NFe   Fe    Fe            
            Co    Ni   CCo   NCo   FNi   Fe     Ni                
       Ni                 CoCr    Cr     Cr    Co    Fe           
                   Fe   CFe   FFe   CNi   CFe   Cr    Cr          
              Ni   CFe    CNi   CFe   CFe   Ni                    
                               Ni    Ni    Cr    Fe    Cr         
               Cr   CCo   FCr   NFNi  CFNi  CCo   Co    Cr        
           Cr   CNi   CFe  CNCr   NFe   CFe         Co            
            Fe    Fe          Co    Cr        Ni                  
                       CNi   Co    Cr    Ni     Cr                
             Fe    Cr    CFe   Co    CFe   Ni                     
              Co    Co    Cr     Ni    Cr                         
                                                                  
                                                                  
                                                                  
                                                                  
                                                                  

Positions:
   0 Cr    12.462288    1.423821   10.629080    ( 0.0000,  0.0000,  0.0000)
   1 Co     2.499576    1.440301   10.626527    ( 0.0000,  0.0000,  2.0000)
   2 Co     4.968611    1.438835   10.615079    ( 0.0000,  0.0000,  1.5000)
   3 Cr     7.462726    1.421460   10.639178    ( 0.0000,  0.0000,  2.1000)
   4 Ni     9.958813    1.440808   10.614286    ( 0.0000,  0.0000,  1.5000)
   5 Ni    13.701699    3.595687   10.631928    ( 0.0000,  0.0000,  0.0000)
   6 Fe     3.731720    3.588498   10.658463    ( 0.0000,  0.0000,  2.0000)
   7 Cr     6.206181    3.578862   10.616048    ( 0.0000,  0.0000,  0.0000)
   8 Co     8.708678    3.588487   10.610441    ( 0.0000,  0.0000,  0.0000)
   9 Co    11.213254    3.596560   10.610265    ( 0.0000,  0.0000,  0.0000)
  10 Cr    14.928341    5.748260   10.633307    ( 0.0000,  0.0000,  1.5000)
  11 Co     4.975718    5.742741   10.620568    ( 0.0000,  0.0000,  0.0000)
  12 Co     7.478433    5.755029   10.612261    ( 0.0000,  0.0000,  0.0000)
  13 Cr     9.958968    5.766540   10.606596    ( 0.0000,  0.0000,  0.0000)
  14 Ni    12.428955    5.759114   10.623679    ( 0.0000,  0.0000,  2.0000)
  15 Co    16.172575    7.907763   10.614962    ( 0.0000,  0.0000,  0.0000)
  16 Co     6.230875    7.897556   10.631399    ( 0.0000,  0.0000,  1.5000)
  17 Co     8.712063    7.918800   10.624912    ( 0.0000,  0.0000,  1.5000)
  18 Cr    11.196407    7.900649   10.627583    ( 0.0000,  0.0000,  2.0000)
  19 Ni    13.685743    7.894915   10.608768    ( 0.0000,  0.0000,  0.0000)
  20 Cr    17.413095   10.061737   10.609531    ( 0.0000,  0.0000,  0.0000)
  21 Ni     7.473454   10.060875   10.626761    ( 0.0000,  0.0000,  1.5000)
  22 Co     9.959304   10.058201   10.606068    ( 0.0000,  0.0000,  0.0000)
  23 Co    12.452485   10.052985   10.619834    ( 0.0000,  0.0000,  1.5000)
  24 Co    14.933506   10.061047   10.614433    ( 0.0000,  0.0000,  2.0000)
  25 Fe    12.449050   -0.000629   12.627234    ( 0.0000,  0.0000,  2.1000)
  26 Fe     2.492433    0.000558   12.634954    ( 0.0000,  0.0000,  2.1000)
  27 Cr     4.974333    0.000141   12.611941    ( 0.0000,  0.0000,  2.1000)
  28 Fe     7.468637   -0.006559   12.638564    ( 0.0000,  0.0000,  0.0000)
  29 Cr    16.167928   10.788301   12.619514    ( 0.0000,  0.0000,  2.0000)
  30 Fe     1.266555    2.151225   12.633662    ( 0.0000,  0.0000,  2.0000)
  31 Fe     3.735748    2.148121   12.651127    ( 0.0000,  0.0000,  2.1000)
  32 Ni     6.204229    2.151322   12.625297    ( 0.0000,  0.0000,  2.0000)
  33 Co     8.713864    2.159169   12.632341    ( 0.0000,  0.0000,  0.0000)
  34 Cr    11.209280    2.157261   12.630668    ( 0.0000,  0.0000,  2.0000)
  35 Cr     2.491537    4.311041   12.649513    ( 0.0000,  0.0000,  1.5000)
  36 Co     4.975141    4.309004   12.661988    ( 0.0000,  0.0000,  1.5000)
  37 Ni     7.471546    4.302515   12.629612    ( 0.0000,  0.0000,  0.0000)
  38 Ni     9.959331    4.321389   12.624211    ( 0.0000,  0.0000,  2.0000)
  39 Fe    12.447216    4.322736   12.648779    ( 0.0000,  0.0000,  0.0000)
  40 Cr     3.727002    6.455713   12.638564    ( 0.0000,  0.0000,  2.0000)
  41 Fe     6.230130    6.458548   12.645726    ( 0.0000,  0.0000,  1.5000)
  42 Fe     8.722502    6.475815   12.624504    ( 0.0000,  0.0000,  2.1000)
  43 Fe    11.197735    6.469758   12.643995    ( 0.0000,  0.0000,  1.5000)
  44 Co    13.683348    6.470059   12.640003    ( 0.0000,  0.0000,  2.1000)
  45 Cr    17.413993    8.621565   12.620189    ( 0.0000,  0.0000,  0.0000)
  46 Ni     7.471608    8.621834   12.638564    ( 0.0000,  0.0000,  1.5000)
  47 Ni     9.955597    8.628593   12.628115    ( 0.0000,  0.0000,  2.1000)
  48 Cr    12.449432    8.615173   12.619279    ( 0.0000,  0.0000,  1.5000)
  49 Fe    14.929575    8.617340   12.626089    ( 0.0000,  0.0000,  2.0000)
  50 Cr     1.254097    0.717223   14.680102    ( 0.0000,  0.0000,  2.1000)
  51 Ni     3.731090    0.711950   14.670063    ( 0.0000,  0.0000,  2.0000)
  52 Fe     6.214925    0.718289   14.674818    ( 0.0000,  0.0000,  0.0000)
  53 Cr     8.714063    0.718519   14.689084    ( 0.0000,  0.0000,  2.0000)
  54 Fe    11.204771    0.717512   14.682421    ( 0.0000,  0.0000,  0.0000)
  55 Cr     2.496837    2.862958   14.687264    ( 0.0000,  0.0000,  2.0000)
  56 Co     4.979214    2.867151   14.683800    ( 0.0000,  0.0000,  2.1000)
  57 Cr     7.478991    2.885690   14.679133    ( 0.0000,  0.0000,  2.1000)
  58 Ni     9.958294    2.881486   14.688056    ( 0.0000,  0.0000,  2.1000)
  59 Ni    12.441997    2.882424   14.688409    ( 0.0000,  0.0000,  0.0000)
  60 Co     3.731806    5.017201   14.686589    ( 0.0000,  0.0000,  2.1000)
  61 Cr     6.225452    5.035536   14.687205    ( 0.0000,  0.0000,  0.0000)
  62 Co     8.715945    5.032324   14.674525    ( 0.0000,  0.0000,  2.1000)
  63 Cr    11.195745    5.039006   14.696011    ( 0.0000,  0.0000,  2.0000)
  64 Ni    13.700079    5.031203   14.681012    ( 0.0000,  0.0000,  2.1000)
  65 Co     4.981869    7.184260   14.692048    ( 0.0000,  0.0000,  2.0000)
  66 Fe     7.477161    7.188130   14.678135    ( 0.0000,  0.0000,  1.5000)
  67 Co     9.952805    7.179334   14.674554    ( 0.0000,  0.0000,  0.0000)
  68 Cr    12.443073    7.188992   14.681100    ( 0.0000,  0.0000,  2.0000)
  69 Cr    14.930068    7.191493   14.686618    ( 0.0000,  0.0000,  0.0000)
  70 Cr     6.231394    9.346900   14.677343    ( 0.0000,  0.0000,  0.0000)
  71 Cr     8.712453    9.336671   14.666629    ( 0.0000,  0.0000,  1.5000)
  72 Cr    11.193692    9.342761   14.657881    ( 0.0000,  0.0000,  1.5000)
  73 Co    13.688080    9.336294   14.678986    ( 0.0000,  0.0000,  2.1000)
  74 Fe    16.181709    9.338601   14.679603    ( 0.0000,  0.0000,  2.0000)
  75 Fe    12.451515    1.431333   16.739956    ( 0.0000,  0.0000,  2.0000)
  76 Ni     2.493173    1.440441   16.729476    ( 0.0000,  0.0000,  1.5000)
  77 Fe     4.973378    1.437348   16.717295    ( 0.0000,  0.0000,  1.5000)
  78 Ni     7.475017    1.438609   16.711571    ( 0.0000,  0.0000,  2.0000)
  79 Fe     9.955789    1.433845   16.723048    ( 0.0000,  0.0000,  2.1000)
  80 Fe    13.696559    3.594351   16.715270    ( 0.0000,  0.0000,  2.1000)
  81 Fe     3.730077    3.579487   16.736903    ( 0.0000,  0.0000,  2.0000)
  82 Fe     6.225541    3.599416   16.704614    ( 0.0000,  0.0000,  1.5000)
  83 Fe     8.709257    3.594792   16.716150    ( 0.0000,  0.0000,  2.1000)
  84 Ni    11.199463    3.603674   16.739691    ( 0.0000,  0.0000,  2.0000)
  85 Ni    14.943900    5.737718   16.712745    ( 0.0000,  0.0000,  1.5000)
  86 Co     4.972339    5.736543   16.726893    ( 0.0000,  0.0000,  1.5000)
  87 Ni     7.458804    5.749316   16.714624    ( 0.0000,  0.0000,  2.1000)
  88 Fe     9.954095    5.748637   16.721228    ( 0.0000,  0.0000,  2.0000)
  89 Fe    12.462014    5.747344   16.728743    ( 0.0000,  0.0000,  2.0000)
  90 Fe    16.183410    7.912818   16.742715    ( 0.0000,  0.0000,  2.0000)
  91 Ni     6.219087    7.908313   16.727040    ( 0.0000,  0.0000,  2.1000)
  92 Co     8.705037    7.899237   16.717853    ( 0.0000,  0.0000,  1.5000)
  93 Ni    11.200247    7.900293   16.707726    ( 0.0000,  0.0000,  2.0000)
  94 Fe    13.685904    7.915049   16.733058    ( 0.0000,  0.0000,  2.0000)
  95 Fe    17.435836   10.053955   16.714183    ( 0.0000,  0.0000,  2.1000)
  96 Fe     7.479895   10.064335   16.723694    ( 0.0000,  0.0000,  2.1000)
  97 Ni     9.948438   10.062297   16.717999    ( 0.0000,  0.0000,  2.0000)
  98 Ni    12.430846   10.066016   16.706229    ( 0.0000,  0.0000,  2.1000)
  99 Cr    14.931465   10.060206   16.719819    ( 0.0000,  0.0000,  2.0000)
 100 Ni     0.001393   -0.001477   18.721348    ( 0.0000,  0.0000,  2.1000)
 101 Co     8.706806   10.779893   18.727160    ( 0.0000,  0.0000,  2.1000)
 102 Fe    11.204107   10.781618   18.717855    ( 0.0000,  0.0000,  1.5000)
 103 Co     7.469960    0.013195   18.707875    ( 0.0000,  0.0000,  2.0000)
 104 Ni    16.181919   10.775754   18.709108    ( 0.0000,  0.0000,  2.1000)
 105 Co     1.248004    2.161303   18.718354    ( 0.0000,  0.0000,  2.1000)
 106 Ni     3.733315    2.155634   18.745800    ( 0.0000,  0.0000,  1.5000)
 107 Co     6.228574    2.157186   18.698042    ( 0.0000,  0.0000,  2.0000)
 108 Co     8.707430    2.146688   18.721378    ( 0.0000,  0.0000,  1.5000)
 109 Ni    11.204420    2.145825   18.737698    ( 0.0000,  0.0000,  0.0000)
 110 Cr     2.490030    4.312410   18.723374    ( 0.0000,  0.0000,  2.1000)
 111 Ni     4.985099    4.302214   18.737992    ( 0.0000,  0.0000,  1.5000)
 112 Cr     7.468273    4.307150   18.718736    ( 0.0000,  0.0000,  1.5000)
 113 Fe     9.951365    4.318112   18.731387    ( 0.0000,  0.0000,  1.5000)
 114 Fe    12.445275    4.305296   18.744537    ( 0.0000,  0.0000,  0.0000)
 115 Co     3.740863    6.459076   18.741044    ( 0.0000,  0.0000,  0.0000)
 116 Cr     6.217689    6.472786   18.736054    ( 0.0000,  0.0000,  1.5000)
 117 Cr     8.709004    6.465931   18.718354    ( 0.0000,  0.0000,  0.0000)
 118 Ni    11.207929    6.465576   18.705468    ( 0.0000,  0.0000,  2.1000)
 119 Co    13.697451    6.465489   18.739900    ( 0.0000,  0.0000,  0.0000)
 120 Ni     4.983428    8.632721   18.739518    ( 0.0000,  0.0000,  1.5000)
 121 Ni     7.469224    8.629196   18.723022    ( 0.0000,  0.0000,  1.5000)
 122 Fe     9.951770    8.622740   18.693815    ( 0.0000,  0.0000,  2.1000)
 123 Co    12.435945    8.632257   18.713130    ( 0.0000,  0.0000,  0.0000)
 124 Cr    14.940770    8.642831   18.751406    ( 0.0000,  0.0000,  0.0000)

Unit cell:
           periodic     x           y           z      points  spacing
  1. axis:    yes   12.446800    0.000000    0.000000    54     0.1996
  2. axis:    yes    6.223010   10.778600    0.000000    54     0.1996
  3. axis:    no     0.000000    0.000000   29.353100   128     0.2293

  Lengths:  12.446800  12.446046  29.353100
  Angles:   90.000000  90.000000  60.000070

Effective grid spacing dv^(1/3) = 0.2193

     iter     time        total  log10-change:  magmom
                         energy  eigst   dens
iter:   1 06:50:02 -1140.147261                  +175.5308
iter:   2 06:53:23 -2012.119019  +0.47  -1.18    +139.8780
iter:   3 06:56:45 -2048.190285  +0.95  -0.87    +113.0947
iter:   4 07:00:06 -1177.144347  -0.32  -0.83    +76.2480
iter:   5 07:03:28 -1049.053822  -1.24  -1.20    +57.5461
iter:   6 07:06:49 -1031.987100  -1.78  -1.33    +43.2016
iter:   7 07:10:10 -1012.636689  -1.71  -1.36    +39.7561
iter:   8 07:13:31 -1110.604396  -1.10  -1.40    +40.8985
iter:   9 07:16:52 -1166.061070  -1.05  -1.19    +39.7867
iter:  10 07:20:13 -1006.808412  -1.58  -1.12    +34.0613
iter:  11 07:23:35  -995.800495  -1.97  -1.45    +34.0787
iter:  12 07:26:56  -998.898977  -1.61  -1.50    +35.2023
iter:  13 07:30:17 -1013.442901  -1.60  -1.55    +36.7028
iter:  14 07:33:38  -991.149904  -1.69  -1.46    +37.6970
iter:  15 07:36:59 -1289.057929  -1.03  -1.71    +40.5716
iter:  16 07:40:20 -1002.070877  -1.32  -1.06    +38.0222
iter:  17 07:43:43  -995.464989  -2.05  -1.58    +37.0792
iter:  18 07:47:04  -992.661518  -2.36  -1.68    +39.5533
iter:  19 07:50:26  -995.481664  -2.01  -1.72    +40.8877
iter:  20 07:53:47  -990.453409  -2.32  -1.72    +44.0309
iter:  21 07:57:08 -1080.428595  -1.69  -1.79    +46.1734
iter:  22 08:00:29  -990.229416  -1.85  -1.28    +45.4602
iter:  23 08:03:51 -1009.672350  -2.27  -1.83    +46.6724
iter:  24 08:07:12  -990.297313  -2.57  -1.56    +49.5269
iter:  25 08:10:33  -991.799151  -2.93  -1.87    +51.9145
iter:  26 08:13:55  -991.362015  -2.68  -1.87    +53.8945
iter:  27 08:17:16 -1013.216947  -1.96  -1.92    +56.1481
iter:  28 08:20:38  -992.664316  -2.15  -1.59    +56.1428
iter:  29 08:23:59  -991.472976  -2.87  -1.90    +57.3320
iter:  30 08:27:20 -1003.165964  -2.43  -2.01    +58.7483
iter:  31 08:30:41  -991.171062  -2.71  -1.69    +59.6296
iter:  32 08:34:02  -991.999729  -3.04  -2.08    +62.7035
iter:  33 08:37:23  -992.008442  -3.08  -2.04    +64.3870
iter:  34 08:40:44  -994.598398  -2.48  -2.14    +66.3454
iter:  35 08:44:08  -991.898091  -2.85  -2.03    +66.7153
iter:  36 08:47:29  -999.877342  -2.57  -2.33    +67.8789
iter:  37 08:50:50  -992.425217  -2.82  -1.82    +67.7202
iter:  38 08:54:12  -992.236750  -3.12  -2.28    +68.6060
iter:  39 08:57:33  -991.836678  -3.57  -2.34    +70.0267
iter:  40 09:00:55  -992.011813  -3.80  -2.54    +70.8326
iter:  41 09:04:16  -992.474953  -3.12  -2.54    +73.4068
iter:  42 09:07:38  -993.263123  -3.29  -2.47    +74.8165
iter:  43 09:10:59  -992.591632  -3.84  -2.30    +74.3945
iter:  44 09:14:21  -992.605278  -4.13  -2.45    +75.3062
iter:  45 09:17:43  -992.902168  -3.99  -2.48    +75.5583
iter:  46 09:21:05  -993.285641  -3.52  -2.40    +75.9186
iter:  47 09:24:27  -992.932167  -3.22  -2.32    +76.8267
iter:  48 09:27:50  -992.864433  -3.61  -2.38    +76.7088
iter:  49 09:31:12  -993.332045  -3.50  -2.45    +76.5355
iter:  50 09:34:34  -992.863932  -3.58  -2.30    +77.0664
iter:  51 09:37:56  -992.781988  -3.82  -2.47    +76.7104
iter:  52 09:41:18  -992.809663c -4.02  -2.52    +76.9698
iter:  53 09:44:40  -992.877234c -3.88  -2.56    +77.2943
iter:  54 09:48:03  -993.231417  -3.58  -2.57    +77.3572
iter:  55 09:51:25  -995.867374  -3.08  -2.44    +77.3799
iter:  56 09:54:48  -992.970516  -3.34  -2.03    +76.8863
iter:  57 09:58:10  -993.114927  -3.59  -2.59    +77.5789
iter:  58 10:01:33  -992.984019  -3.92  -2.55    +77.5487
iter:  59 10:04:55  -992.929951  -4.23  -2.64    +77.3599
iter:  60 10:08:17  -992.976601c -4.40  -2.73    +77.4349
iter:  61 10:11:40  -993.764907  -3.50  -2.72    +77.4907
iter:  62 10:15:03  -992.991771  -3.86  -2.31    +77.5378
iter:  63 10:18:25  -993.037750  -4.11  -2.81    +77.7952
iter:  64 10:21:47  -993.026443c -4.07  -2.83    +77.6917
iter:  65 10:25:10  -993.017133c -4.28  -2.91    +77.7655
iter:  66 10:28:33  -993.040496c -4.38  -3.04    +77.8166
iter:  67 10:31:55  -993.027620c -4.68  -2.93    +77.8920
iter:  68 10:35:18  -993.021670c -4.75  -3.04    +77.9519
iter:  69 10:38:39  -993.015214c -5.16  -3.13    +77.9410
iter:  70 10:42:02  -993.022573c -5.10  -3.24    +78.1181
iter:  71 10:45:24  -993.034114c -4.86  -3.28    +78.2700
iter:  72 10:48:47  -993.073734c -4.00  -3.24    +78.6840
iter:  73 10:52:12  -993.076966c -4.81  -3.09    +78.4439
iter:  74 10:55:40  -993.080585c -4.43  -3.00    +78.6752
iter:  75 10:59:08  -993.076816c -4.98  -3.05    +78.6415
iter:  76 11:02:37  -993.073509c -4.93  -3.10    +78.6243
iter:  77 11:06:05  -993.090007c -4.68  -3.09    +78.6263
iter:  78 11:09:34  -993.158557c -4.34  -3.01    +78.6254
iter:  79 11:13:03  -993.554224  -3.79  -2.77    +78.5182
iter:  80 11:16:31  -993.079874  -4.12  -2.44    +78.7103
iter:  81 11:20:00  -993.079184  -4.86  -3.12    +78.7332
iter:  82 11:23:53  -993.098318c -4.84  -3.18    +78.6404
iter:  83 11:28:48  -993.074284c -5.09  -3.03    +78.6426
iter:  84 11:33:33  -993.073624c -5.08  -3.34    +78.6795
iter:  85 11:38:20  -993.079527c -5.31  -3.41    +78.7429
iter:  86 11:41:49  -993.122182c -4.73  -3.33    +78.7604
iter:  87 11:45:13  -993.075177c -5.20  -2.93    +78.8037
iter:  88 11:48:36  -993.076876c -5.62  -3.67    +78.8859
iter:  89 11:52:00  -993.078801c -5.61  -3.75    +78.9474
iter:  90 11:55:23  -993.079819c -6.02  -3.80    +78.9757
iter:  91 11:58:46  -993.081660c -5.90  -3.83    +79.0030
iter:  92 12:02:10  -993.089091c -5.04  -3.80    +79.0749
iter:  93 12:05:33  -993.091552c -5.86  -3.53    +79.0341
iter:  94 12:08:56  -993.090877c -4.97  -3.36    +79.1515
iter:  95 12:12:19  -993.092154c -5.61  -3.62    +79.1983
iter:  96 12:16:03  -993.096866c -5.01  -3.60    +79.3843
iter:  97 12:20:09  -993.115841c -4.95  -3.52    +79.4489
iter:  98 12:24:16  -993.099958c -5.55  -3.10    +79.3930
iter:  99 12:28:23  -993.117134c -5.30  -3.40    +79.4437
iter: 100 12:32:31  -993.102739c -5.48  -3.14    +79.4338
iter: 101 12:36:37  -993.098575c -5.00  -3.40    +79.4033
iter: 102 12:40:43  -993.107988c -4.81  -3.43    +79.3801
iter: 103 12:44:49  -993.094978c -5.21  -3.24    +79.3201
iter: 104 12:48:54  -993.116072c -4.95  -3.56    +79.2737
iter: 105 12:52:59  -993.099925c -5.16  -3.07    +79.3183
iter: 106 12:57:06  -993.095734c -5.47  -3.36    +79.3428
iter: 107 13:01:12  -993.093702c -5.80  -3.49    +79.3010
iter: 108 13:05:19  -993.093787c -5.78  -3.66    +79.3064
iter: 109 13:09:25  -993.095082c -5.59  -3.68    +79.3090
iter: 110 13:13:32  -993.096678c -5.71  -3.63    +79.3043
iter: 111 13:17:38  -993.100176c -5.51  -3.51    +79.2687
iter: 112 13:21:44  -993.094017c -5.72  -3.31    +79.2866
iter: 113 13:25:51  -993.093515c -6.01  -3.72    +79.3026
iter: 114 13:29:58  -993.093497c -6.32  -3.84    +79.2933
iter: 115 13:34:04  -993.093150c -6.28  -3.88    +79.2969
iter: 116 13:38:11  -993.093424c -6.70  -3.87    +79.3108
iter: 117 13:42:17  -993.096723c -5.98  -3.80    +79.3241
iter: 118 13:46:25  -993.093394c -6.38  -3.52    +79.3137
iter: 119 13:50:33  -993.093763c -6.40  -3.99    +79.3072
iter: 120 13:54:41  -993.093459c -6.49  -3.93    +79.3051
iter: 121 13:58:49  -993.094347c -6.31  -3.96    +79.3002
iter: 122 14:02:56  -993.093874c -6.51  -3.85    +79.2881
iter: 123 14:07:04  -993.095124c -6.01  -3.87    +79.2759
iter: 124 14:11:11  -993.093348c -6.62  -3.55    +79.2942
iter: 125 14:15:19  -993.093304c -6.78  -4.13c   +79.3063
iter: 126 14:19:26  -993.093418c -6.90  -4.06c   +79.3127
iter: 127 14:23:35  -993.093266c -6.91  -4.09c   +79.3194
iter: 128 14:27:42  -993.093741c -6.66  -4.11c   +79.3329
iter: 129 14:31:50  -993.107202c -5.60  -4.07c   +79.3330
iter: 130 14:35:58  -993.093542c -5.92  -3.24    +79.3223
iter: 131 14:40:06  -993.093643c -6.66  -4.24c   +79.3176
iter: 132 14:44:15  -993.093503c -7.00  -4.26c   +79.3183
iter: 133 14:48:23  -993.093577c -7.59c -4.36c   +79.3213

Converged after 133 iterations.

Dipole moment: (52.519413, 28.354364, -0.008224) |e|*Ang

Total magnetic moment: (0.000000, 0.000000, 79.321324)
Local magnetic moments:
   0 Cr ( 0.000000,  0.000000, -2.077343)
   1 Co ( 0.000000,  0.000000,  1.483704)
   2 Co ( 0.000000,  0.000000,  1.217312)
   3 Cr ( 0.000000,  0.000000,  1.414408)
   4 Ni ( 0.000000,  0.000000,  0.063305)
   5 Ni ( 0.000000,  0.000000,  0.333667)
   6 Fe ( 0.000000,  0.000000,  2.298341)
   7 Cr ( 0.000000,  0.000000, -2.283781)
   8 Co ( 0.000000,  0.000000,  1.367656)
   9 Co ( 0.000000,  0.000000,  1.246223)
  10 Cr ( 0.000000,  0.000000, -2.033388)
  11 Co ( 0.000000,  0.000000,  1.258561)
  12 Co ( 0.000000,  0.000000,  1.481307)
  13 Cr ( 0.000000,  0.000000, -2.421274)
  14 Ni ( 0.000000,  0.000000,  0.213897)
  15 Co ( 0.000000,  0.000000,  1.022618)
  16 Co ( 0.000000,  0.000000,  1.414183)
  17 Co ( 0.000000,  0.000000,  1.421194)
  18 Cr ( 0.000000,  0.000000,  1.720730)
  19 Ni ( 0.000000,  0.000000,  0.273574)
  20 Cr ( 0.000000,  0.000000, -1.845654)
  21 Ni ( 0.000000,  0.000000,  0.295770)
  22 Co ( 0.000000,  0.000000,  1.351280)
  23 Co ( 0.000000,  0.000000,  0.826103)
  24 Co ( 0.000000,  0.000000,  1.092981)
  25 Fe ( 0.000000,  0.000000,  1.314779)
  26 Fe ( 0.000000,  0.000000,  2.026833)
  27 Cr ( 0.000000,  0.000000, -1.266685)
  28 Fe ( 0.000000,  0.000000,  1.750156)
  29 Cr ( 0.000000,  0.000000,  0.193398)
  30 Fe ( 0.000000,  0.000000,  1.692257)
  31 Fe ( 0.000000,  0.000000,  2.028622)
  32 Ni ( 0.000000,  0.000000,  0.236427)
  33 Co ( 0.000000,  0.000000,  0.672207)
  34 Cr ( 0.000000,  0.000000, -0.487315)
  35 Cr ( 0.000000,  0.000000, -0.609416)
  36 Co ( 0.000000,  0.000000,  0.975161)
  37 Ni ( 0.000000,  0.000000,  0.327186)
  38 Ni ( 0.000000,  0.000000,  0.336605)
  39 Fe ( 0.000000,  0.000000,  1.953526)
  40 Cr ( 0.000000,  0.000000,  0.426312)
  41 Fe ( 0.000000,  0.000000,  2.116284)
  42 Fe ( 0.000000,  0.000000,  2.344266)
  43 Fe ( 0.000000,  0.000000,  1.652732)
  44 Co ( 0.000000,  0.000000,  0.244904)
  45 Cr ( 0.000000,  0.000000, -0.317968)
  46 Ni ( 0.000000,  0.000000,  0.291844)
  47 Ni ( 0.000000,  0.000000,  0.211137)
  48 Cr ( 0.000000,  0.000000, -0.781230)
  49 Fe ( 0.000000,  0.000000,  1.257615)
  50 Cr ( 0.000000,  0.000000, -0.621173)
  51 Ni ( 0.000000,  0.000000,  0.168789)
  52 Fe ( 0.000000,  0.000000,  1.833340)
  53 Cr ( 0.000000,  0.000000, -1.047083)
  54 Fe ( 0.000000,  0.000000,  1.409736)
  55 Cr ( 0.000000,  0.000000, -1.079936)
  56 Co ( 0.000000,  0.000000,  0.996928)
  57 Cr ( 0.000000,  0.000000, -0.868811)
  58 Ni ( 0.000000,  0.000000,  0.140733)
  59 Ni ( 0.000000,  0.000000,  0.162714)
  60 Co ( 0.000000,  0.000000,  0.917207)
  61 Cr ( 0.000000,  0.000000, -1.386741)
  62 Co ( 0.000000,  0.000000,  0.956397)
  63 Cr ( 0.000000,  0.000000, -1.504050)
  64 Ni ( 0.000000,  0.000000,  0.110359)
  65 Co ( 0.000000,  0.000000,  0.548219)
  66 Fe ( 0.000000,  0.000000,  2.074848)
  67 Co ( 0.000000,  0.000000,  0.567891)
  68 Cr ( 0.000000,  0.000000, -0.893057)
  69 Cr ( 0.000000,  0.000000, -0.856073)
  70 Cr ( 0.000000,  0.000000, -0.800621)
  71 Cr ( 0.000000,  0.000000, -1.019948)
  72 Cr ( 0.000000,  0.000000,  0.607581)
  73 Co ( 0.000000,  0.000000,  0.086636)
  74 Fe ( 0.000000,  0.000000,  1.156414)
  75 Fe ( 0.000000,  0.000000,  2.226919)
  76 Ni ( 0.000000,  0.000000,  0.413066)
  77 Fe ( 0.000000,  0.000000,  2.442627)
  78 Ni ( 0.000000,  0.000000,  0.376184)
  79 Fe ( 0.000000,  0.000000,  2.087146)
  80 Fe ( 0.000000,  0.000000,  2.196721)
  81 Fe ( 0.000000,  0.000000,  2.176805)
  82 Fe ( 0.000000,  0.000000,  2.146665)
  83 Fe ( 0.000000,  0.000000,  2.135856)
  84 Ni ( 0.000000,  0.000000,  0.495322)
  85 Ni ( 0.000000,  0.000000,  0.362390)
  86 Co ( 0.000000,  0.000000,  1.201630)
  87 Ni ( 0.000000,  0.000000,  0.214422)
  88 Fe ( 0.000000,  0.000000,  2.128933)
  89 Fe ( 0.000000,  0.000000,  2.105458)
  90 Fe ( 0.000000,  0.000000,  2.069066)
  91 Ni ( 0.000000,  0.000000,  0.361084)
  92 Co ( 0.000000,  0.000000,  1.264938)
  93 Ni ( 0.000000,  0.000000,  0.437291)
  94 Fe ( 0.000000,  0.000000,  1.974824)
  95 Fe ( 0.000000,  0.000000,  2.049420)
  96 Fe ( 0.000000,  0.000000,  2.177819)
  97 Ni ( 0.000000,  0.000000,  0.465278)
  98 Ni ( 0.000000,  0.000000,  0.388803)
  99 Cr ( 0.000000,  0.000000, -0.415748)
 100 Ni ( 0.000000,  0.000000,  0.654109)
 101 Co ( 0.000000,  0.000000,  1.692330)
 102 Fe ( 0.000000,  0.000000,  2.728298)
 103 Co ( 0.000000,  0.000000,  1.407975)
 104 Ni ( 0.000000,  0.000000,  0.424703)
 105 Co ( 0.000000,  0.000000,  1.579654)
 106 Ni ( 0.000000,  0.000000,  0.576111)
 107 Co ( 0.000000,  0.000000,  1.557741)
 108 Co ( 0.000000,  0.000000,  1.540172)
 109 Ni ( 0.000000,  0.000000,  0.672885)
 110 Cr ( 0.000000,  0.000000, -2.571842)
 111 Ni ( 0.000000,  0.000000,  0.409432)
 112 Cr ( 0.000000,  0.000000, -2.300938)
 113 Fe ( 0.000000,  0.000000,  2.390308)
 114 Fe ( 0.000000,  0.000000,  2.646015)
 115 Co ( 0.000000,  0.000000,  1.382260)
 116 Cr ( 0.000000,  0.000000,  2.210649)
 117 Cr ( 0.000000,  0.000000, -2.486560)
 118 Ni ( 0.000000,  0.000000,  0.548011)
 119 Co ( 0.000000,  0.000000,  1.483693)
 120 Ni ( 0.000000,  0.000000,  0.412095)
 121 Ni ( 0.000000,  0.000000,  0.431014)
 122 Fe ( 0.000000,  0.000000,  2.657309)
 123 Co ( 0.000000,  0.000000,  1.572722)
 124 Cr ( 0.000000,  0.000000, -2.400048)

Energy contributions relative to reference atoms: (reference = -4451268.207082)

Kinetic:       +243.221519
Potential:     -297.741073
External:        +0.000000
XC:            -981.270950
Entropy (-ST):   -5.704132
Local:          +45.548992
--------------------------
Free energy:   -995.945643
Extrapolated:  -993.093577

Dipole-layer corrected work functions: 4.943349, 4.954441 eV

Spin contamination: 41.308840 electrons
Showing all kpts
                      Up                     Down
 Kpt  Band  Eigenvalues  Occupancy  Eigenvalues  Occupancy
  0   606     -0.05540    0.99622      0.86694    0.02535
  0   607     -0.04587    0.99584      0.87150    0.02425
  0   608     -0.03662    0.99544      0.87652    0.02309
  0   609     -0.02638    0.99495      0.89561    0.01916

  1   606     -0.03590    0.99541      0.87262    0.02399
  1   607     -0.02838    0.99505      0.88166    0.02196
  1   608     -0.01688    0.99445      0.89057    0.02013
  1   609     -0.00846    0.99397      0.90439    0.01757


Fermi level: 0.50203

No gap

Forces in eV/Ang:
  0 Cr    0.29683    0.39564   -0.19271
  1 Co    0.00702   -0.08810    0.10116
  2 Co   -0.10247   -0.36587    0.08406
  3 Cr    0.17525   -0.18857   -0.05902
  4 Ni    0.01265    0.08725   -0.14143
  5 Ni   -0.25578    0.01269   -0.25728
  6 Fe   -0.18592    0.01899   -0.30491
  7 Cr    0.08082    0.33569   -0.06304
  8 Co    0.18342    0.04730    0.25535
  9 Co    0.07946   -0.12782    0.36593
 10 Cr    0.19276    0.13743   -0.24675
 11 Co    0.11281    0.24290    0.39515
 12 Co   -0.20668    0.16840    0.00278
 13 Cr   -0.23288   -0.11463   -0.18138
 14 Ni    0.22284   -0.27153   -0.00494
 15 Co   -0.04786    0.12639    0.27197
 16 Co   -0.01353   -0.15159    0.06421
 17 Co   -0.38235    0.03082   -0.00874
 18 Cr    0.20433    0.34450   -0.42670
 19 Ni    0.19674    0.18817    0.08362
 20 Cr   -0.41498   -0.36437   -0.01653
 21 Ni    0.03535   -0.07484   -0.05985
 22 Co   -0.05050    0.14231    0.07551
 23 Co   -0.16658    0.21540    0.14429
 24 Co    0.00091   -0.28607    0.25191
 25 Fe   -0.27716    0.02956   -0.17824
 26 Fe    0.03183   -0.10476   -0.21819
 27 Cr    0.00073    0.10794   -0.39109
 28 Fe   -0.14151   -0.07714    0.25268
 29 Cr    0.14685   -0.20010   -0.50510
 30 Fe   -0.25556    0.13011   -0.13217
 31 Fe    0.38598    0.01319    0.10713
 32 Ni    0.12974   -0.05638    0.20848
 33 Co   -0.04021   -0.06847   -0.04549
 34 Cr   -0.14544   -0.02663    0.04662
 35 Cr    0.21806    0.26017   -0.13459
 36 Co    0.01069    0.10112   -0.01072
 37 Ni    0.09557    0.09866   -0.21561
 38 Ni   -0.19649   -0.24479    0.03050
 39 Fe   -0.18112   -0.15438   -0.31671
 40 Cr    0.25248   -0.23631    0.03746
 41 Fe   -0.12544   -0.07280   -0.44080
 42 Fe   -0.00418   -0.14325   -0.26310
 43 Fe    0.14409   -0.06134    0.36099
 44 Co   -0.17857    0.15084    0.13529
 45 Cr    0.08779   -0.13073   -0.01707
 46 Ni   -0.08949   -0.02227   -0.14910
 47 Ni   -0.00414   -0.13774    0.04979
 48 Cr    0.25411    0.00305   -0.23463
 49 Fe    0.10656    0.10720    0.06782
 50 Cr   -0.31854    0.21928   -0.05100
 51 Ni    0.05382    0.12726    0.02561
 52 Fe    0.27615    0.20869   -0.13231
 53 Cr    0.02485   -0.13705   -0.19414
 54 Fe    0.15805    0.26446   -0.29371
 55 Cr    0.01681    0.16874    0.12488
 56 Co    0.02481   -0.06055   -0.18446
 57 Cr    0.12444   -0.17378   -0.24701
 58 Ni    0.01184   -0.08842   -0.24951
 59 Ni    0.01082   -0.23841   -0.21084
 60 Co    0.30666    0.09223   -0.06627
 61 Cr   -0.54393    0.01422   -0.16281
 62 Co   -0.02945   -0.05085   -0.02907
 63 Cr   -0.08595   -0.04925   -0.18186
 64 Ni   -0.11106    0.09509   -0.15064
 65 Co   -0.03438    0.04905   -0.04136
 66 Fe   -0.02404    0.04945    0.36544
 67 Co    0.13084    0.09679   -0.04949
 68 Cr   -0.04910    0.01872    0.03873
 69 Cr    0.38489    0.17404   -0.33046
 70 Cr   -0.38275   -0.01664   -0.03105
 71 Cr    0.05394   -0.10738    0.03610
 72 Cr    0.32534   -0.31147    0.03679
 73 Co    0.06298    0.04612   -0.18913
 74 Fe   -0.14221   -0.17417   -0.16047
 75 Fe   -0.01437    0.10675   -0.11355
 76 Ni   -0.06133   -0.14116    0.10551
 77 Fe    0.01330   -0.02219   -0.18136
 78 Ni   -0.16612   -0.04839    0.15876
 79 Fe   -0.04118    0.02700   -0.05706
 80 Fe    0.00127   -0.16118   -0.00845
 81 Fe    0.31285    0.39556    0.02124
 82 Fe   -0.19437    0.14441    0.25330
 83 Fe   -0.13993   -0.10565   -0.02325
 84 Ni    0.06935   -0.21609   -0.16402
 85 Ni    0.06464    0.24448    0.31180
 86 Co   -0.09434   -0.00013   -0.13719
 87 Ni    0.09274    0.07539   -0.23498
 88 Fe   -0.13842    0.40775   -0.19624
 89 Fe   -0.01185    0.21823   -0.03617
 90 Fe    0.17689   -0.24302    0.03039
 91 Ni    0.09372   -0.12407   -0.37948
 92 Co   -0.13148    0.08495   -0.14949
 93 Ni   -0.05790    0.12406   -0.10519
 94 Fe   -0.05702    0.09141   -0.05361
 95 Fe   -0.23830   -0.03550    0.27296
 96 Fe    0.28774   -0.33516    0.12160
 97 Ni   -0.07202   -0.00578   -0.14394
 98 Ni    0.25281   -0.00376    0.00556
 99 Cr   -0.12216   -0.02107   -0.13694
100 Ni    0.05612    0.01645    0.29598
101 Co   -0.09516    0.06996    0.10025
102 Fe    0.19368   -0.04658    0.59796
103 Co   -0.04128   -0.04100   -0.01413
104 Ni   -0.04895    0.16363    0.39669
105 Co   -0.07731   -0.26598   -0.05269
106 Ni    0.08384   -0.02879    0.13127
107 Co   -0.10265    0.04834    0.12066
108 Co    0.15106   -0.15338   -0.03856
109 Ni   -0.02747    0.08657    0.18311
110 Cr    0.09996   -0.04963    0.42857
111 Ni   -0.12446   -0.15991    0.19602
112 Cr   -0.31294   -0.91925    0.28495
113 Fe   -0.09256   -0.20660    0.30858
114 Fe   -0.08272    0.00361    0.32804
115 Co   -0.22266    0.11571   -0.37484
116 Cr    0.06927   -0.12318    0.41287
117 Cr    0.50873    0.69898    0.32982
118 Ni    0.25840   -0.02689    0.38218
119 Co   -0.15481    0.16818   -0.34184
120 Ni   -0.06508    0.11924    0.20816
121 Ni   -0.00158    0.35437    0.13205
122 Fe   -0.13432   -0.00125    0.41367
123 Co    0.11200    0.00679    0.06059
124 Cr    0.01554   -0.22912    0.38578

Timing:                              incl.     excl.
-----------------------------------------------------------
Forces:                             67.337    67.337   0.2% |
Hamiltonian:                         1.977     0.012   0.0% |
 Atomic:                             0.671     0.002   0.0% |
  XC Correction:                     0.669     0.669   0.0% |
 Calculate atomic Hamiltonians:      0.507     0.507   0.0% |
 Communicate:                        0.135     0.135   0.0% |
 Initialize Hamiltonian:             0.000     0.000   0.0% |
 Poisson:                            0.123     0.123   0.0% |
 XC 3D grid:                         0.529     0.529   0.0% |
LCAO initialization:               451.922     0.735   0.0% |
 LCAO eigensolver:                  21.328     0.014   0.0% |
  Calculate projections:             0.000     0.000   0.0% |
  DenseAtomicCorrection:             0.000     0.000   0.0% |
  Distribute overlap matrix:        14.220    14.220   0.0% |
  Orbital Layouts:                   7.059     7.059   0.0% |
  Potential matrix:                  0.003     0.003   0.0% |
  Sum over cells:                    0.032     0.032   0.0% |
 LCAO to grid:                     426.730   426.730   1.4% ||
 Set positions (LCAO WFS):           3.129     2.672   0.0% |
  Basic WFS set positions:           0.006     0.006   0.0% |
  Basis functions set positions:     0.001     0.001   0.0% |
  P tci:                             0.000     0.000   0.0% |
  ST tci:                            0.188     0.188   0.0% |
  mktci:                             0.262     0.262   0.0% |
PWDescriptor:                        0.120     0.120   0.0% |
SCF-cycle:                       28927.098     1.347   0.0% |
 Davidson:                       28343.362  9467.682  32.1% |------------|
  Apply H:                         433.303   427.250   1.5% ||
   HMM T:                            6.053     6.053   0.0% |
  Subspace diag:                  3136.854     0.055   0.0% |
   calc_h_matrix:                 1224.061   852.539   2.9% ||
    Apply H:                       371.522   365.058   1.2% |
     HMM T:                          6.464     6.464   0.0% |
   diagonalize:                    278.212   278.212   0.9% |
   rotate_psi:                    1634.526  1634.526   5.5% |-|
  calc. matrices:                 7382.881  6683.270  22.7% |--------|
   Apply H:                        699.611   687.674   2.3% ||
    HMM T:                          11.937    11.937   0.0% |
  diagonalize:                    4425.554  4425.554  15.0% |-----|
  rotate_psi:                     3497.087  3497.087  11.9% |----|
 Density:                          296.970     0.005   0.0% |
  Atomic density matrices:           3.909     3.909   0.0% |
  Mix:                             115.498   115.498   0.4% |
  Multipole moments:                 0.137     0.137   0.0% |
  Pseudo density:                  177.421   177.414   0.6% |
   Symmetrize density:               0.007     0.007   0.0% |
 Hamiltonian:                      258.917     1.652   0.0% |
  Atomic:                           85.024     0.413   0.0% |
   XC Correction:                   84.611    84.611   0.3% |
  Calculate atomic Hamiltonians:    92.070    92.070   0.3% |
  Communicate:                      17.105    17.105   0.1% |
  Poisson:                           6.540     6.540   0.0% |
  XC 3D grid:                       56.526    56.526   0.2% |
 Orthonormalize:                    26.502     0.001   0.0% |
  calc_s_matrix:                     3.355     3.355   0.0% |
  inverse-cholesky:                  1.154     1.154   0.0% |
  projections:                      16.133    16.133   0.1% |
  rotate_psi_s:                      5.860     5.860   0.0% |
Set symmetry:                        0.001     0.001   0.0% |
Other:                              10.944    10.944   0.0% |
-----------------------------------------------------------
Total:                                     29459.400 100.0%

Date: Tue Apr 18 14:49:37 2023
