
  ___ ___ ___ _ _ _  
 |   |   |_  | | | | 
 | | | | | . | | | | 
 |__ |  _|___|_____|  22.8.0
 |___|_|             

User:   c.zeng@d0034
Date:   Thu Apr 20 04:49:16 2023
Arch:   x86_64
Pid:    125111
CWD:    /home/c.zeng/projects/hea-corrosion/hea-mlp/data-curation/surface-mcmc/dft-jobs/50
Python: 3.8.1
gpaw:   /home/c.zeng/usr/installs/gpaw/source/gpaw-22.8.0/gpaw
_gpaw:  /home/c.zeng/usr/installs/gpaw/source/gpaw-22.8.0/
        _gpaw.cpython-38-x86_64-linux-gnu.so
ase:    /home/c.zeng/.local/lib/python3.8/site-packages/ase-3.22.1-py3.8.egg/ase (version 3.22.1)
numpy:  /home/c.zeng/.local/lib/python3.8/site-packages/numpy (version 1.24.2)
scipy:  /home/c.zeng/.local/lib/python3.8/site-packages/scipy (version 1.10.1)
libxc:  4.2.3
units:  Angstrom and eV
cores: 30
OpenMP: False
OMP_NUM_THREADS: 1

Input parameters:
  convergence: {energy: 0.0001}
  kpts: [2 2 1]
  maxiter: 666
  mode: {ecut: 350.0,
         name: pw}
  occupations: {fixmagmom: False,
                name: fermi-dirac,
                width: 0.1}
  poissonsolver: {dipolelayer: xy}
  spinpol: True
  symmetry: {point_group: False}
  xc: PBE

System changes: positions, numbers, cell, pbc, initial_charges, initial_magmoms 

Initialize ...

species:
  Co:
    name: Cobalt
    id: 339d20d5b0b93d2de9531a1bee871d91
    Z: 27.0
    valence: 9
    core: 18
    charge: 0.0
    file: /home/c.zeng/usr/data/gpaw-setups-0.9.20000/Co.PBE.gz
    compensation charges: {type: gauss,
                           rc: 0.32,
                           lmax: 2}
    cutoffs: {filter: 1.87,
              core: 2.55}
    valence states:
      #              energy  rcut
      - 4s(2.00)    -5.469   1.005
      - 4p(0.00)    -1.277   1.058
      - 3d(7.00)    -8.205   1.005
      -  s          21.742   1.005
      -  p          25.934   1.058
      -  d          19.007   1.005
  
    # Using partial waves for Co as LCAO basis

  Cr:
    name: Chromium
    id: 33f258bda2ca9f93018e70263a35547b
    Z: 24.0
    valence: 6
    core: 18
    charge: 0.0
    file: /home/c.zeng/usr/data/gpaw-setups-0.9.20000/Cr.PBE.gz
    compensation charges: {type: gauss,
                           rc: 0.35,
                           lmax: 2}
    cutoffs: {filter: 2.14,
              core: 3.04}
    valence states:
      #              energy  rcut
      - 4s(1.00)    -4.007   1.164
      - 4p(0.00)    -0.989   1.217
      - 3d(5.00)    -2.913   1.111
      -  s          23.205   1.164
      -  p          26.223   1.217
      -  d          24.299   1.111
  
    # Using partial waves for Cr as LCAO basis

  Ni:
    name: Nickel
    id: 0d9f38a9d6e76a2886f07bb4381f212b
    Z: 28.0
    valence: 16
    core: 12
    charge: 0.0
    file: /home/c.zeng/usr/data/gpaw-setups-0.9.20000/Ni.PBE.gz
    compensation charges: {type: gauss,
                           rc: 0.36,
                           lmax: 2}
    cutoffs: {filter: 2.14,
              core: 1.98}
    valence states:
      #              energy  rcut
      - 4s(2.00)    -5.642   1.164
      - 3p(6.00)   -71.394   1.207
      - 4p(0.00)    -1.226   1.207
      - 3d(8.00)    -8.875   1.138
      -  s          21.570   1.164
      -  d          18.337   1.138
  
    # Using partial waves for Ni as LCAO basis

  Fe:
    name: Iron
    id: 37abbd8d6c3c35915a9b583b742da910
    Z: 26.0
    valence: 8
    core: 18
    charge: 0.0
    file: /home/c.zeng/usr/data/gpaw-setups-0.9.20000/Fe.PBE.gz
    compensation charges: {type: gauss,
                           rc: 0.33,
                           lmax: 2}
    cutoffs: {filter: 2.06,
              core: 2.67}
    valence states:
      #              energy  rcut
      - 4s(2.00)    -5.291   1.164
      - 4p(0.00)    -1.326   1.058
      - 3d(6.00)    -7.505   1.058
      -  s          21.920   1.164
      -  p          25.885   1.058
      -  d          19.706   1.058
  
    # Using partial waves for Fe as LCAO basis

  Al:
    name: Aluminium
    id: 0292cae29f5d6237e50f6abdd43a7bdd
    Z: 13.0
    valence: 3
    core: 10
    charge: 0.0
    file: /home/c.zeng/usr/data/gpaw-setups-0.9.20000/Al.PBE.gz
    compensation charges: {type: gauss,
                           rc: 0.34,
                           lmax: 2}
    cutoffs: {filter: 1.91,
              core: 2.36}
    valence states:
      #              energy  rcut
      - 3s(2.00)    -7.753   1.085
      - 3p(1.00)    -2.712   1.085
      -  s          19.459   1.085
      -  p          24.499   1.085
      -  d           0.000   1.085
  
    # Using partial waves for Al as LCAO basis

Reference energy: -4275894.041763  # eV

Spin-polarized calculation.
Magnetic moment: 165.900000

Convergence criteria:
 Maximum [total energy] change in last 3 cyles: 0.0001 eV / electron
 Maximum integral of absolute [dens]ity change: 0.0001 electrons / valence electron
 Maximum integral of absolute [eigenst]ate change: 4e-08 eV^2 / valence electron
 Maximum number of scf [iter]ations: 666
 (Square brackets indicate name in SCF output, whereas a 'c' in
 the SCF output indicates the quantity has converged.)

Symmetries present (total): 1

  ( 1  0  0)
  ( 0  1  0)
  ( 0  0  1)

4 k-points: 2 x 2 x 1 Monkhorst-Pack grid
2 k-points in the irreducible part of the Brillouin zone
       k-points in crystal coordinates                weights
   0:     0.25000000   -0.25000000    0.00000000          2/4
   1:     0.25000000    0.25000000    0.00000000          2/4

Wave functions: Plane wave expansion
  Cutoff energy: 350.000 eV
  Number of coefficients (min, max): 58901, 58943
  Pulay-stress correction: 0.000000 eV/Ang^3 (de/decut=0.000000)
  Using FFTW library
  ScaLapack parameters: grid=1x1, blocksize=None
  Wavefunction extrapolation:
    Improved wavefunction reuse through dual PAW basis 

Occupation numbers: Fermi-Dirac:
  width: 0.1000  # eV
 

Eigensolver
   Davidson(niter=2) 

Densities:
  Coarse grid: 54*54*128 grid
  Fine grid: 108*108*256 grid
  Total Charge: 0.000000 

Density mixing:
  Method: difference
  Backend: pulay
  Linear mixing parameter: 0.05
  old densities: 5
  Damping of long wavelength oscillations: 50 

Hamiltonian:
  XC and Coulomb potentials evaluated on a 108*108*256 grid
  Using the PBE Exchange-Correlation functional
  External potential:
    NoExternalPotential
 

XC parameters: PBE with 2 nearest neighbor stencil

Memory estimate:
  Process memory now: 358.87 MiB
  Calculator: 2335.53 MiB
    Density: 17.84 MiB
      Arrays: 6.75 MiB
      Localized functions: 8.39 MiB
      Mixer: 2.70 MiB
    Hamiltonian: 5.27 MiB
      Arrays: 5.01 MiB
      XC: 0.00 MiB
      Poisson: 0.00 MiB
      vbar: 0.25 MiB
    Wavefunctions: 2312.43 MiB
      Arrays psit_nG: 1458.82 MiB
      Eigensolver: 834.29 MiB
      Projections: 3.66 MiB
      Projectors: 1.14 MiB
      PW-descriptor: 14.51 MiB

Total number of cores used: 30
Parallelization over k-points: 2
Domain decomposition: 1 x 3 x 5

Number of atoms: 125
Number of atomic orbitals: 1185
Number of bands in calculation: 811
Number of valence electrons: 1179
Bands to converge: occupied

... initialized

Initializing position-dependent things.

Density initialized from atomic densities
Creating initial wave functions:
  811 bands from LCAO basis set

                                                                  
                                                                  
                                                                  
                                                                  
                             Cr                       Cr          
                               Ni    Co    Ni    Cr    Ni         
                          Co     Ni    Cr    Cr    Co             
                                Fe    Fe    Fe    Al    Cr        
                Co    Cr   NCr   CCo    FAl   Cr    Ni            
           Ni     Co   FCo   FCo   CCo   Cr     Ni   Ni           
             Cr    Co     CoFe    Ni    Fe     Fe                 
                  Co    NNi   CCr   CFe   CNi   ANi               
              Fe   NNi   FNi   CCFe  FNCr  NNi   Fe               
               Co    Fe    Cr    Ni     Co                        
                          Fe    NFe   CFe   CNi   CNi   Al        
           Fe    Cr   ACr  CCFe   FCr   CCo   CFe   Ni            
            Ni    Fe    Fe    Co    Ni                            
                       Fe    Cr    Al    Cr    Cr                 
       Ni    Cr   FCr    Co    NFe   Fe    Ni                     
              Cr    Co    Cr     Cr    Co                         
                                                                  
                                                                  
                                                                  
                                                                  
                                                                  

Positions:
   0 Co    12.486468    1.462777   10.528605    ( 0.0000,  0.0000,  1.5000)
   1 Cr     2.491286    1.427324   10.624355    ( 0.0000,  0.0000,  2.0000)
   2 Co     4.996443    1.433664   10.615695    ( 0.0000,  0.0000,  2.1000)
   3 Cr     7.497692    1.450585   10.618513    ( 0.0000,  0.0000,  2.0000)
   4 Cr     9.980354    1.438381   10.617016    ( 0.0000,  0.0000,  2.1000)
   5 Ni    13.725570    3.599047   10.613993    ( 0.0000,  0.0000,  2.1000)
   6 Fe     3.721032    3.570702   10.596763    ( 0.0000,  0.0000,  1.5000)
   7 Co     6.265421    3.568181   10.621801    ( 0.0000,  0.0000,  2.0000)
   8 Ni     8.741341    3.586865   10.615549    ( 0.0000,  0.0000,  2.0000)
   9 Fe    11.233064    3.610428   10.573163    ( 0.0000,  0.0000,  0.0000)
  10 Cr    14.927431    5.761281   10.554435    ( 0.0000,  0.0000,  1.5000)
  11 Fe     5.002416    5.751707   10.362584    ( 0.0000,  0.0000,  0.0000)
  12 Cr     7.528897    5.754942   10.601782    ( 0.0000,  0.0000,  1.5000)
  13 Al     9.984614    5.751426   10.596909    ( 0.0000,  0.0000,  2.1000)
  14 Cr    12.467830    5.774643   10.569993    ( 0.0000,  0.0000,  0.0000)
  15 Ni    16.185528    7.952943   10.517715    ( 0.0000,  0.0000,  0.0000)
  16 Co     6.281890    7.953062   10.585785    ( 0.0000,  0.0000,  2.0000)
  17 Cr     8.751632    7.929564   10.589659    ( 0.0000,  0.0000,  2.0000)
  18 Co    11.232798    7.933199   10.565472    ( 0.0000,  0.0000,  0.0000)
  19 Co    13.711755    7.928211   10.595530    ( 0.0000,  0.0000,  2.0000)
  20 Al    17.465073   10.103493   10.559367    ( 0.0000,  0.0000,  2.1000)
  21 Ni     7.524528   10.087482   10.585491    ( 0.0000,  0.0000,  2.1000)
  22 Cr     9.999339   10.092837   10.628699    ( 0.0000,  0.0000,  2.1000)
  23 Co    12.492524   10.103136   10.590364    ( 0.0000,  0.0000,  1.5000)
  24 Co    14.967562   10.103591   10.598553    ( 0.0000,  0.0000,  1.5000)
  25 Ni     0.039549    0.061487   12.592509    ( 0.0000,  0.0000,  0.0000)
  26 Cr     2.543839    0.004196   12.633574    ( 0.0000,  0.0000,  2.1000)
  27 Cr     5.007959    0.016292   12.619485    ( 0.0000,  0.0000,  1.5000)
  28 Al    13.725047   10.821613   12.614847    ( 0.0000,  0.0000,  1.5000)
  29 Fe     9.941746    0.020015   12.634836    ( 0.0000,  0.0000,  2.1000)
  30 Ni     1.280557    2.197634   12.622449    ( 0.0000,  0.0000,  2.0000)
  31 Fe     3.757003    2.159238   12.617870    ( 0.0000,  0.0000,  0.0000)
  32 Fe     6.259391    2.150539   12.632283    ( 0.0000,  0.0000,  0.0000)
  33 Co     8.729061    2.160536   12.640942    ( 0.0000,  0.0000,  1.5000)
  34 Ni    11.206426    2.199527   12.600112    ( 0.0000,  0.0000,  0.0000)
  35 Fe    14.980028    4.321894   12.623066    ( 0.0000,  0.0000,  1.5000)
  36 Al     5.000637    4.306532   12.605865    ( 0.0000,  0.0000,  0.0000)
  37 Cr     7.511972    4.316766   12.613115    ( 0.0000,  0.0000,  2.0000)
  38 Fe     9.977581    4.334444   12.603575    ( 0.0000,  0.0000,  2.0000)
  39 Co    12.466237    4.352219   12.609857    ( 0.0000,  0.0000,  0.0000)
  40 Ni    16.217374    6.438246   12.562775    ( 0.0000,  0.0000,  2.1000)
  41 Fe     6.249088    6.441384   12.586551    ( 0.0000,  0.0000,  2.1000)
  42 Fe     8.734867    6.480104   12.598380    ( 0.0000,  0.0000,  2.1000)
  43 Fe    11.217541    6.497393   12.580210    ( 0.0000,  0.0000,  1.5000)
  44 Ni    13.747589    6.470530   12.591629    ( 0.0000,  0.0000,  0.0000)
  45 Fe     4.965631    8.600697   12.619661    ( 0.0000,  0.0000,  0.0000)
  46 Cr     7.527050    8.647229   12.603517    ( 0.0000,  0.0000,  2.0000)
  47 Fe     9.992787    8.639093   12.602137    ( 0.0000,  0.0000,  0.0000)
  48 Ni    12.461146    8.678950   12.599202    ( 0.0000,  0.0000,  2.1000)
  49 Fe    14.923147    8.662851   12.605102    ( 0.0000,  0.0000,  0.0000)
  50 Fe     1.264555    0.726556   14.701676    ( 0.0000,  0.0000,  2.1000)
  51 Cr     3.750060    0.743838   14.683888    ( 0.0000,  0.0000,  1.5000)
  52 Cr     6.237655    0.730758   14.677812    ( 0.0000,  0.0000,  2.1000)
  53 Fe     8.726659    0.737641   14.712772    ( 0.0000,  0.0000,  2.0000)
  54 Cr    11.216460    0.725550   14.709367    ( 0.0000,  0.0000,  2.1000)
  55 Co     2.513395    2.883675   14.691579    ( 0.0000,  0.0000,  1.5000)
  56 Fe     4.990849    2.893120   14.684241    ( 0.0000,  0.0000,  2.0000)
  57 Cr     7.488486    2.893629   14.696334    ( 0.0000,  0.0000,  0.0000)
  58 Ni     9.972278    2.890664   14.692489    ( 0.0000,  0.0000,  2.0000)
  59 Co    12.467576    2.877141   14.691667    ( 0.0000,  0.0000,  0.0000)
  60 Ni     3.758526    5.050346   14.670151    ( 0.0000,  0.0000,  2.0000)
  61 Fe     6.246120    5.038056   14.669564    ( 0.0000,  0.0000,  1.5000)
  62 Co     8.732126    5.049902   14.667773    ( 0.0000,  0.0000,  1.5000)
  63 Ni    11.205583    5.023028   14.695277    ( 0.0000,  0.0000,  1.5000)
  64 Ni    13.756582    5.017781   14.684505    ( 0.0000,  0.0000,  2.0000)
  65 Ni     5.010694    7.182699   14.702674    ( 0.0000,  0.0000,  1.5000)
  66 Co     7.485228    7.189460   14.657588    ( 0.0000,  0.0000,  0.0000)
  67 Co     9.946463    7.198159   14.653068    ( 0.0000,  0.0000,  2.1000)
  68 Co    12.473405    7.201264   14.677166    ( 0.0000,  0.0000,  0.0000)
  69 Ni    15.017763    7.213900   14.645054    ( 0.0000,  0.0000,  2.1000)
  70 Fe     6.251064    9.372532   14.712302    ( 0.0000,  0.0000,  2.1000)
  71 Ni     8.729758    9.372705   14.658410    ( 0.0000,  0.0000,  0.0000)
  72 Fe    11.200962    9.406124   14.647901    ( 0.0000,  0.0000,  1.5000)
  73 Fe    13.749704    9.394894   14.665366    ( 0.0000,  0.0000,  2.0000)
  74 Ni    16.223386    9.399309   14.720785    ( 0.0000,  0.0000,  1.5000)
  75 Cr    12.479408    1.425961   16.738106    ( 0.0000,  0.0000,  1.5000)
  76 Fe     2.490684    1.454436   16.739222    ( 0.0000,  0.0000,  1.5000)
  77 Ni     4.964072    1.458060   16.748615    ( 0.0000,  0.0000,  2.0000)
  78 Ni     7.493576    1.474137   16.738664    ( 0.0000,  0.0000,  1.5000)
  79 Fe     9.990724    1.450314   16.751932    ( 0.0000,  0.0000,  2.0000)
  80 Ni    13.736871    3.597619   16.749671    ( 0.0000,  0.0000,  2.1000)
  81 Co     3.731782    3.620695   16.737637    ( 0.0000,  0.0000,  2.0000)
  82 Ni     6.217757    3.600962   16.741893    ( 0.0000,  0.0000,  0.0000)
  83 Cr     8.739843    3.608427   16.720025    ( 0.0000,  0.0000,  2.1000)
  84 Fe    11.236517    3.591755   16.778291    ( 0.0000,  0.0000,  2.0000)
  85 Ni    14.987780    5.779273   16.714506    ( 0.0000,  0.0000,  0.0000)
  86 Fe     4.996827    5.757928   16.729565    ( 0.0000,  0.0000,  1.5000)
  87 Fe     7.493878    5.760427   16.738488    ( 0.0000,  0.0000,  2.0000)
  88 Co     9.975457    5.766269   16.736932    ( 0.0000,  0.0000,  2.0000)
  89 Cr    12.478104    5.731140   16.775473    ( 0.0000,  0.0000,  1.5000)
  90 Ni    16.238159    7.937775   16.730328    ( 0.0000,  0.0000,  2.0000)
  91 Ni     6.231444    7.940404   16.765522    ( 0.0000,  0.0000,  0.0000)
  92 Cr     8.728840    7.936931   16.735611    ( 0.0000,  0.0000,  0.0000)
  93 Fe    11.192557    7.913866   16.746149    ( 0.0000,  0.0000,  0.0000)
  94 Cr    13.768802    7.904897   16.753722    ( 0.0000,  0.0000,  1.5000)
  95 Cr    17.466742   10.100767   16.763996    ( 0.0000,  0.0000,  2.0000)
  96 Fe     7.483726   10.114128   16.752695    ( 0.0000,  0.0000,  0.0000)
  97 Fe     9.946168   10.127316   16.729242    ( 0.0000,  0.0000,  0.0000)
  98 Fe    12.492406   10.089342   16.764671    ( 0.0000,  0.0000,  0.0000)
  99 Al    15.005292   10.118575   16.753076    ( 0.0000,  0.0000,  2.0000)
 100 Cr     6.250979   10.817826   18.755486    ( 0.0000,  0.0000,  2.1000)
 101 Cr     2.491992    0.007607   18.757365    ( 0.0000,  0.0000,  2.0000)
 102 Co     4.959039    0.011376   18.813253    ( 0.0000,  0.0000,  1.5000)
 103 Co     7.505721    0.033872   18.830425    ( 0.0000,  0.0000,  0.0000)
 104 Cr    16.226478   10.816744   18.766934    ( 0.0000,  0.0000,  1.5000)
 105 Ni     1.262456    2.149912   18.735438    ( 0.0000,  0.0000,  2.1000)
 106 Co     3.733330    2.172036   18.731769    ( 0.0000,  0.0000,  2.1000)
 107 Co     6.235561    2.176310   18.762208    ( 0.0000,  0.0000,  0.0000)
 108 Co     8.740232    2.176277   18.742160    ( 0.0000,  0.0000,  2.0000)
 109 Co    11.216255    2.130427   18.758333    ( 0.0000,  0.0000,  1.5000)
 110 Co     2.521812    4.343315   18.747649    ( 0.0000,  0.0000,  2.1000)
 111 Cr     4.991012    4.329273   18.757688    ( 0.0000,  0.0000,  0.0000)
 112 Cr     7.490880    4.334898   18.725399    ( 0.0000,  0.0000,  2.1000)
 113 Co     9.943770    4.322230   18.730184    ( 0.0000,  0.0000,  2.0000)
 114 Al    12.464525    4.326265   18.943816    ( 0.0000,  0.0000,  0.0000)
 115 Co    16.224051    6.495359   18.723022    ( 0.0000,  0.0000,  2.0000)
 116 Co     6.226814    6.495348   18.761650    ( 0.0000,  0.0000,  0.0000)
 117 Ni     8.730619    6.495759   18.735203    ( 0.0000,  0.0000,  1.5000)
 118 Cr    11.207915    6.503819   18.742835    ( 0.0000,  0.0000,  2.1000)
 119 Cr    13.765796    6.524169   18.782109    ( 0.0000,  0.0000,  0.0000)
 120 Ni    17.450702    8.660601   18.763558    ( 0.0000,  0.0000,  0.0000)
 121 Ni     7.490686    8.670024   18.761621    ( 0.0000,  0.0000,  1.5000)
 122 Co     9.981419    8.673010   18.727630    ( 0.0000,  0.0000,  2.1000)
 123 Ni    12.489241    8.635804   18.838438    ( 0.0000,  0.0000,  0.0000)
 124 Cr    14.988874    8.667774   18.729832    ( 0.0000,  0.0000,  2.1000)

Unit cell:
           periodic     x           y           z      points  spacing
  1. axis:    yes   12.474800    0.000000    0.000000    54     0.2001
  2. axis:    yes    6.246240   10.818800    0.000000    54     0.2003
  3. axis:    no     0.000000    0.000000   29.353100   128     0.2293

  Lengths:  12.474800  12.492476  29.353100
  Angles:   90.000000  90.000000  59.999988

Effective grid spacing dv^(1/3) = 0.2198

     iter     time        total  log10-change:  magmom
                         energy  eigst   dens
iter:   1 04:59:50 -1057.770547                  +165.5127
iter:   2 05:03:35 -2154.685266  +0.44  -1.21    +131.5282
iter:   3 05:07:20 -1395.622280  +0.46  -0.80    +104.2661
iter:   4 05:11:06 -1072.022706  -0.71  -1.00    +69.9252
iter:   5 05:14:52 -1008.361419  -1.33  -1.23    +56.2965
iter:   6 05:18:34  -996.995785  -1.77  -1.33    +50.1614
iter:   7 05:22:19  -993.408688  -1.85  -1.35    +47.5175
iter:   8 05:26:04 -1682.857521  -0.55  -1.37    +48.0907
iter:   9 05:29:49  -995.763427  -0.71  -0.87    +45.6372
iter:  10 05:33:33  -980.379112  -1.61  -1.37    +44.4977
iter:  11 05:37:18  -968.472667  -1.79  -1.44    +45.1007
iter:  12 05:41:03 -1023.150086  -1.52  -1.55    +45.6342
iter:  13 05:44:48  -993.035840  -1.54  -1.32    +46.4669
iter:  14 05:48:33  -974.421925  -1.63  -1.43    +45.4844
iter:  15 05:52:16  -978.632804  -1.68  -1.63    +44.0588
iter:  16 05:55:59  -982.028305  -1.73  -1.55    +44.6702
iter:  17 05:59:46  -963.401421  -2.16  -1.55    +44.9791
iter:  18 06:03:31  -968.394902  -2.38  -1.75    +46.7042
iter:  19 06:07:15  -978.327563  -2.08  -1.70    +48.1638
iter:  20 06:11:00  -977.293637  -2.07  -1.58    +49.6278
iter:  21 06:14:46  -968.564218  -2.17  -1.60    +49.2780
iter:  22 06:18:30  -963.169898  -2.75  -1.72    +50.7015
iter:  23 06:22:15  -964.103167  -2.74  -1.87    +54.0144
iter:  24 06:26:00  -963.441125  -3.00  -1.86    +56.2371
iter:  25 06:29:44  -963.700857  -3.19  -1.91    +58.4757
iter:  26 06:33:29  -966.155633  -2.75  -1.94    +62.7116
iter:  27 06:37:14 -1039.264852  -1.82  -1.91    +61.8174
iter:  28 06:40:59  -970.053029  -1.92  -1.29    +64.3738
iter:  29 06:44:43  -967.446429  -2.44  -1.87    +63.0228
iter:  30 06:48:28  -968.895350  -2.39  -1.99    +65.5647
iter:  31 06:52:09  -966.592517  -2.73  -1.97    +66.1203
iter:  32 06:55:53  -965.947343  -3.17  -2.08    +68.5389
iter:  33 06:59:38  -970.905862  -2.72  -2.19    +70.6509
iter:  34 07:03:22  -966.433831  -3.07  -1.88    +70.3241
iter:  35 07:07:07  -966.821428  -3.30  -2.21    +71.6339
iter:  36 07:10:52  -967.651373  -2.96  -2.28    +72.2099
iter:  37 07:14:36  -967.145614  -3.13  -2.25    +72.5639
iter:  38 07:18:19  -967.315337  -3.18  -2.53    +72.9345
iter:  39 07:22:01  -968.844392  -3.25  -2.54    +73.0969
iter:  40 07:25:46  -967.503093  -3.31  -2.14    +73.8726
iter:  41 07:29:31  -967.522215  -3.63  -2.54    +74.0718
iter:  42 07:33:16  -967.551191c -3.96  -2.62    +74.3463
iter:  43 07:37:00  -967.764371  -3.64  -2.69    +74.6627
iter:  44 07:40:44  -968.047695  -3.36  -2.65    +75.0981
iter:  45 07:44:29  -969.391295  -3.22  -2.56    +75.2747
iter:  46 07:48:13  -968.256112  -3.50  -2.17    +75.3685
iter:  47 07:51:58  -968.266734  -3.71  -2.49    +75.5121
iter:  48 07:55:37  -968.276928c -4.02  -2.53    +75.6290
iter:  49 07:59:12  -968.374562c -3.26  -2.54    +75.5991
iter:  50 08:03:29  -968.567948  -3.30  -2.45    +75.6205
iter:  51 08:07:05  -968.774844  -3.42  -2.40    +75.2961
iter:  52 08:10:38  -968.303785  -3.59  -2.34    +75.1060
iter:  53 08:14:12  -968.211768  -3.87  -2.58    +74.7730
iter:  54 08:17:46  -968.225210c -4.13  -2.74    +74.5496
iter:  55 08:21:20  -968.240105c -4.39  -2.78    +74.5761
iter:  56 08:24:54  -968.277050c -4.24  -2.81    +74.4985
iter:  57 08:28:27  -968.298783c -4.34  -2.75    +74.4275
iter:  58 08:32:01  -968.854538  -3.65  -2.76    +74.3380
iter:  59 08:36:18  -968.392118  -3.67  -2.37    +74.3298
iter:  60 08:39:56  -968.351925  -3.91  -2.67    +74.3411
iter:  61 08:43:30  -968.328507c -4.17  -2.83    +74.1750
iter:  62 08:47:02  -968.428717c -4.07  -2.90    +74.1634
iter:  63 08:50:35  -968.332956c -4.46  -2.72    +74.1437
iter:  64 08:54:08  -968.355476c -4.71  -3.04    +74.0664
iter:  65 08:57:41  -968.404675c -4.46  -3.08    +73.9718
iter:  66 09:01:15  -968.387655c -4.80  -3.00    +73.9970
iter:  67 09:04:47  -968.436397c -4.37  -3.04    +73.8719
iter:  68 09:08:19  -968.416160c -4.64  -3.00    +73.8335
iter:  69 09:11:53  -968.443371c -4.66  -3.27    +73.7666
iter:  70 09:15:25  -968.454526c -4.84  -3.22    +73.6966
iter:  71 09:18:58  -968.480596c -4.69  -3.36    +73.5830
iter:  72 09:23:18  -968.500920c -5.01  -3.25    +73.5353
iter:  73 09:26:52  -968.510332c -4.84  -3.09    +73.4769
iter:  74 09:30:25  -968.536569c -4.66  -3.19    +73.3614
iter:  75 09:33:59  -968.552000c -4.79  -3.10    +73.3223
iter:  76 09:37:33  -968.562294c -4.68  -3.08    +73.2736
iter:  77 09:41:08  -968.607169c -4.60  -3.10    +73.2775
iter:  78 09:44:43  -968.615643c -4.50  -2.96    +73.3027
iter:  79 09:48:18  -968.619330c -4.49  -2.97    +73.2997
iter:  80 09:51:52  -968.666322c -4.40  -3.02    +73.2501
iter:  81 09:55:50  -968.622575c -4.70  -2.83    +73.2216
iter:  82 09:59:51  -968.658337c -4.38  -3.06    +73.1448
iter:  83 10:03:26  -968.671179c -4.58  -2.95    +73.1069
iter:  84 10:07:02  -968.644045c -4.73  -2.88    +73.0564
iter:  85 10:10:37  -968.746177c -4.12  -3.05    +73.0832
iter:  86 10:14:12  -968.702473c -4.18  -2.75    +73.0718
iter:  87 10:17:48  -968.643709c -4.76  -2.80    +73.0997
iter:  88 10:21:24  -968.649782c -5.16  -3.18    +73.1060
iter:  89 10:24:59  -968.659973c -4.92  -3.17    +73.1307
iter:  90 10:28:34  -968.714803c -4.44  -3.14    +73.2473
iter:  91 10:32:08  -968.706469c -4.65  -2.89    +73.1544
iter:  92 10:35:44  -968.722744c -4.89  -2.93    +73.3823
iter:  93 10:39:20  -968.767619c -3.62  -2.91    +74.2435
iter:  94 10:43:06  -968.759658c -4.31  -2.80    +74.0104
iter:  95 10:47:22  -968.762980c -4.39  -2.86    +74.2539
iter:  96 10:50:57  -968.752156c -4.28  -2.81    +74.2330
iter:  97 10:54:32  -969.138692  -3.60  -2.85    +74.4088
iter:  98 10:58:07  -968.696674  -3.68  -2.43    +74.5521
iter:  99 11:01:41  -968.779612  -4.07  -3.06    +74.4759
iter: 100 11:05:17  -968.686415c -4.53  -2.80    +74.4730
iter: 101 11:08:52  -968.696363c -4.82  -3.25    +74.4679
iter: 102 11:12:26  -968.700231c -4.89  -3.28    +74.5517
iter: 103 11:16:01  -968.705358c -5.03  -3.31    +74.6137
iter: 104 11:19:37  -968.707666c -5.28  -3.34    +74.6686
iter: 105 11:23:12  -968.712714c -5.09  -3.28    +74.7365
iter: 106 11:26:46  -968.722996c -5.12  -3.34    +74.8211
iter: 107 11:30:21  -968.720016c -5.35  -3.22    +74.8751
iter: 108 11:33:56  -968.724914c -5.20  -3.38    +74.9377
iter: 109 11:37:31  -968.727759c -5.59  -3.41    +74.9737
iter: 110 11:41:51  -968.743178c -5.17  -3.40    +75.0689
iter: 111 11:45:26  -968.735297c -5.29  -3.21    +75.1269
iter: 112 11:49:01  -968.768501c -4.71  -3.52    +75.2165
iter: 113 11:52:36  -968.741476c -5.08  -3.03    +75.2287
iter: 114 11:56:12  -968.749016c -5.24  -3.75    +75.3303
iter: 115 11:59:47  -968.750993c -5.57  -3.71    +75.3620
iter: 116 12:03:23  -968.757200c -5.46  -3.73    +75.4499
iter: 117 12:06:58  -968.759235c -6.11  -3.54    +75.4688
iter: 118 12:10:33  -968.764192c -5.62  -3.42    +75.5056
iter: 119 12:14:08  -968.763339c -5.51  -3.43    +75.5534
iter: 120 12:17:44  -968.769817c -5.33  -3.62    +75.6715
iter: 121 12:21:19  -968.778944c -4.97  -3.55    +75.8313
iter: 122 12:24:55  -968.806695c -4.00  -3.51    +76.3696
iter: 123 12:28:29  -968.798019c -4.83  -3.20    +76.1076
iter: 124 12:32:04  -968.806584c -5.23  -3.33    +76.2649
iter: 125 12:35:39  -968.808583c -4.67  -3.29    +76.4872
iter: 126 12:39:14  -968.803463c -5.17  -3.25    +76.5268
iter: 127 12:42:50  -968.799758c -5.26  -3.29    +76.5313
iter: 128 12:46:24  -968.854512c -4.82  -3.33    +76.5244
iter: 129 12:50:31  -968.833694c -4.38  -2.85    +76.5015
iter: 130 12:54:17  -968.793839c -4.81  -2.95    +76.5746
iter: 131 12:57:51  -968.795107c -5.26  -3.46    +76.5332
iter: 132 13:01:27  -968.796976c -5.28  -3.48    +76.5023
iter: 133 13:05:02  -968.797087c -5.52  -3.39    +76.4858
iter: 134 13:08:37  -968.796456c -5.65  -3.45    +76.4792
iter: 135 13:12:13  -968.799463c -5.44  -3.44    +76.4473
iter: 136 13:15:46  -968.795853c -5.46  -3.39    +76.4347
iter: 137 13:19:21  -968.795230c -5.74  -3.54    +76.4451
iter: 138 13:22:55  -968.797734c -5.67  -3.63    +76.4390
iter: 139 13:26:30  -968.803310c -5.34  -3.56    +76.4309
iter: 140 13:30:05  -968.799321c -5.43  -3.26    +76.4146
iter: 141 13:33:40  -968.795466c -5.85  -3.45    +76.4176
iter: 142 13:37:15  -968.795965c -5.82  -3.69    +76.4199
iter: 143 13:40:50  -968.795390c -6.31  -3.69    +76.4084
iter: 144 13:44:51  -968.795041c -6.47  -3.84    +76.3996
iter: 145 13:48:48  -968.796917c -6.33  -3.96    +76.3922
iter: 146 13:52:23  -968.795127c -6.33  -3.65    +76.3919
iter: 147 13:55:58  -968.795449c -6.62  -3.86    +76.3761
iter: 148 13:59:32  -968.795519c -6.20  -3.89    +76.3705
iter: 149 14:03:07  -968.795095c -6.26  -3.81    +76.3753
iter: 150 14:06:42  -968.795386c -6.48  -3.93    +76.3727
iter: 151 14:10:17  -968.795266c -6.44  -3.96    +76.3646
iter: 152 14:13:51  -968.795744c -6.45  -3.82    +76.3587
iter: 153 14:17:26  -968.795005c -7.08  -3.85    +76.3575
iter: 154 14:21:01  -968.795198c -7.19  -4.16c   +76.3545
iter: 155 14:24:35  -968.795244c -6.91  -4.04c   +76.3561
iter: 156 14:28:10  -968.794996c -6.72  -4.08c   +76.3533
iter: 157 14:31:44  -968.795785c -6.64  -4.09c   +76.3563
iter: 158 14:35:18  -968.796068c -6.14  -3.88    +76.3549
iter: 159 14:38:52  -968.795189c -6.36  -3.64    +76.3496
iter: 160 14:42:27  -968.795022c -6.94  -4.11c   +76.3430
iter: 161 14:46:27  -968.794979c -6.95  -4.19c   +76.3471
iter: 162 14:50:26  -968.795172c -7.02  -4.21c   +76.3451
iter: 163 14:54:01  -968.794966c -7.53c -4.19c   +76.3409

Converged after 163 iterations.

Dipole moment: (45.165207, 22.512951, -0.015796) |e|*Ang

Total magnetic moment: (0.000000, 0.000000, 76.340949)
Local magnetic moments:
   0 Co ( 0.000000,  0.000000,  1.315488)
   1 Cr ( 0.000000,  0.000000, -2.154964)
   2 Co ( 0.000000,  0.000000,  0.930727)
   3 Cr ( 0.000000,  0.000000,  1.674133)
   4 Cr ( 0.000000,  0.000000, -2.433358)
   5 Ni ( 0.000000,  0.000000,  0.266102)
   6 Fe ( 0.000000,  0.000000,  2.462673)
   7 Co ( 0.000000,  0.000000,  0.675024)
   8 Ni ( 0.000000,  0.000000,  0.194057)
   9 Fe ( 0.000000,  0.000000,  2.416760)
  10 Cr ( 0.000000,  0.000000, -2.440697)
  11 Fe ( 0.000000,  0.000000,  2.720446)
  12 Cr ( 0.000000,  0.000000, -2.131623)
  13 Al ( 0.000000,  0.000000, -0.028968)
  14 Cr ( 0.000000,  0.000000, -2.308028)
  15 Ni ( 0.000000,  0.000000,  0.428559)
  16 Co ( 0.000000,  0.000000,  0.992515)
  17 Cr ( 0.000000,  0.000000,  1.643698)
  18 Co ( 0.000000,  0.000000,  1.220017)
  19 Co ( 0.000000,  0.000000,  1.319956)
  20 Al ( 0.000000,  0.000000, -0.036267)
  21 Ni ( 0.000000,  0.000000,  0.041020)
  22 Cr ( 0.000000,  0.000000, -1.810732)
  23 Co ( 0.000000,  0.000000,  1.117231)
  24 Co ( 0.000000,  0.000000,  1.174595)
  25 Ni ( 0.000000,  0.000000,  0.269980)
  26 Cr ( 0.000000,  0.000000,  0.782020)
  27 Cr ( 0.000000,  0.000000, -0.309995)
  28 Al ( 0.000000,  0.000000, -0.044249)
  29 Fe ( 0.000000,  0.000000,  2.118011)
  30 Ni ( 0.000000,  0.000000,  0.346984)
  31 Fe ( 0.000000,  0.000000,  1.797716)
  32 Fe ( 0.000000,  0.000000,  1.284155)
  33 Co ( 0.000000,  0.000000,  0.754011)
  34 Ni ( 0.000000,  0.000000,  0.381354)
  35 Fe ( 0.000000,  0.000000,  2.449228)
  36 Al ( 0.000000,  0.000000, -0.059517)
  37 Cr ( 0.000000,  0.000000, -0.774035)
  38 Fe ( 0.000000,  0.000000,  2.253837)
  39 Co ( 0.000000,  0.000000,  1.463625)
  40 Ni ( 0.000000,  0.000000,  0.441304)
  41 Fe ( 0.000000,  0.000000,  1.960834)
  42 Fe ( 0.000000,  0.000000,  1.561176)
  43 Fe ( 0.000000,  0.000000,  2.283214)
  44 Ni ( 0.000000,  0.000000,  0.336138)
  45 Fe ( 0.000000,  0.000000,  2.458157)
  46 Cr ( 0.000000,  0.000000, -1.331150)
  47 Fe ( 0.000000,  0.000000,  1.475451)
  48 Ni ( 0.000000,  0.000000,  0.453777)
  49 Fe ( 0.000000,  0.000000,  2.493024)
  50 Fe ( 0.000000,  0.000000,  1.832102)
  51 Cr ( 0.000000,  0.000000, -1.109052)
  52 Cr ( 0.000000,  0.000000, -0.773181)
  53 Fe ( 0.000000,  0.000000,  1.792228)
  54 Cr ( 0.000000,  0.000000, -1.500219)
  55 Co ( 0.000000,  0.000000,  1.425946)
  56 Fe ( 0.000000,  0.000000,  2.031889)
  57 Cr ( 0.000000,  0.000000, -1.095035)
  58 Ni ( 0.000000,  0.000000,  0.285765)
  59 Co ( 0.000000,  0.000000,  1.426385)
  60 Ni ( 0.000000,  0.000000,  0.472905)
  61 Fe ( 0.000000,  0.000000,  1.985809)
  62 Co ( 0.000000,  0.000000,  1.131580)
  63 Ni ( 0.000000,  0.000000,  0.513057)
  64 Ni ( 0.000000,  0.000000,  0.540707)
  65 Ni ( 0.000000,  0.000000,  0.563328)
  66 Co ( 0.000000,  0.000000,  1.328552)
  67 Co ( 0.000000,  0.000000,  1.393411)
  68 Co ( 0.000000,  0.000000,  1.427982)
  69 Ni ( 0.000000,  0.000000,  0.505775)
  70 Fe ( 0.000000,  0.000000,  2.208123)
  71 Ni ( 0.000000,  0.000000,  0.285851)
  72 Fe ( 0.000000,  0.000000,  2.028972)
  73 Fe ( 0.000000,  0.000000,  1.919210)
  74 Ni ( 0.000000,  0.000000,  0.263486)
  75 Cr ( 0.000000,  0.000000, -1.101548)
  76 Fe ( 0.000000,  0.000000,  2.132678)
  77 Ni ( 0.000000,  0.000000,  0.454980)
  78 Ni ( 0.000000,  0.000000,  0.284850)
  79 Fe ( 0.000000,  0.000000,  1.592478)
  80 Ni ( 0.000000,  0.000000,  0.437349)
  81 Co ( 0.000000,  0.000000,  1.426377)
  82 Ni ( 0.000000,  0.000000,  0.242503)
  83 Cr ( 0.000000,  0.000000,  0.602024)
  84 Fe ( 0.000000,  0.000000,  2.088265)
  85 Ni ( 0.000000,  0.000000,  0.373375)
  86 Fe ( 0.000000,  0.000000,  2.481650)
  87 Fe ( 0.000000,  0.000000,  2.194283)
  88 Co ( 0.000000,  0.000000,  1.140347)
  89 Cr ( 0.000000,  0.000000,  1.278168)
  90 Ni ( 0.000000,  0.000000,  0.257578)
  91 Ni ( 0.000000,  0.000000,  0.401665)
  92 Cr ( 0.000000,  0.000000, -1.670048)
  93 Fe ( 0.000000,  0.000000,  2.096620)
  94 Cr ( 0.000000,  0.000000, -1.518015)
  95 Cr ( 0.000000,  0.000000,  0.174606)
  96 Fe ( 0.000000,  0.000000,  1.737326)
  97 Fe ( 0.000000,  0.000000,  2.155375)
  98 Fe ( 0.000000,  0.000000,  2.378745)
  99 Al ( 0.000000,  0.000000, -0.031591)
 100 Cr ( 0.000000,  0.000000,  1.508594)
 101 Cr ( 0.000000,  0.000000, -2.353586)
 102 Co ( 0.000000,  0.000000,  1.586785)
 103 Co ( 0.000000,  0.000000,  1.335373)
 104 Cr ( 0.000000,  0.000000, -1.963610)
 105 Ni ( 0.000000,  0.000000,  0.271450)
 106 Co ( 0.000000,  0.000000,  1.468344)
 107 Co ( 0.000000,  0.000000,  1.434975)
 108 Co ( 0.000000,  0.000000,  1.265245)
 109 Co ( 0.000000,  0.000000,  1.008641)
 110 Co ( 0.000000,  0.000000,  1.426435)
 111 Cr ( 0.000000,  0.000000, -2.512694)
 112 Cr ( 0.000000,  0.000000, -2.090548)
 113 Co ( 0.000000,  0.000000,  1.239797)
 114 Al ( 0.000000,  0.000000, -0.012308)
 115 Co ( 0.000000,  0.000000,  1.303777)
 116 Co ( 0.000000,  0.000000,  1.319547)
 117 Ni ( 0.000000,  0.000000,  0.343005)
 118 Cr ( 0.000000,  0.000000, -1.959657)
 119 Cr ( 0.000000,  0.000000, -1.811967)
 120 Ni ( 0.000000,  0.000000,  0.206368)
 121 Ni ( 0.000000,  0.000000,  0.249321)
 122 Co ( 0.000000,  0.000000,  1.398729)
 123 Ni ( 0.000000,  0.000000,  0.181126)
 124 Cr ( 0.000000,  0.000000,  1.773990)

Energy contributions relative to reference atoms: (reference = -4275894.041763)

Kinetic:       +312.730339
Potential:     -341.091740
External:        +0.000000
XC:            -980.435384
Entropy (-ST):   -5.490045
Local:          +42.746842
--------------------------
Free energy:   -971.539988
Extrapolated:  -968.794966

Dipole-layer corrected work functions: 4.918337, 4.939516 eV

Spin contamination: 44.506420 electrons
Showing all kpts
                      Up                     Down
 Kpt  Band  Eigenvalues  Occupancy  Eigenvalues  Occupancy
  0   587     -0.06723    0.99660      0.84129    0.03219
  0   588     -0.04943    0.99594      0.84788    0.03020
  0   589     -0.04494    0.99576      0.85435    0.02836
  0   590     -0.03714    0.99542      0.87049    0.02423

  1   587     -0.05372    0.99611      0.84905    0.02985
  1   588     -0.03810    0.99546      0.85113    0.02926
  1   589     -0.01803    0.99446      0.86400    0.02582
  1   590     -0.00822    0.99389      0.87575    0.02302


Fermi level: 0.50094

No gap

Forces in eV/Ang:
  0 Co   -0.12236    0.33757    0.69076
  1 Cr    0.02498    0.43240   -0.25131
  2 Co   -0.18872   -0.20163    0.30055
  3 Cr   -0.37051    0.64515   -0.68508
  4 Cr   -0.35389    0.46841   -0.20355
  5 Ni   -0.28656   -0.02061   -0.11446
  6 Fe    0.31865    0.06489   -0.82375
  7 Co    0.00737    0.27806    0.05680
  8 Ni   -0.16705    0.08081   -0.23827
  9 Fe    0.64732   -0.44177   -0.02627
 10 Cr    1.12725   -0.03146   -0.11317
 11 Fe    0.03350    0.33650    0.53957
 12 Cr   -1.18869    0.16387   -0.27187
 13 Al    0.04682   -0.10750   -1.62403
 14 Cr    0.08565    0.00805   -0.03622
 15 Ni    0.18140   -0.19524    0.39567
 16 Co   -0.38793   -0.32802    0.39128
 17 Cr   -0.69151    0.59489   -0.30140
 18 Co    0.50550    0.27482    0.33456
 19 Co   -0.01006    0.30615    0.10330
 20 Al    0.74346   -0.74455   -0.81148
 21 Ni   -0.20777   -0.06700   -0.22898
 22 Cr    0.40418   -0.26101   -0.15704
 23 Co   -0.10874   -0.35154   -0.01727
 24 Co   -0.10544   -0.26350   -0.09053
 25 Ni   -0.33327   -0.25812    0.32900
 26 Cr   -0.23793    0.02837   -0.35208
 27 Cr   -0.67664    0.02662   -0.43539
 28 Al    0.45689   -0.18399    0.00508
 29 Fe    0.52392   -0.14406    0.20178
 30 Ni   -0.35396   -0.26755    0.13535
 31 Fe   -0.08505   -0.46121    0.00309
 32 Fe   -0.01207    0.14589    0.02322
 33 Co    0.09520    0.19018    0.06231
 34 Ni    0.34926   -0.08947    0.23327
 35 Fe   -0.67579   -0.08662    0.02151
 36 Al   -0.36051    0.33451   -0.09112
 37 Cr    0.74561   -0.17094   -0.15839
 38 Fe   -0.16119   -0.77393    0.88850
 39 Co   -0.10737   -0.09229    0.12966
 40 Ni    0.34778    0.46596   -0.16509
 41 Fe    0.11771    0.63498   -0.18980
 42 Fe   -0.42264    0.08126    1.02788
 43 Fe    0.62512    0.36696    0.68831
 44 Ni   -0.31821    0.13272    0.33512
 45 Fe    0.29869    0.15697    0.20141
 46 Cr   -0.27807   -0.19599   -0.28944
 47 Fe    0.18514    0.07535    0.21369
 48 Ni    0.01189   -0.38135   -0.08180
 49 Fe    0.53849   -0.68266   -0.16246
 50 Fe   -0.19503    0.20827   -0.36026
 51 Cr   -0.16804    0.01043    0.14220
 52 Cr   -0.45573   -0.17174    0.75548
 53 Fe   -0.02810    0.32184   -0.28403
 54 Cr    0.14103   -0.06008   -0.50519
 55 Co   -0.18209    0.07992   -0.00059
 56 Fe   -0.10969   -0.32533    0.43356
 57 Cr    0.12688    0.08211   -0.30918
 58 Ni    0.16112   -0.05816   -0.10078
 59 Co    0.18890    0.01375   -0.00905
 60 Ni   -0.07002   -0.07479    0.01381
 61 Fe    0.35608    0.19399    0.05316
 62 Co    0.06146    0.19784    0.01007
 63 Ni    0.16337    0.28489   -0.11626
 64 Ni   -0.34474    0.34666   -0.20038
 65 Ni    0.05470    0.35548   -0.42755
 66 Co    0.02382    0.10086   -0.02833
 67 Co    0.16716    0.00796    0.32246
 68 Co    0.04293    0.15365   -0.09059
 69 Ni   -0.44864    0.02962    0.09179
 70 Fe   -0.01375    0.03980   -0.56304
 71 Ni    0.06929   -0.21265    0.29178
 72 Fe    0.11949   -0.49570   -0.12965
 73 Fe   -0.42353   -0.40390    0.17867
 74 Ni    0.09735   -0.37518   -0.44643
 75 Cr   -0.01310    0.41864    0.62898
 76 Fe    0.18199    0.19638    0.12512
 77 Ni    0.28695   -0.11958    0.07685
 78 Ni   -0.20345   -0.17126    0.37837
 79 Fe    0.14444    0.59922    0.19795
 80 Ni   -0.10491    0.31894   -0.24060
 81 Co   -0.01079   -0.12117    0.01893
 82 Ni   -0.05269    0.04500   -0.07825
 83 Cr    0.00238   -0.03299    0.12068
 84 Fe   -0.17096   -0.28662   -0.37010
 85 Ni    0.10551   -0.19562    0.33730
 86 Fe   -0.02224   -0.03483    0.39299
 87 Fe   -0.00845    0.09716    0.08317
 88 Co   -0.09244   -0.10444    0.01923
 89 Cr    0.23997    0.80962   -0.08883
 90 Ni   -0.08781   -0.17218   -0.05194
 91 Ni    0.12692   -0.11844   -0.28197
 92 Cr    0.06471    0.10161    0.16064
 93 Fe    0.24007    0.21916    0.03597
 94 Cr   -0.66408    0.14416   -0.50415
 95 Cr    0.98883   -0.48834    0.43748
 96 Fe    0.12086   -0.50160   -0.32563
 97 Fe    0.49045   -0.23174    0.25015
 98 Fe   -0.36247    0.05803    0.41630
 99 Al   -0.90330    0.48480   -0.87818
100 Cr   -0.39224    0.30824    0.25905
101 Cr    0.00496    0.11211    0.11534
102 Co    0.47128    0.03070   -0.50750
103 Co   -0.49457    0.14219   -0.33260
104 Cr    0.51866    0.72394    0.61738
105 Ni   -0.16009    0.26117    0.33845
106 Co    0.17480   -0.05360    0.02237
107 Co    0.07642   -0.34742   -0.22943
108 Co   -0.21727    0.00158   -0.00923
109 Co   -0.18446    0.09997   -0.16554
110 Co    0.16932    0.04153   -0.29964
111 Cr   -0.98642    0.14857    0.30668
112 Cr    0.91906   -0.03575    0.23333
113 Co    0.12886   -0.03501   -0.20420
114 Al    0.24017   -1.11894    0.74868
115 Co    0.18058   -0.17106   -0.12878
116 Co    0.01085   -0.08014   -0.25680
117 Ni   -0.02992    0.15811    0.11371
118 Cr   -0.35738    0.47592   -0.15106
119 Cr    0.30932   -0.35005    0.15894
120 Ni    0.33748   -0.36529   -0.04645
121 Ni    0.05258   -0.42163   -0.00559
122 Co   -0.07030   -0.17066   -0.01509
123 Ni   -0.18294    0.25340   -0.39999
124 Cr   -0.36656   -0.60242    0.79460

Timing:                              incl.     excl.
-----------------------------------------------------------
Forces:                             51.396    51.396   0.1% |
Hamiltonian:                         2.159     0.015   0.0% |
 Atomic:                             0.445     0.002   0.0% |
  XC Correction:                     0.443     0.443   0.0% |
 Calculate atomic Hamiltonians:      1.001     1.001   0.0% |
 Communicate:                        0.059     0.059   0.0% |
 Initialize Hamiltonian:             0.001     0.001   0.0% |
 Poisson:                            0.146     0.146   0.0% |
 XC 3D grid:                         0.492     0.492   0.0% |
LCAO initialization:               383.430     0.642   0.0% |
 LCAO eigensolver:                  27.933     0.031   0.0% |
  Calculate projections:             0.000     0.000   0.0% |
  DenseAtomicCorrection:             0.000     0.000   0.0% |
  Distribute overlap matrix:        13.638    13.638   0.0% |
  Orbital Layouts:                  14.198    14.198   0.0% |
  Potential matrix:                  0.006     0.006   0.0% |
  Sum over cells:                    0.058     0.058   0.0% |
 LCAO to grid:                     351.580   351.580   1.0% |
 Set positions (LCAO WFS):           3.275     2.872   0.0% |
  Basic WFS set positions:           0.004     0.004   0.0% |
  Basis functions set positions:     0.001     0.001   0.0% |
  P tci:                             0.001     0.001   0.0% |
  ST tci:                            0.170     0.170   0.0% |
  mktci:                             0.228     0.228   0.0% |
PWDescriptor:                        0.162     0.162   0.0% |
SCF-cycle:                       35895.017     1.746   0.0% |
 Davidson:                       34867.886  9212.874  25.4% |---------|
  Apply H:                         641.602   629.994   1.7% ||
   HMM T:                           11.608    11.608   0.0% |
  Subspace diag:                  3254.211     0.105   0.0% |
   calc_h_matrix:                 1400.903   840.679   2.3% ||
    Apply H:                       560.223   548.317   1.5% ||
     HMM T:                         11.906    11.906   0.0% |
   diagonalize:                    338.437   338.437   0.9% |
   rotate_psi:                    1514.767  1514.767   4.2% |-|
  calc. matrices:                 7652.533  6578.778  18.1% |------|
   Apply H:                       1073.754  1049.703   2.9% ||
    HMM T:                          24.051    24.051   0.1% |
  diagonalize:                   10822.929 10822.929  29.8% |-----------|
  rotate_psi:                     3283.736  3283.736   9.0% |---|
 Density:                          593.064     0.009   0.0% |
  Atomic density matrices:           6.438     6.438   0.0% |
  Mix:                             307.851   307.851   0.8% |
  Multipole moments:                 0.177     0.177   0.0% |
  Pseudo density:                  278.590   278.578   0.8% |
   Symmetrize density:               0.012     0.012   0.0% |
 Hamiltonian:                      410.049     2.884   0.0% |
  Atomic:                           72.045     0.269   0.0% |
   XC Correction:                   71.776    71.776   0.2% |
  Calculate atomic Hamiltonians:   238.448   238.448   0.7% |
  Communicate:                      11.045    11.045   0.0% |
  Poisson:                           8.878     8.878   0.0% |
  XC 3D grid:                       76.749    76.749   0.2% |
 Orthonormalize:                    22.273     0.001   0.0% |
  calc_s_matrix:                     2.930     2.930   0.0% |
  inverse-cholesky:                  1.218     1.218   0.0% |
  projections:                      13.443    13.443   0.0% |
  rotate_psi_s:                      4.680     4.680   0.0% |
Set symmetry:                        0.001     0.001   0.0% |
Other:                               9.249     9.249   0.0% |
-----------------------------------------------------------
Total:                                     36341.414 100.0%

Date: Thu Apr 20 14:54:58 2023
