
  ___ ___ ___ _ _ _  
 |   |   |_  | | | | 
 | | | | | . | | | | 
 |__ |  _|___|_____|  22.8.0
 |___|_|             

User:   c.zeng@d0022
Date:   Mon Apr 17 12:15:14 2023
Arch:   x86_64
Pid:    39747
CWD:    /home/c.zeng/projects/hea-corrosion/hea-mlp/data-curation/surface-md/dft-jobs/44
Python: 3.8.1
gpaw:   /home/c.zeng/usr/installs/gpaw/source/gpaw-22.8.0/gpaw
_gpaw:  /home/c.zeng/usr/installs/gpaw/source/gpaw-22.8.0/
        _gpaw.cpython-38-x86_64-linux-gnu.so
ase:    /home/c.zeng/.local/lib/python3.8/site-packages/ase-3.22.1-py3.8.egg/ase (version 3.22.1)
numpy:  /home/c.zeng/.local/lib/python3.8/site-packages/numpy (version 1.24.2)
scipy:  /home/c.zeng/.local/lib/python3.8/site-packages/scipy (version 1.10.1)
libxc:  4.2.3
units:  Angstrom and eV
cores: 30
OpenMP: False
OMP_NUM_THREADS: 1

Input parameters:
  convergence: {energy: 0.0001}
  kpts: [2 2 1]
  maxiter: 666
  mode: {ecut: 350.0,
         name: pw}
  occupations: {fixmagmom: False,
                name: fermi-dirac,
                width: 0.1}
  poissonsolver: {dipolelayer: xy}
  spinpol: True
  symmetry: {point_group: False}
  xc: PBE

System changes: positions, numbers, cell, pbc, initial_charges, initial_magmoms 

Initialize ...

species:
  Al:
    name: Aluminium
    id: 0292cae29f5d6237e50f6abdd43a7bdd
    Z: 13.0
    valence: 3
    core: 10
    charge: 0.0
    file: /home/c.zeng/usr/data/gpaw-setups-0.9.20000/Al.PBE.gz
    compensation charges: {type: gauss,
                           rc: 0.34,
                           lmax: 2}
    cutoffs: {filter: 1.91,
              core: 2.36}
    valence states:
      #              energy  rcut
      - 3s(2.00)    -7.753   1.085
      - 3p(1.00)    -2.712   1.085
      -  s          19.459   1.085
      -  p          24.499   1.085
      -  d           0.000   1.085
  
    # Using partial waves for Al as LCAO basis

  Ni:
    name: Nickel
    id: 0d9f38a9d6e76a2886f07bb4381f212b
    Z: 28.0
    valence: 16
    core: 12
    charge: 0.0
    file: /home/c.zeng/usr/data/gpaw-setups-0.9.20000/Ni.PBE.gz
    compensation charges: {type: gauss,
                           rc: 0.36,
                           lmax: 2}
    cutoffs: {filter: 2.14,
              core: 1.98}
    valence states:
      #              energy  rcut
      - 4s(2.00)    -5.642   1.164
      - 3p(6.00)   -71.394   1.207
      - 4p(0.00)    -1.226   1.207
      - 3d(8.00)    -8.875   1.138
      -  s          21.570   1.164
      -  d          18.337   1.138
  
    # Using partial waves for Ni as LCAO basis

  Fe:
    name: Iron
    id: 37abbd8d6c3c35915a9b583b742da910
    Z: 26.0
    valence: 8
    core: 18
    charge: 0.0
    file: /home/c.zeng/usr/data/gpaw-setups-0.9.20000/Fe.PBE.gz
    compensation charges: {type: gauss,
                           rc: 0.33,
                           lmax: 2}
    cutoffs: {filter: 2.06,
              core: 2.67}
    valence states:
      #              energy  rcut
      - 4s(2.00)    -5.291   1.164
      - 4p(0.00)    -1.326   1.058
      - 3d(6.00)    -7.505   1.058
      -  s          21.920   1.164
      -  p          25.885   1.058
      -  d          19.706   1.058
  
    # Using partial waves for Fe as LCAO basis

  Cr:
    name: Chromium
    id: 33f258bda2ca9f93018e70263a35547b
    Z: 24.0
    valence: 6
    core: 18
    charge: 0.0
    file: /home/c.zeng/usr/data/gpaw-setups-0.9.20000/Cr.PBE.gz
    compensation charges: {type: gauss,
                           rc: 0.35,
                           lmax: 2}
    cutoffs: {filter: 2.14,
              core: 3.04}
    valence states:
      #              energy  rcut
      - 4s(1.00)    -4.007   1.164
      - 4p(0.00)    -0.989   1.217
      - 3d(5.00)    -2.913   1.111
      -  s          23.205   1.164
      -  p          26.223   1.217
      -  d          24.299   1.111
  
    # Using partial waves for Cr as LCAO basis

  Co:
    name: Cobalt
    id: 339d20d5b0b93d2de9531a1bee871d91
    Z: 27.0
    valence: 9
    core: 18
    charge: 0.0
    file: /home/c.zeng/usr/data/gpaw-setups-0.9.20000/Co.PBE.gz
    compensation charges: {type: gauss,
                           rc: 0.32,
                           lmax: 2}
    cutoffs: {filter: 1.87,
              core: 2.55}
    valence states:
      #              energy  rcut
      - 4s(2.00)    -5.469   1.005
      - 4p(0.00)    -1.277   1.058
      - 3d(7.00)    -8.205   1.005
      -  s          21.742   1.005
      -  p          25.934   1.058
      -  d          19.007   1.005
  
    # Using partial waves for Co as LCAO basis

Reference energy: -4103091.665053  # eV

Spin-polarized calculation.
Magnetic moment: 158.800000

Convergence criteria:
 Maximum [total energy] change in last 3 cyles: 0.0001 eV / electron
 Maximum integral of absolute [dens]ity change: 0.0001 electrons / valence electron
 Maximum integral of absolute [eigenst]ate change: 4e-08 eV^2 / valence electron
 Maximum number of scf [iter]ations: 666
 (Square brackets indicate name in SCF output, whereas a 'c' in
 the SCF output indicates the quantity has converged.)

Symmetries present (total): 1

  ( 1  0  0)
  ( 0  1  0)
  ( 0  0  1)

4 k-points: 2 x 2 x 1 Monkhorst-Pack grid
2 k-points in the irreducible part of the Brillouin zone
       k-points in crystal coordinates                weights
   0:     0.25000000   -0.25000000    0.00000000          2/4
   1:     0.25000000    0.25000000    0.00000000          2/4

Wave functions: Plane wave expansion
  Cutoff energy: 350.000 eV
  Number of coefficients (min, max): 59263, 59339
  Pulay-stress correction: 0.000000 eV/Ang^3 (de/decut=0.000000)
  Using FFTW library
  ScaLapack parameters: grid=1x1, blocksize=None
  Wavefunction extrapolation:
    Improved wavefunction reuse through dual PAW basis 

Occupation numbers: Fermi-Dirac:
  width: 0.1000  # eV
 

Eigensolver
   Davidson(niter=2) 

Densities:
  Coarse grid: 56*56*128 grid
  Fine grid: 112*112*256 grid
  Total Charge: 0.000000 

Density mixing:
  Method: difference
  Backend: pulay
  Linear mixing parameter: 0.05
  old densities: 5
  Damping of long wavelength oscillations: 50 

Hamiltonian:
  XC and Coulomb potentials evaluated on a 112*112*256 grid
  Using the PBE Exchange-Correlation functional
  External potential:
    NoExternalPotential
 

XC parameters: PBE with 2 nearest neighbor stencil

Memory estimate:
  Process memory now: 378.82 MiB
  Calculator: 2263.81 MiB
    Density: 18.78 MiB
      Arrays: 7.39 MiB
      Localized functions: 8.44 MiB
      Mixer: 2.95 MiB
    Hamiltonian: 5.74 MiB
      Arrays: 5.49 MiB
      XC: 0.00 MiB
      Poisson: 0.00 MiB
      vbar: 0.26 MiB
    Wavefunctions: 2239.28 MiB
      Arrays psit_nG: 1414.30 MiB
      Eigensolver: 804.77 MiB
      Projections: 3.48 MiB
      Projectors: 1.15 MiB
      PW-descriptor: 15.58 MiB

Total number of cores used: 30
Parallelization over k-points: 2
Domain decomposition: 1 x 3 x 5

Number of atoms: 125
Number of atomic orbitals: 1149
Number of bands in calculation: 781
Number of valence electrons: 1136
Bands to converge: occupied

... initialized

Initializing position-dependent things.

Density initialized from atomic densities
Creating initial wave functions:
  781 bands from LCAO basis set

                                                                  
                                                                  
                                                                  
                                                                  
                                                Co   Ni           
                                    Ni                            
                         Fe    Co          Cr    Co               
                           Ni   Ni   NCo    FCr   CFe   Ni        
                Fe    Cr          Fe                              
           Fe    Fe        CCrAl Co    AlCo   Ni    Fe            
                       ACo  CCr   CCFe   Co    Ni    Al           
       Co    Co    Cr   NNi    Fe    Ni  AlCo                     
              Fe           Co Fe    CoFe   Ni   Co    Fe          
                    CCr  ACr   NCCr   Cr     Cr                   
               Ni    Ni    Cr     Ni FeFe  Co     Al              
           Co   Ni         Co CoFFe Ni Ni    Co   NNi             
                      ACr   Co     Ni Co Fe  AlFe       Cr        
                 Cr         Cr    Al    CoFe Fe    Ni             
             Fe         Cr    Al   CFe   Cr     Ni                
       Fe          Fee       Co            Cr                     
               Ni        Co    Fe    Ni                           
                     Fe    Cr    Ni    Al                         
                                                                  
                                                                  
                                                                  
                                                                  
                                                                  

Positions:
   0 Al    12.618798    1.498581   10.247398    ( 0.0000,  0.0000,  0.0000)
   1 Ni     2.722049    1.487655   10.582856    ( 0.0000,  0.0000,  1.5000)
   2 Fe     5.269265    1.482936    9.936456    ( 0.0000,  0.0000,  2.0000)
   3 Cr     7.723475    1.369830    9.988732    ( 0.0000,  0.0000,  0.0000)
   4 Ni    10.247618    1.201760   10.365609    ( 0.0000,  0.0000,  1.5000)
   5 Cr    13.900626    3.338666   11.002935    ( 0.0000,  0.0000,  0.0000)
   6 Fe     4.172246    3.399826   10.658992    ( 0.0000,  0.0000,  2.0000)
   7 Co     6.252962    3.557668    9.623655    ( 0.0000,  0.0000,  2.1000)
   8 Fe     8.845728    3.478964   10.144921    ( 0.0000,  0.0000,  2.0000)
   9 Ni    11.236918    3.489823   10.025606    ( 0.0000,  0.0000,  1.5000)
  10 Ni    15.153467    5.416940   10.309553    ( 0.0000,  0.0000,  1.5000)
  11 Cr     5.246035    5.672090   10.637504    ( 0.0000,  0.0000,  0.0000)
  12 Co     7.608874    5.458096    9.749334    ( 0.0000,  0.0000,  2.1000)
  13 Cr    10.026641    5.687234   10.186647    ( 0.0000,  0.0000,  0.0000)
  14 Cr    12.422707    5.487566   10.550192    ( 0.0000,  0.0000,  0.0000)
  15 Ni    16.181726    7.659668   10.395821    ( 0.0000,  0.0000,  1.5000)
  16 Co     6.460214    7.835192   10.771286    ( 0.0000,  0.0000,  2.1000)
  17 Al     8.762682    8.056036    9.853022    ( 0.0000,  0.0000,  0.0000)
  18 Co    11.331536    7.769841   10.210765    ( 0.0000,  0.0000,  2.1000)
  19 Fe    13.636036    7.665296   10.402886    ( 0.0000,  0.0000,  2.0000)
  20 Cr    17.620128    9.937454   10.169007    ( 0.0000,  0.0000,  0.0000)
  21 Fe     7.709661   10.021953   10.798474    ( 0.0000,  0.0000,  2.0000)
  22 Co    10.175377    9.902837   10.060752    ( 0.0000,  0.0000,  2.1000)
  23 Al    12.747441   10.191981   10.091993    ( 0.0000,  0.0000,  0.0000)
  24 Ni    15.052448    9.998034   10.341496    ( 0.0000,  0.0000,  1.5000)
  25 Fe    -0.080764   -0.018245   12.547597    ( 0.0000,  0.0000,  2.0000)
  26 Fe     2.424692   -0.055116   12.963969    ( 0.0000,  0.0000,  2.0000)
  27 Fe     4.957459   -0.005278   12.289290    ( 0.0000,  0.0000,  2.0000)
  28 Cr    13.891177   11.030242   12.328463    ( 0.0000,  0.0000,  0.0000)
  29 Fe    16.382813   10.767905   12.403906    ( 0.0000,  0.0000,  2.0000)
  30 Fe    13.725206    2.044638   13.002157    ( 0.0000,  0.0000,  2.0000)
  31 Cr     3.662062    1.884984   12.728117    ( 0.0000,  0.0000,  0.0000)
  32 Cr     6.385354    2.116934   12.064852    ( 0.0000,  0.0000,  0.0000)
  33 Al     8.937544    2.089841   12.435771    ( 0.0000,  0.0000,  0.0000)
  34 Fe    11.190165    2.182183   12.280845    ( 0.0000,  0.0000,  2.0000)
  35 Fe    15.337757    4.411511   12.469411    ( 0.0000,  0.0000,  2.0000)
  36 Al     5.177163    4.097491   12.506729    ( 0.0000,  0.0000,  0.0000)
  37 Cr     7.527576    4.246704   12.119787    ( 0.0000,  0.0000,  0.0000)
  38 Ni    10.015569    4.622265   12.504282    ( 0.0000,  0.0000,  1.5000)
  39 Fe    12.617833    4.352131   12.722249    ( 0.0000,  0.0000,  2.0000)
  40 Ni    16.465137    6.457701   12.550023    ( 0.0000,  0.0000,  1.5000)
  41 Co     6.388503    6.180312   12.785616    ( 0.0000,  0.0000,  2.1000)
  42 Fe     8.731815    6.543291   12.058090    ( 0.0000,  0.0000,  2.0000)
  43 Ni    11.422188    6.677816   12.380038    ( 0.0000,  0.0000,  1.5000)
  44 Co    13.996392    6.386698   12.324703    ( 0.0000,  0.0000,  2.1000)
  45 Al     5.165275    8.272048   12.892954    ( 0.0000,  0.0000,  0.0000)
  46 Ni     7.492798    8.707737   12.724756    ( 0.0000,  0.0000,  1.5000)
  47 Fe     9.881729    8.740179   12.194198    ( 0.0000,  0.0000,  2.0000)
  48 Co    12.541552    8.722371   12.234093    ( 0.0000,  0.0000,  2.1000)
  49 Al    15.164955    8.760450   12.374991    ( 0.0000,  0.0000,  0.0000)
  50 Co     1.224965    0.697145   14.956686    ( 0.0000,  0.0000,  2.1000)
  51 Ni     3.478510    0.869475   15.102902    ( 0.0000,  0.0000,  1.5000)
  52 Cr     6.250439    0.779289   14.435122    ( 0.0000,  0.0000,  0.0000)
  53 Co     8.854495    1.021441   15.003514    ( 0.0000,  0.0000,  2.1000)
  54 Ni    11.364239    0.889788   14.766218    ( 0.0000,  0.0000,  1.5000)
  55 Ni     2.467929    3.239327   14.668387    ( 0.0000,  0.0000,  1.5000)
  56 Ni     5.035948    2.878453   14.803430    ( 0.0000,  0.0000,  1.5000)
  57 Cr     7.369882    2.966522   14.801319    ( 0.0000,  0.0000,  0.0000)
  58 Ni    10.093257    3.199905   14.801998    ( 0.0000,  0.0000,  1.5000)
  59 Fe    12.389654    3.093480   14.789640    ( 0.0000,  0.0000,  2.0000)
  60 Cr     3.810357    5.256143   14.700030    ( 0.0000,  0.0000,  0.0000)
  61 Cr     6.236413    5.085611   14.847852    ( 0.0000,  0.0000,  0.0000)
  62 Co     8.713632    5.157467   14.318590    ( 0.0000,  0.0000,  2.1000)
  63 Cr    11.423406    5.284977   14.719227    ( 0.0000,  0.0000,  0.0000)
  64 Cr    13.961763    5.256097   14.510684    ( 0.0000,  0.0000,  0.0000)
  65 Ni     5.124571    7.415827   14.911540    ( 0.0000,  0.0000,  1.5000)
  66 Fe     7.547365    7.261481   14.514430    ( 0.0000,  0.0000,  2.0000)
  67 Co     9.947956    7.443793   14.423512    ( 0.0000,  0.0000,  2.1000)
  68 Ni    12.677134    7.197167   14.351854    ( 0.0000,  0.0000,  1.5000)
  69 Co    14.930847    7.557269   14.525516    ( 0.0000,  0.0000,  2.1000)
  70 Co     6.245832    9.470950   14.948865    ( 0.0000,  0.0000,  2.1000)
  71 Cr     8.752589    9.569418   14.910432    ( 0.0000,  0.0000,  0.0000)
  72 Al    11.358424    9.300827   14.459031    ( 0.0000,  0.0000,  0.0000)
  73 Cr    13.842160    9.689227   14.660807    ( 0.0000,  0.0000,  0.0000)
  74 Al    16.344765    9.471176   14.793448    ( 0.0000,  0.0000,  0.0000)
  75 Fe    12.353451    1.577842   16.967486    ( 0.0000,  0.0000,  2.0000)
  76 Fe     2.461809    1.582193   17.197608    ( 0.0000,  0.0000,  2.0000)
  77 Cr     5.213779    1.564227   16.702130    ( 0.0000,  0.0000,  0.0000)
  78 Co     7.580238    1.690546   17.007321    ( 0.0000,  0.0000,  2.1000)
  79 Cr    10.112179    1.464612   16.895854    ( 0.0000,  0.0000,  0.0000)
  80 Co    13.796563    3.618411   16.787438    ( 0.0000,  0.0000,  2.1000)
  81 Cr     3.855580    3.804117   16.872411    ( 0.0000,  0.0000,  0.0000)
  82 Ni     6.248219    3.726609   16.744815    ( 0.0000,  0.0000,  1.5000)
  83 Fe     8.763068    3.745734   16.750544    ( 0.0000,  0.0000,  2.0000)
  84 Ni    11.265520    3.651168   16.843737    ( 0.0000,  0.0000,  1.5000)
  85 Ni    14.811101    5.735383   17.136362    ( 0.0000,  0.0000,  1.5000)
  86 Al     5.041280    5.858337   17.077623    ( 0.0000,  0.0000,  0.0000)
  87 Cr     7.595834    5.921673   16.474518    ( 0.0000,  0.0000,  0.0000)
  88 Cr    10.011798    5.831746   16.934708    ( 0.0000,  0.0000,  0.0000)
  89 Co    12.442363    5.707415   16.861334    ( 0.0000,  0.0000,  2.1000)
  90 Fe    16.218935    7.915523   16.907241    ( 0.0000,  0.0000,  2.0000)
  91 Co     6.182421    7.958647   16.891086    ( 0.0000,  0.0000,  2.1000)
  92 Co     8.733365    7.978454   16.868430    ( 0.0000,  0.0000,  2.1000)
  93 Al    11.156452    7.922560   16.947955    ( 0.0000,  0.0000,  0.0000)
  94 Ni    13.844856    8.040279   16.952578    ( 0.0000,  0.0000,  1.5000)
  95 Ni    17.375410    9.979116   17.088245    ( 0.0000,  0.0000,  1.5000)
  96 Ni     7.417815   10.209569   16.897200    ( 0.0000,  0.0000,  1.5000)
  97 Ni     9.828724   10.095143   16.914774    ( 0.0000,  0.0000,  1.5000)
  98 Fe    12.428559   10.134888   16.826313    ( 0.0000,  0.0000,  2.0000)
  99 Co    15.123654   10.041898   17.136585    ( 0.0000,  0.0000,  2.1000)
 100 Co    -0.092852    0.023348   18.882044    ( 0.0000,  0.0000,  2.1000)
 101 Co     2.370891   -0.071418   19.024393    ( 0.0000,  0.0000,  2.1000)
 102 Cr     4.886666    0.000981   18.985423    ( 0.0000,  0.0000,  0.0000)
 103 Co    13.879785   10.913736   18.920134    ( 0.0000,  0.0000,  2.1000)
 104 Ni    16.193634   10.710788   19.461167    ( 0.0000,  0.0000,  1.5000)
 105 Fe     1.147481    1.972313   19.223628    ( 0.0000,  0.0000,  2.0000)
 106 Fe     3.618792    2.096224   19.265351    ( 0.0000,  0.0000,  2.0000)
 107 Co     6.265409    2.301822   18.806755    ( 0.0000,  0.0000,  2.1000)
 108 Al     8.896393    2.307631   19.080489    ( 0.0000,  0.0000,  0.0000)
 109 Fe    11.120891    2.010804   19.051917    ( 0.0000,  0.0000,  2.0000)
 110 Fe     2.378926    4.204037   19.028141    ( 0.0000,  0.0000,  2.0000)
 111 Cr     4.926815    4.396700   19.036946    ( 0.0000,  0.0000,  0.0000)
 112 Cr     7.545679    4.406516   18.688036    ( 0.0000,  0.0000,  0.0000)
 113 Fe     9.967733    4.385171   18.877805    ( 0.0000,  0.0000,  2.0000)
 114 Co    12.575390    4.343897   18.747947    ( 0.0000,  0.0000,  2.1000)
 115 Fe    16.200758    6.486901   19.250840    ( 0.0000,  0.0000,  2.0000)
 116 Ni     6.277611    6.636870   19.060075    ( 0.0000,  0.0000,  1.5000)
 117 Ni     8.619911    6.538062   18.882599    ( 0.0000,  0.0000,  1.5000)
 118 Co    11.131516    6.586014   18.887243    ( 0.0000,  0.0000,  2.1000)
 119 Cr    13.632956    6.657908   19.040421    ( 0.0000,  0.0000,  0.0000)
 120 Fe     5.002093    8.613221   18.975847    ( 0.0000,  0.0000,  2.0000)
 121 Co     7.361261    8.787337   18.881850    ( 0.0000,  0.0000,  2.1000)
 122 Ni     9.705072    8.871613   19.082458    ( 0.0000,  0.0000,  1.5000)
 123 Cr    12.380683    8.590252   19.079646    ( 0.0000,  0.0000,  0.0000)
 124 Co    15.094911    8.539089   18.917482    ( 0.0000,  0.0000,  2.1000)

Unit cell:
           periodic     x           y           z      points  spacing
  1. axis:    yes   12.530300    0.000000    0.000000    56     0.1938
  2. axis:    yes    6.259130   10.841100    0.000000    56     0.1936
  3. axis:    no     0.000000    0.000000   29.353100   128     0.2293

  Lengths:  12.530300  12.518233  29.353100
  Angles:   90.000000  90.000000  59.999929

Effective grid spacing dv^(1/3) = 0.2150

     iter     time        total  log10-change:  magmom
                         energy  eigst   dens
iter:   1 12:23:14 -1178.660292                  +159.1296
iter:   2 12:25:55 -1467.370525  +0.13  -1.11    +87.9108
iter:   3 12:28:36 -3264.492254  +1.27  -0.87    +58.3212
iter:   4 12:31:17 -1012.688101  +0.39  -0.55    +30.5116
iter:   5 12:33:57  -994.793484  +0.02  -1.19    +26.4540
iter:   6 12:36:38  -980.533022  -0.56  -1.21    +25.2263
iter:   7 12:39:19  -963.030990  -1.13  -1.24    +26.0476
iter:   8 12:42:00  -951.707252  -1.19  -1.27    +27.4233
iter:   9 12:44:41 -1352.937686  -0.79  -1.29    +30.8566
iter:  10 12:47:22  -975.947414  -0.97  -0.93    +28.7014
iter:  11 12:50:02  -943.252582  -1.72  -1.26    +27.7451
iter:  12 12:52:43  -944.905457  -1.49  -1.39    +31.0579
iter:  13 12:55:24  -965.806702  -1.36  -1.42    +32.8429
iter:  14 12:58:05  -937.626841  -1.58  -1.33    +35.5758
iter:  15 13:00:45  -927.015467  -1.45  -1.49    +37.0880
iter:  16 13:03:26  -955.579695  -1.77  -1.62    +40.0852
iter:  17 13:06:07 -1009.698471  -1.49  -1.41    +42.7871
iter:  18 13:08:48  -928.924375  -1.86  -1.24    +41.6998
iter:  19 13:11:29  -941.341668  -1.66  -1.64    +44.8535
iter:  20 13:14:10  -926.950560  -2.11  -1.54    +46.4104
iter:  21 13:16:51  -929.124314  -2.72  -1.69    +49.9687
iter:  22 13:19:32  -926.576254  -2.92  -1.66    +54.1532
iter:  23 13:22:13  -937.946218  -2.12  -1.74    +57.4836
iter:  24 13:24:54  -929.940815  -2.34  -1.60    +59.2721
iter:  25 13:27:36  -934.270552  -2.40  -1.72    +61.9394
iter:  26 13:30:17  -930.724884  -2.20  -1.68    +63.4070
iter:  27 13:32:58  -932.592769  -2.27  -1.79    +65.1187
iter:  28 13:35:39  -931.789408  -2.39  -1.78    +66.0771
iter:  29 13:38:20  -929.265481  -2.56  -1.79    +67.5287
iter:  30 13:41:02  -936.420541  -2.15  -1.99    +69.1599
iter:  31 13:43:44  -929.160039  -2.59  -1.76    +69.3103
iter:  32 13:46:25  -930.137673  -2.67  -2.05    +70.7393
iter:  33 13:49:07  -930.500828  -2.86  -2.06    +71.0233
iter:  34 13:51:49  -939.530175  -2.41  -2.04    +71.9060
iter:  35 13:54:31  -929.631971  -2.87  -1.69    +72.0552
iter:  36 13:57:14  -929.976213  -3.09  -2.22    +72.4532
iter:  37 13:59:56  -930.288709  -3.15  -2.26    +72.4311
iter:  38 14:02:38  -930.350126  -3.53  -2.24    +72.5211
iter:  39 14:05:20  -931.229347  -3.32  -2.26    +72.9976
iter:  40 14:08:02  -933.695586  -2.85  -2.19    +73.0223
iter:  41 14:10:44  -930.775018  -3.14  -1.93    +73.1766
iter:  42 14:13:27  -930.919620  -3.40  -2.33    +73.1859
iter:  43 14:16:09  -931.133298  -3.28  -2.37    +73.4424
iter:  44 14:18:51  -931.028317  -3.58  -2.32    +73.6308
iter:  45 14:21:32  -931.071071c -3.78  -2.40    +73.6221
iter:  46 14:24:12  -931.196575  -3.87  -2.41    +73.7810
iter:  47 14:26:52  -931.592255  -3.57  -2.41    +73.8249
iter:  48 14:29:33  -931.251938  -3.65  -2.33    +73.8154
iter:  49 14:32:13  -931.303974  -3.56  -2.50    +73.8540
iter:  50 14:34:54  -931.315218c -3.60  -2.58    +73.7259
iter:  51 14:37:34  -931.308255c -3.73  -2.67    +73.8323
iter:  52 14:40:14  -931.380623c -4.07  -2.78    +73.8660
iter:  53 14:42:55  -931.381063c -4.12  -2.69    +73.8256
iter:  54 14:45:35  -931.330107c -4.36  -2.69    +73.9052
iter:  55 14:48:16  -931.330833c -4.38  -2.89    +73.8356
iter:  56 14:50:56  -931.336288c -4.57  -2.97    +73.8535
iter:  57 14:53:37  -931.350898c -4.31  -3.02    +73.8235
iter:  58 14:56:17  -931.344094c -4.71  -3.03    +73.8182
iter:  59 14:58:57  -931.403924c -4.46  -3.21    +73.7712
iter:  60 15:01:38  -931.382264c -4.60  -2.90    +73.7767
iter:  61 15:04:18  -931.367123c -4.81  -2.94    +73.8315
iter:  62 15:06:58  -931.375206c -4.95  -3.28    +73.7913
iter:  63 15:09:38  -931.382852c -5.01  -3.27    +73.7817
iter:  64 15:12:19  -931.390101c -5.09  -3.29    +73.7591
iter:  65 15:14:59  -931.426429c -4.39  -3.28    +73.7388
iter:  66 15:17:39  -931.441092c -4.67  -3.07    +73.7408
iter:  67 15:20:19  -931.418358c -4.63  -2.85    +73.8482
iter:  68 15:23:00  -931.424072c -4.92  -3.16    +73.8566
iter:  69 15:25:40  -931.425351c -5.21  -3.11    +73.8738
iter:  70 15:28:20  -931.452937c -4.47  -3.16    +73.8815
iter:  71 15:31:01  -931.448838c -5.05  -2.98    +73.8331
iter:  72 15:33:41  -931.457618c -4.57  -3.00    +73.7683
iter:  73 15:36:22  -931.435229c -5.15  -2.91    +73.7763
iter:  74 15:39:02  -931.439758c -5.19  -3.20    +73.6864
iter:  75 15:41:42  -931.441589c -5.10  -3.18    +73.6675
iter:  76 15:44:22  -931.445798c -4.89  -3.23    +73.6337
iter:  77 15:47:03  -931.447448c -4.91  -3.27    +73.6476
iter:  78 15:49:43  -931.447353c -5.00  -3.29    +73.6165
iter:  79 15:52:24  -931.452260c -5.27  -3.42    +73.6100
iter:  80 15:55:04  -931.452470c -5.32  -3.33    +73.6311
iter:  81 15:57:45  -931.457030c -5.36  -3.36    +73.6367
iter:  82 16:00:25  -931.455348c -5.50  -3.35    +73.6200
iter:  83 16:03:06  -931.458168c -5.42  -3.51    +73.6034
iter:  84 16:05:46  -931.461192c -5.49  -3.54    +73.6031
iter:  85 16:08:27  -931.463597c -5.34  -3.46    +73.5884
iter:  86 16:11:07  -931.466176c -5.50  -3.54    +73.5430
iter:  87 16:13:48  -931.469019c -5.36  -3.49    +73.5163
iter:  88 16:16:28  -931.469478c -5.53  -3.38    +73.5088
iter:  89 16:19:09  -931.471939c -5.57  -3.61    +73.4899
iter:  90 16:21:49  -931.476984c -5.35  -3.76    +73.4458
iter:  91 16:24:30  -931.473104c -6.12  -3.61    +73.4638
iter:  92 16:27:10  -931.463557c -4.78  -3.73    +73.4659
iter:  93 16:29:50  -931.473775c -5.01  -3.57    +73.4543
iter:  94 16:32:31  -931.471225c -5.69  -3.60    +73.4758
iter:  95 16:35:11  -931.476353c -5.35  -3.60    +73.4553
iter:  96 16:37:51  -931.474452c -5.92  -3.47    +73.4532
iter:  97 16:40:32  -931.478635c -5.53  -3.89    +73.4025
iter:  98 16:43:12  -931.476268c -6.11  -3.75    +73.4172
iter:  99 16:45:53  -931.479136c -5.85  -3.98    +73.3911
iter: 100 16:48:34  -931.484802c -5.63  -3.79    +73.3897
iter: 101 16:51:14  -931.483885c -5.64  -3.48    +73.3725
iter: 102 16:53:55  -931.487697c -5.58  -3.93    +73.3508
iter: 103 16:56:35  -931.495191c -5.13  -3.99    +73.2871
iter: 104 16:59:15  -931.493393c -5.87  -3.84    +73.3161
iter: 105 17:01:56  -931.500871c -5.18  -3.60    +73.2453
iter: 106 17:04:36  -931.501048c -6.02  -3.67    +73.2466
iter: 107 17:07:17  -931.504889c -5.38  -3.62    +73.2116
iter: 108 17:09:57  -931.507134c -5.51  -3.63    +73.1858
iter: 109 17:12:38  -931.515009c -5.11  -3.71    +73.0921
iter: 110 17:15:19  -931.512890c -5.40  -3.45    +73.1068
iter: 111 17:18:02  -931.517304c -5.42  -3.61    +73.0382
iter: 112 17:20:44  -931.518562c -5.55  -3.46    +72.9991
iter: 113 17:23:26  -931.521330c -5.63  -3.64    +72.9694
iter: 114 17:26:08  -931.531775c -5.17  -3.61    +72.9141
iter: 115 17:28:50  -931.525676c -5.40  -3.29    +72.8968
iter: 116 17:31:32  -931.527044c -5.46  -3.55    +72.8539
iter: 117 17:34:15  -931.543859c -5.00  -3.65    +72.8192
iter: 118 17:36:57  -931.531780c -5.29  -3.09    +72.8045
iter: 119 17:39:39  -931.536177c -5.21  -3.40    +72.7405
iter: 120 17:42:21  -931.533019c -5.43  -3.24    +72.7361
iter: 121 17:45:03  -931.533696c -5.47  -3.53    +72.6919
iter: 122 17:47:46  -931.537040c -4.90  -3.42    +72.6709
iter: 123 17:50:28  -931.538454c -5.29  -3.42    +72.6664
iter: 124 17:53:10  -931.535087c -5.32  -3.36    +72.6707
iter: 125 17:55:52  -931.534285c -5.82  -3.48    +72.6618
iter: 126 17:58:34  -931.540402c -5.49  -3.75    +72.6342
iter: 127 18:01:17  -931.535119c -5.93  -3.26    +72.6341
iter: 128 18:03:59  -931.535141c -5.66  -3.66    +72.6322
iter: 129 18:06:41  -931.535391c -6.08  -3.79    +72.6261
iter: 130 18:09:23  -931.537470c -5.86  -3.86    +72.6226
iter: 131 18:12:06  -931.536004c -6.10  -3.61    +72.6213
iter: 132 18:14:48  -931.537080c -6.13  -3.71    +72.6194
iter: 133 18:17:30  -931.535954c -6.43  -3.73    +72.6132
iter: 134 18:20:12  -931.536713c -6.36  -3.94    +72.6093
iter: 135 18:22:55  -931.536357c -6.17  -4.02c   +72.6054
iter: 136 18:25:37  -931.536792c -6.29  -3.93    +72.5966
iter: 137 18:28:19  -931.540778c -5.82  -3.98    +72.5877
iter: 138 18:31:01  -931.537427c -5.97  -3.46    +72.5861
iter: 139 18:33:43  -931.537460c -6.32  -3.72    +72.5929
iter: 140 18:36:25  -931.537121c -6.83  -4.06c   +72.5861
iter: 141 18:39:08  -931.537528c -6.78  -4.24c   +72.5760
iter: 142 18:41:50  -931.537744c -6.91  -4.18c   +72.5724
iter: 143 18:44:32  -931.537613c -6.73  -4.12c   +72.5612
iter: 144 18:47:15  -931.538132c -6.56  -4.30c   +72.5597
iter: 145 18:49:57  -931.537861c -6.78  -3.82    +72.5582
iter: 146 18:52:39  -931.537824c -6.78  -4.21c   +72.5553
iter: 147 18:55:21  -931.537956c -7.02  -4.28c   +72.5483
iter: 148 18:58:04  -931.538191c -7.20  -4.28c   +72.5429
iter: 149 19:00:46  -931.538090c -7.18  -4.24c   +72.5378
iter: 150 19:03:28  -931.539270c -6.29  -4.30c   +72.5355
iter: 151 19:06:10  -931.538289c -6.49  -3.63    +72.5349
iter: 152 19:08:52  -931.538329c -7.08  -4.23c   +72.5269
iter: 153 19:11:35  -931.538572c -6.97  -4.28c   +72.5232
iter: 154 19:14:17  -931.538289c -7.19  -4.21c   +72.5205
iter: 155 19:16:59  -931.538556c -7.18  -4.48c   +72.5165
iter: 156 19:19:42  -931.538442c -7.12  -4.40c   +72.5127
iter: 157 19:22:24  -931.538583c -7.39  -4.63c   +72.5091
iter: 158 19:25:06  -931.538549c -7.58c -4.36c   +72.5068

Converged after 158 iterations.

Dipole moment: (40.852972, 35.264936, -0.108189) |e|*Ang

Total magnetic moment: (0.000000, 0.000000, 72.506759)
Local magnetic moments:
   0 Al ( 0.000000,  0.000000, -0.008695)
   1 Ni ( 0.000000,  0.000000,  0.051899)
   2 Fe ( 0.000000,  0.000000,  2.326692)
   3 Cr ( 0.000000,  0.000000, -2.486240)
   4 Ni ( 0.000000,  0.000000,  0.256990)
   5 Cr ( 0.000000,  0.000000, -1.830657)
   6 Fe ( 0.000000,  0.000000,  1.986086)
   7 Co ( 0.000000,  0.000000,  1.559599)
   8 Fe ( 0.000000,  0.000000,  2.389266)
   9 Ni ( 0.000000,  0.000000,  0.022560)
  10 Ni ( 0.000000,  0.000000,  0.218222)
  11 Cr ( 0.000000,  0.000000, -2.553951)
  12 Co ( 0.000000,  0.000000,  1.413122)
  13 Cr ( 0.000000,  0.000000, -2.399371)
  14 Cr ( 0.000000,  0.000000, -2.263674)
  15 Ni ( 0.000000,  0.000000,  0.245184)
  16 Co ( 0.000000,  0.000000,  1.304595)
  17 Al ( 0.000000,  0.000000, -0.048953)
  18 Co ( 0.000000,  0.000000,  1.272950)
  19 Fe ( 0.000000,  0.000000,  2.636154)
  20 Cr ( 0.000000,  0.000000, -3.101916)
  21 Fe ( 0.000000,  0.000000,  2.482482)
  22 Co ( 0.000000,  0.000000,  1.518639)
  23 Al ( 0.000000,  0.000000, -0.025168)
  24 Ni ( 0.000000,  0.000000,  0.120071)
  25 Fe ( 0.000000,  0.000000,  2.422352)
  26 Fe ( 0.000000,  0.000000,  1.860354)
  27 Fe ( 0.000000,  0.000000,  2.250450)
  28 Cr ( 0.000000,  0.000000, -0.681260)
  29 Fe ( 0.000000,  0.000000,  1.997592)
  30 Fe ( 0.000000,  0.000000,  2.162685)
  31 Cr ( 0.000000,  0.000000, -1.870643)
  32 Cr ( 0.000000,  0.000000,  1.068397)
  33 Al ( 0.000000,  0.000000, -0.028878)
  34 Fe ( 0.000000,  0.000000,  2.522466)
  35 Fe ( 0.000000,  0.000000,  1.915786)
  36 Al ( 0.000000,  0.000000, -0.008977)
  37 Cr ( 0.000000,  0.000000, -1.689488)
  38 Ni ( 0.000000,  0.000000,  0.300780)
  39 Fe ( 0.000000,  0.000000,  1.955226)
  40 Ni ( 0.000000,  0.000000,  0.067933)
  41 Co ( 0.000000,  0.000000,  0.462109)
  42 Fe ( 0.000000,  0.000000,  2.443399)
  43 Ni ( 0.000000,  0.000000,  0.314543)
  44 Co ( 0.000000,  0.000000,  1.273117)
  45 Al ( 0.000000,  0.000000, -0.019571)
  46 Ni ( 0.000000,  0.000000,  0.506343)
  47 Fe ( 0.000000,  0.000000,  2.574456)
  48 Co ( 0.000000,  0.000000,  1.324709)
  49 Al ( 0.000000,  0.000000, -0.020752)
  50 Co ( 0.000000,  0.000000,  1.345324)
  51 Ni ( 0.000000,  0.000000,  0.175065)
  52 Cr ( 0.000000,  0.000000,  1.686904)
  53 Co ( 0.000000,  0.000000,  0.911233)
  54 Ni ( 0.000000,  0.000000,  0.447881)
  55 Ni ( 0.000000,  0.000000,  0.238034)
  56 Ni ( 0.000000,  0.000000,  0.000581)
  57 Cr ( 0.000000,  0.000000, -1.550685)
  58 Ni ( 0.000000,  0.000000,  0.403820)
  59 Fe ( 0.000000,  0.000000,  2.330276)
  60 Cr ( 0.000000,  0.000000, -1.952339)
  61 Cr ( 0.000000,  0.000000,  1.386700)
  62 Co ( 0.000000,  0.000000,  1.303481)
  63 Cr ( 0.000000,  0.000000, -1.703781)
  64 Cr ( 0.000000,  0.000000,  0.999835)
  65 Ni ( 0.000000,  0.000000,  0.179013)
  66 Fe ( 0.000000,  0.000000,  2.243452)
  67 Co ( 0.000000,  0.000000,  0.853181)
  68 Ni ( 0.000000,  0.000000,  0.153473)
  69 Co ( 0.000000,  0.000000,  0.260068)
  70 Co ( 0.000000,  0.000000,  1.299922)
  71 Cr ( 0.000000,  0.000000, -1.690051)
  72 Al ( 0.000000,  0.000000, -0.026149)
  73 Cr ( 0.000000,  0.000000, -1.748435)
  74 Al ( 0.000000,  0.000000, -0.019100)
  75 Fe ( 0.000000,  0.000000,  2.320463)
  76 Fe ( 0.000000,  0.000000,  2.601397)
  77 Cr ( 0.000000,  0.000000, -1.693807)
  78 Co ( 0.000000,  0.000000,  1.101582)
  79 Cr ( 0.000000,  0.000000, -1.970510)
  80 Co ( 0.000000,  0.000000,  1.495909)
  81 Cr ( 0.000000,  0.000000,  1.965920)
  82 Ni ( 0.000000,  0.000000,  0.041222)
  83 Fe ( 0.000000,  0.000000,  1.924128)
  84 Ni ( 0.000000,  0.000000,  0.445301)
  85 Ni ( 0.000000,  0.000000,  0.380310)
  86 Al ( 0.000000,  0.000000, -0.012631)
  87 Cr ( 0.000000,  0.000000, -1.399491)
  88 Cr ( 0.000000,  0.000000,  0.716260)
  89 Co ( 0.000000,  0.000000,  1.174920)
  90 Fe ( 0.000000,  0.000000,  2.409071)
  91 Co ( 0.000000,  0.000000,  1.333159)
  92 Co ( 0.000000,  0.000000,  1.030713)
  93 Al ( 0.000000,  0.000000, -0.045135)
  94 Ni ( 0.000000,  0.000000,  0.459460)
  95 Ni ( 0.000000,  0.000000,  0.550177)
  96 Ni ( 0.000000,  0.000000,  0.482437)
  97 Ni ( 0.000000,  0.000000,  0.225109)
  98 Fe ( 0.000000,  0.000000,  2.339443)
  99 Co ( 0.000000,  0.000000,  1.471557)
 100 Co ( 0.000000,  0.000000,  1.595031)
 101 Co ( 0.000000,  0.000000,  1.505814)
 102 Cr ( 0.000000,  0.000000, -2.899161)
 103 Co ( 0.000000,  0.000000,  1.645523)
 104 Ni ( 0.000000,  0.000000,  0.621642)
 105 Fe ( 0.000000,  0.000000,  2.726002)
 106 Fe ( 0.000000,  0.000000,  2.661874)
 107 Co ( 0.000000,  0.000000,  0.880778)
 108 Al ( 0.000000,  0.000000, -0.040134)
 109 Fe ( 0.000000,  0.000000,  2.260825)
 110 Fe ( 0.000000,  0.000000,  2.613547)
 111 Cr ( 0.000000,  0.000000, -2.588576)
 112 Cr ( 0.000000,  0.000000, -2.153846)
 113 Fe ( 0.000000,  0.000000,  2.241231)
 114 Co ( 0.000000,  0.000000,  1.635388)
 115 Fe ( 0.000000,  0.000000,  2.629703)
 116 Ni ( 0.000000,  0.000000,  0.169962)
 117 Ni ( 0.000000,  0.000000,  0.125739)
 118 Co ( 0.000000,  0.000000,  0.847023)
 119 Cr ( 0.000000,  0.000000, -2.537034)
 120 Fe ( 0.000000,  0.000000,  2.622848)
 121 Co ( 0.000000,  0.000000,  1.628888)
 122 Ni ( 0.000000,  0.000000,  0.403492)
 123 Cr ( 0.000000,  0.000000,  2.453926)
 124 Co ( 0.000000,  0.000000,  1.426992)

Energy contributions relative to reference atoms: (reference = -4103091.665053)

Kinetic:       +398.372768
Potential:     -394.311757
External:        +0.000000
XC:            -972.731551
Entropy (-ST):   -5.136011
Local:          +39.699997
--------------------------
Free energy:   -934.106555
Extrapolated:  -931.538549

Dipole-layer corrected work functions: 4.785234, 4.929348 eV

Spin contamination: 51.059366 electrons
Showing all kpts
                      Up                     Down
 Kpt  Band  Eigenvalues  Occupancy  Eigenvalues  Occupancy
  0   566     -0.03697    0.99781      0.90546    0.03541
  0   567     -0.02726    0.99758      0.91128    0.03347
  0   568     -0.02202    0.99745      0.92405    0.02958
  0   569      0.00148    0.99678      0.93396    0.02686

  1   566     -0.03252    0.99771      0.91235    0.03313
  1   567     -0.02312    0.99748      0.92367    0.02969
  1   568     -0.01091    0.99715      0.92719    0.02869
  1   569     -0.00292    0.99692      0.94642    0.02379


Fermi level: 0.57499

No gap

Forces in eV/Ang:
  0 Al    0.24236   -1.55405   -0.43243
  1 Ni   -0.28667   -1.46865    0.08911
  2 Fe   -0.83936   -0.89344    0.32089
  3 Cr    0.67646    1.41191   -0.01536
  4 Ni   -0.92687    0.49983   -0.60788
  5 Cr    0.84215    1.42855   -0.07447
  6 Fe   -1.39730   -0.21509   -1.20619
  7 Co    0.82864    0.08655    0.91823
  8 Fe   -0.38696    0.11753    0.45635
  9 Ni    0.26104   -0.04256    1.07411
 10 Ni   -0.20794    0.38434    0.48109
 11 Cr    0.07001    0.58046   -1.26887
 12 Co    0.25624    0.92604    1.01700
 13 Cr   -0.69482    0.34535    0.13386
 14 Cr    1.40170   -0.10982   -0.11984
 15 Ni    0.47074    0.55504    0.33501
 16 Co   -0.06847   -0.30297   -0.50717
 17 Al   -0.32203   -1.29375   -0.31081
 18 Co   -0.64649    0.60122    0.22608
 19 Fe    0.80445    0.29577   -0.60628
 20 Cr    0.19941   -0.98988    0.89220
 21 Fe    0.00669    0.89984   -0.73893
 22 Co    0.50524    1.08416    1.04092
 23 Al   -1.70423   -2.05864   -0.15383
 24 Ni    0.55875   -0.26576   -0.14076
 25 Fe    0.38917   -0.22042    0.65331
 26 Fe    0.33759    0.16344   -0.71763
 27 Fe    0.01220   -0.07568   -0.57259
 28 Cr   -1.58371   -1.32882    0.49808
 29 Fe    0.06435    0.46156    0.60480
 30 Fe   -0.32519    0.27715   -1.02688
 31 Cr    0.83550    1.14870    0.31311
 32 Cr    0.71995   -0.86804   -0.04791
 33 Al   -0.50213    1.96131    1.11913
 34 Fe    2.20609    0.86298    1.02528
 35 Fe   -1.40732   -0.86730    0.69613
 36 Al   -0.39714    0.87146    3.21410
 37 Cr    1.18818    0.24016   -0.75747
 38 Ni    1.11975   -1.71083   -0.55067
 39 Fe   -0.35728    0.28029   -0.40405
 40 Ni   -0.77627   -0.15760   -0.01661
 41 Co    0.48780    0.50433   -0.35147
 42 Fe   -0.38749    0.29778    0.31702
 43 Ni   -0.93120   -0.75503    0.35319
 44 Co   -0.27337    0.41826    0.63734
 45 Al    0.86569    2.28388   -1.80763
 46 Ni    0.19508   -0.29428    0.30659
 47 Fe    0.66330   -0.02076    0.24775
 48 Co    0.55646    0.52451    0.53312
 49 Al   -1.25638   -1.70448    0.11851
 50 Co   -1.20111    1.17417   -0.04234
 51 Ni    2.01383    0.40684   -0.84242
 52 Cr    0.12916    0.04599    0.27266
 53 Co   -0.55066   -0.99173   -0.87814
 54 Ni   -0.73865   -0.12227   -0.69487
 55 Ni    0.45218   -1.76440    0.40724
 56 Ni   -1.32957    0.54082   -0.98757
 57 Cr    1.36390   -0.41973   -1.31465
 58 Ni   -0.91737   -0.81026   -1.24838
 59 Fe    1.37678   -0.47539   -0.19463
 60 Cr   -0.31765    0.30923    0.48169
 61 Cr   -0.39275    0.24852   -0.85255
 62 Co   -0.36595    0.24305    0.48128
 63 Cr   -1.24667   -0.15255   -0.05945
 64 Cr    0.15576    0.35453    1.04082
 65 Ni   -1.24334   -2.26806    0.40685
 66 Fe    0.51216    0.61501    1.31779
 67 Co   -0.24951   -1.09682    0.10725
 68 Ni   -0.80273    1.54029    0.50944
 69 Co    1.24920   -0.98830    0.41973
 70 Co    0.84173    0.58232   -0.47568
 71 Cr   -0.65016   -1.44072   -0.43034
 72 Al   -0.49887    0.77018   -0.09580
 73 Cr   -0.13014   -0.00571    0.41963
 74 Al    0.16411    1.38450    0.56298
 75 Fe    1.42028   -0.99639   -0.18528
 76 Fe    0.12668   -0.13215   -0.34961
 77 Cr   -0.89072   -1.07109    0.90903
 78 Co    0.12510   -1.30259   -0.77756
 79 Cr   -0.45542   -0.35806   -0.15333
 80 Co   -0.54383   -0.31927    0.12103
 81 Cr   -0.97874   -1.30448   -0.12632
 82 Ni    0.38106   -0.06470    1.13164
 83 Fe    0.09933   -0.04219   -0.20983
 84 Ni   -0.38197    0.50230    0.33665
 85 Ni    1.21392    0.75275   -0.86159
 86 Al    0.12028    1.19709   -0.42815
 87 Cr    0.31801   -0.04103    0.56603
 88 Cr   -0.86916   -0.84964   -0.53166
 89 Co    0.49556    1.02155   -0.58745
 90 Fe   -0.37437   -0.70546   -0.36855
 91 Co    1.22457    0.64800    0.44115
 92 Co   -0.77981   -0.02139   -0.23144
 93 Al    0.74743    1.12551   -1.13829
 94 Ni   -1.31031   -0.61607   -1.01225
 95 Ni    1.31011    1.41662   -0.86859
 96 Ni   -0.32432   -0.19219    0.64420
 97 Ni    1.48227    0.68467    0.44916
 98 Fe    0.72946    0.75337    0.02142
 99 Co   -1.41687    1.42345   -0.89846
100 Co   -0.24893   -0.29444    0.42353
101 Co   -0.55289    1.38402   -0.20074
102 Cr    0.58832    0.22585   -0.08224
103 Co   -0.82630   -0.12958   -0.33624
104 Ni    0.24747    0.23406   -1.14604
105 Fe   -0.50491    1.16220   -0.11826
106 Fe    1.00496    0.10644   -0.42909
107 Co   -0.42985   -0.51808    0.34130
108 Al   -2.30884   -1.33506    0.78471
109 Fe    1.82112    0.65688   -0.14824
110 Fe   -0.03684    0.16873   -0.20463
111 Cr   -0.40015   -0.92211    0.55056
112 Cr   -0.07163    0.54367    0.37972
113 Fe    0.67979    0.79521    0.01041
114 Co   -0.59107   -0.29465    0.66553
115 Fe    0.23742   -0.18973   -0.44488
116 Ni   -0.34739   -0.99978   -0.35242
117 Ni    0.73621    0.29328   -0.22903
118 Co   -0.50670   -0.83254    0.35716
119 Cr   -0.13094   -0.75862   -0.09401
120 Fe   -0.56447    0.30025    0.62228
121 Co    0.25844   -0.55549   -0.16222
122 Ni    1.39739   -2.33617   -0.48159
123 Cr    0.61801    1.05411    0.18274
124 Co   -0.25262    0.73794    0.68535

Timing:                              incl.     excl.
-----------------------------------------------------------
Forces:                             43.989    43.989   0.2% |
Hamiltonian:                         1.648     0.011   0.0% |
 Atomic:                             0.383     0.001   0.0% |
  XC Correction:                     0.382     0.382   0.0% |
 Calculate atomic Hamiltonians:      0.649     0.649   0.0% |
 Communicate:                        0.127     0.127   0.0% |
 Initialize Hamiltonian:             0.000     0.000   0.0% |
 Poisson:                            0.091     0.091   0.0% |
 XC 3D grid:                         0.387     0.387   0.0% |
LCAO initialization:               297.217     0.581   0.0% |
 LCAO eigensolver:                  15.035     0.010   0.0% |
  Calculate projections:             0.000     0.000   0.0% |
  DenseAtomicCorrection:             0.000     0.000   0.0% |
  Distribute overlap matrix:         9.542     9.542   0.0% |
  Orbital Layouts:                   5.444     5.444   0.0% |
  Potential matrix:                  0.005     0.005   0.0% |
  Sum over cells:                    0.034     0.034   0.0% |
 LCAO to grid:                     279.217   279.217   1.1% |
 Set positions (LCAO WFS):           2.384     2.084   0.0% |
  Basic WFS set positions:           0.004     0.004   0.0% |
  Basis functions set positions:     0.001     0.001   0.0% |
  P tci:                             0.000     0.000   0.0% |
  ST tci:                            0.114     0.114   0.0% |
  mktci:                             0.181     0.181   0.0% |
PWDescriptor:                        0.126     0.126   0.0% |
SCF-cycle:                       25490.058     1.656   0.0% |
 Davidson:                       24734.508  8183.220  31.7% |------------|
  Apply H:                         473.192   465.744   1.8% ||
   HMM T:                            7.448     7.448   0.0% |
  Subspace diag:                  2669.402     0.065   0.0% |
   calc_h_matrix:                 1110.302   690.203   2.7% ||
    Apply H:                       420.099   412.494   1.6% ||
     HMM T:                          7.605     7.605   0.0% |
   diagonalize:                    226.468   226.468   0.9% |
   rotate_psi:                    1332.568  1332.568   5.2% |-|
  calc. matrices:                 6236.445  5480.601  21.2% |-------|
   Apply H:                        755.844   742.032   2.9% ||
    HMM T:                          13.811    13.811   0.1% |
  diagonalize:                    4347.289  4347.289  16.8% |------|
  rotate_psi:                     2824.960  2824.960  10.9% |---|
 Density:                          417.784     0.005   0.0% |
  Atomic density matrices:           4.084     4.084   0.0% |
  Mix:                             190.017   190.017   0.7% |
  Multipole moments:                 0.127     0.127   0.0% |
  Pseudo density:                  223.550   223.543   0.9% |
   Symmetrize density:               0.007     0.007   0.0% |
 Hamiltonian:                      316.023     1.965   0.0% |
  Atomic:                           62.122     0.213   0.0% |
   XC Correction:                   61.908    61.908   0.2% |
  Calculate atomic Hamiltonians:   164.410   164.410   0.6% |
  Communicate:                      20.820    20.820   0.1% |
  Poisson:                           6.213     6.213   0.0% |
  XC 3D grid:                       60.493    60.493   0.2% |
 Orthonormalize:                    20.088     0.001   0.0% |
  calc_s_matrix:                     2.397     2.397   0.0% |
  inverse-cholesky:                  0.890     0.890   0.0% |
  projections:                      12.636    12.636   0.0% |
  rotate_psi_s:                      4.164     4.164   0.0% |
Set symmetry:                        0.001     0.001   0.0% |
Other:                               8.011     8.011   0.0% |
-----------------------------------------------------------
Total:                                     25841.050 100.0%

Date: Mon Apr 17 19:25:55 2023
