
  ___ ___ ___ _ _ _  
 |   |   |_  | | | | 
 | | | | | . | | | | 
 |__ |  _|___|_____|  22.8.0
 |___|_|             

User:   c.zeng@d0128
Date:   Tue Apr 18 00:05:59 2023
Arch:   x86_64
Pid:    182581
CWD:    /home/c.zeng/projects/hea-corrosion/hea-mlp/data-curation/surface-md/dft-jobs/93
Python: 3.8.1
gpaw:   /home/c.zeng/usr/installs/gpaw/source/gpaw-22.8.0/gpaw
_gpaw:  /home/c.zeng/usr/installs/gpaw/source/gpaw-22.8.0/
        _gpaw.cpython-38-x86_64-linux-gnu.so
ase:    /home/c.zeng/.local/lib/python3.8/site-packages/ase-3.22.1-py3.8.egg/ase (version 3.22.1)
numpy:  /home/c.zeng/.local/lib/python3.8/site-packages/numpy (version 1.24.2)
scipy:  /home/c.zeng/.local/lib/python3.8/site-packages/scipy (version 1.10.1)
libxc:  4.2.3
units:  Angstrom and eV
cores: 30
OpenMP: False
OMP_NUM_THREADS: 1

Input parameters:
  convergence: {energy: 0.0001}
  kpts: [2 2 1]
  maxiter: 666
  mode: {ecut: 350.0,
         name: pw}
  occupations: {fixmagmom: False,
                name: fermi-dirac,
                width: 0.1}
  poissonsolver: {dipolelayer: xy}
  spinpol: True
  symmetry: {point_group: False}
  xc: PBE

System changes: positions, numbers, cell, pbc, initial_charges, initial_magmoms 

Initialize ...

species:
  Co:
    name: Cobalt
    id: 339d20d5b0b93d2de9531a1bee871d91
    Z: 27.0
    valence: 9
    core: 18
    charge: 0.0
    file: /home/c.zeng/usr/data/gpaw-setups-0.9.20000/Co.PBE.gz
    compensation charges: {type: gauss,
                           rc: 0.32,
                           lmax: 2}
    cutoffs: {filter: 1.87,
              core: 2.55}
    valence states:
      #              energy  rcut
      - 4s(2.00)    -5.469   1.005
      - 4p(0.00)    -1.277   1.058
      - 3d(7.00)    -8.205   1.005
      -  s          21.742   1.005
      -  p          25.934   1.058
      -  d          19.007   1.005
  
    # Using partial waves for Co as LCAO basis

  Fe:
    name: Iron
    id: 37abbd8d6c3c35915a9b583b742da910
    Z: 26.0
    valence: 8
    core: 18
    charge: 0.0
    file: /home/c.zeng/usr/data/gpaw-setups-0.9.20000/Fe.PBE.gz
    compensation charges: {type: gauss,
                           rc: 0.33,
                           lmax: 2}
    cutoffs: {filter: 2.06,
              core: 2.67}
    valence states:
      #              energy  rcut
      - 4s(2.00)    -5.291   1.164
      - 4p(0.00)    -1.326   1.058
      - 3d(6.00)    -7.505   1.058
      -  s          21.920   1.164
      -  p          25.885   1.058
      -  d          19.706   1.058
  
    # Using partial waves for Fe as LCAO basis

  Al:
    name: Aluminium
    id: 0292cae29f5d6237e50f6abdd43a7bdd
    Z: 13.0
    valence: 3
    core: 10
    charge: 0.0
    file: /home/c.zeng/usr/data/gpaw-setups-0.9.20000/Al.PBE.gz
    compensation charges: {type: gauss,
                           rc: 0.34,
                           lmax: 2}
    cutoffs: {filter: 1.91,
              core: 2.36}
    valence states:
      #              energy  rcut
      - 3s(2.00)    -7.753   1.085
      - 3p(1.00)    -2.712   1.085
      -  s          19.459   1.085
      -  p          24.499   1.085
      -  d           0.000   1.085
  
    # Using partial waves for Al as LCAO basis

  Cr:
    name: Chromium
    id: 33f258bda2ca9f93018e70263a35547b
    Z: 24.0
    valence: 6
    core: 18
    charge: 0.0
    file: /home/c.zeng/usr/data/gpaw-setups-0.9.20000/Cr.PBE.gz
    compensation charges: {type: gauss,
                           rc: 0.35,
                           lmax: 2}
    cutoffs: {filter: 2.14,
              core: 3.04}
    valence states:
      #              energy  rcut
      - 4s(1.00)    -4.007   1.164
      - 4p(0.00)    -0.989   1.217
      - 3d(5.00)    -2.913   1.111
      -  s          23.205   1.164
      -  p          26.223   1.217
      -  d          24.299   1.111
  
    # Using partial waves for Cr as LCAO basis

  Ni:
    name: Nickel
    id: 0d9f38a9d6e76a2886f07bb4381f212b
    Z: 28.0
    valence: 16
    core: 12
    charge: 0.0
    file: /home/c.zeng/usr/data/gpaw-setups-0.9.20000/Ni.PBE.gz
    compensation charges: {type: gauss,
                           rc: 0.36,
                           lmax: 2}
    cutoffs: {filter: 2.14,
              core: 1.98}
    valence states:
      #              energy  rcut
      - 4s(2.00)    -5.642   1.164
      - 3p(6.00)   -71.394   1.207
      - 4p(0.00)    -1.226   1.207
      - 3d(8.00)    -8.875   1.138
      -  s          21.570   1.164
      -  d          18.337   1.138
  
    # Using partial waves for Ni as LCAO basis

Reference energy: -3726899.091688  # eV

Spin-polarized calculation.
Magnetic moment: 140.000000

Convergence criteria:
 Maximum [total energy] change in last 3 cyles: 0.0001 eV / electron
 Maximum integral of absolute [dens]ity change: 0.0001 electrons / valence electron
 Maximum integral of absolute [eigenst]ate change: 4e-08 eV^2 / valence electron
 Maximum number of scf [iter]ations: 666
 (Square brackets indicate name in SCF output, whereas a 'c' in
 the SCF output indicates the quantity has converged.)

Symmetries present (total): 1

  ( 1  0  0)
  ( 0  1  0)
  ( 0  0  1)

4 k-points: 2 x 2 x 1 Monkhorst-Pack grid
2 k-points in the irreducible part of the Brillouin zone
       k-points in crystal coordinates                weights
   0:     0.25000000   -0.25000000    0.00000000          2/4
   1:     0.25000000    0.25000000    0.00000000          2/4

Wave functions: Plane wave expansion
  Cutoff energy: 350.000 eV
  Number of coefficients (min, max): 60935, 60955
  Pulay-stress correction: 0.000000 eV/Ang^3 (de/decut=0.000000)
  Using FFTW library
  ScaLapack parameters: grid=1x1, blocksize=None
  Wavefunction extrapolation:
    Improved wavefunction reuse through dual PAW basis 

Occupation numbers: Fermi-Dirac:
  width: 0.1000  # eV
 

Eigensolver
   Davidson(niter=2) 

Densities:
  Coarse grid: 56*56*128 grid
  Fine grid: 112*112*256 grid
  Total Charge: 0.000000 

Density mixing:
  Method: difference
  Backend: pulay
  Linear mixing parameter: 0.05
  old densities: 5
  Damping of long wavelength oscillations: 50 

Hamiltonian:
  XC and Coulomb potentials evaluated on a 112*112*256 grid
  Using the PBE Exchange-Correlation functional
  External potential:
    NoExternalPotential
 

XC parameters: PBE with 2 nearest neighbor stencil

Memory estimate:
  Process memory now: 379.77 MiB
  Calculator: 2131.41 MiB
    Density: 19.02 MiB
      Arrays: 7.39 MiB
      Localized functions: 8.68 MiB
      Mixer: 2.95 MiB
    Hamiltonian: 5.75 MiB
      Arrays: 5.49 MiB
      XC: 0.00 MiB
      Poisson: 0.00 MiB
      vbar: 0.26 MiB
    Wavefunctions: 2106.64 MiB
      Arrays psit_nG: 1335.62 MiB
      Eigensolver: 751.15 MiB
      Projections: 3.10 MiB
      Projectors: 1.18 MiB
      PW-descriptor: 15.59 MiB

Total number of cores used: 30
Parallelization over k-points: 2
Domain decomposition: 1 x 3 x 5

Number of atoms: 125
Number of atomic orbitals: 1075
Number of bands in calculation: 718
Number of valence electrons: 1050
Bands to converge: occupied

... initialized

Initializing position-dependent things.

Density initialized from atomic densities
Creating initial wave functions:
  718 bands from LCAO basis set

                                                                     
                                                                     
                                                                     
                                                                     
                                                                     
                     Fe                                              
                                                Al                   
                                  Cr     Cr                          
                        Ni    Fe  Al     Ni    Crl                   
                                    Ni     Fe     Cr    Al           
                      Al    Ni Fe   Al Fe     Cr    Co               
                          CCr   Ni   Ni  Ni  Ni Ni                   
                Cr   Ni         Crl   Ale   AlCo                     
                 Fe  CrAl   Fe     Ni    Co    Fe                    
                       Fe   Cr    NiFe     Al                        
                 CFe          Co   Cr   CAl      Al                  
              Co   Ni  FeCo  Fe      Fe    Al             Al         
                               Co      Cr                            
                  CrCr  CCo NCr Co Ni      NiFe  Ni                  
                   Fe    Ni   NFe   Ni Cr    CrAl     Ni             
         Co     Ni    Co        Co Col    Cr    Al                   
               Al    Fe Fe   ACoCo    CAl   Fe                       
          Cr     Co    Ni  Co    Co                                  
           Cr    FAl         Co   Co                                 
                 Al      Fe   Co                                     
            Fe                                                       
                   Co           Fe   Al                              
                                                                     
                                                                     
                                                                     
                                                                     
                                                                     
                                                                     

Positions:
   0 Co    10.248705    0.081625   10.553209    ( 0.0000,  0.0000,  2.1000)
   1 Fe     2.898839    0.750685   10.042227    ( 0.0000,  0.0000,  2.0000)
   2 Co     5.422446    0.687977    9.416199    ( 0.0000,  0.0000,  2.1000)
   3 Fe     7.939905    0.214388   11.030178    ( 0.0000,  0.0000,  2.0000)
   4 Co    10.550652   -0.777547   13.494794    ( 0.0000,  0.0000,  2.1000)
   5 Fe    10.356769    2.014384    8.657132    ( 0.0000,  0.0000,  2.0000)
   6 Co     4.365986    2.196668   11.841038    ( 0.0000,  0.0000,  2.1000)
   7 Al     4.144736    3.050586    9.619332    ( 0.0000,  0.0000,  0.0000)
   8 Co     9.024652    2.814070   10.459461    ( 0.0000,  0.0000,  2.1000)
   9 Co    11.405523    2.434956   10.862207    ( 0.0000,  0.0000,  2.1000)
  10 Fe    14.515312    6.425126   12.583595    ( 0.0000,  0.0000,  2.0000)
  11 Fe     3.525530    5.855840    9.069287    ( 0.0000,  0.0000,  2.0000)
  12 Co     7.704858    4.623291   10.610967    ( 0.0000,  0.0000,  2.1000)
  13 Co    10.046939    4.855287   10.077743    ( 0.0000,  0.0000,  2.1000)
  14 Al    12.514033    4.835680   10.656972    ( 0.0000,  0.0000,  0.0000)
  15 Fe    14.225605    7.138675   10.177016    ( 0.0000,  0.0000,  2.0000)
  16 Al     6.264483    6.680698   10.358403    ( 0.0000,  0.0000,  0.0000)
  17 Co     9.056981    7.285949    9.611595    ( 0.0000,  0.0000,  2.1000)
  18 Cr    11.654163    7.135042    9.956595    ( 0.0000,  0.0000,  0.0000)
  19 Ni    15.677559    8.870550   11.672531    ( 0.0000,  0.0000,  1.5000)
  20 Ni    17.764685    8.889938   10.291926    ( 0.0000,  0.0000,  1.5000)
  21 Ni     7.587098   10.150278    9.822199    ( 0.0000,  0.0000,  1.5000)
  22 Cr    12.734019    9.483593    9.383177    ( 0.0000,  0.0000,  0.0000)
  23 Al    15.197345    9.362908    9.153645    ( 0.0000,  0.0000,  0.0000)
  24 Al    14.150304   11.902324    8.662364    ( 0.0000,  0.0000,  0.0000)
  25 Al    18.958084   10.757699   11.699117    ( 0.0000,  0.0000,  0.0000)
  26 Al    10.191375    9.600185    9.348693    ( 0.0000,  0.0000,  0.0000)
  27 Al     5.423274   -0.262928   11.516733    ( 0.0000,  0.0000,  0.0000)
  28 Fe     8.110662   -0.797014   13.549997    ( 0.0000,  0.0000,  2.0000)
  29 Cr    10.324138   -2.160231   16.682021    ( 0.0000,  0.0000,  0.0000)
  30 Al    12.723143    1.086091    9.070374    ( 0.0000,  0.0000,  0.0000)
  31 Ni     4.253925    0.876996   13.882323    ( 0.0000,  0.0000,  1.5000)
  32 Ni     6.764200    2.522948   11.010689    ( 0.0000,  0.0000,  1.5000)
  33 Al     9.453167    1.577902   12.875835    ( 0.0000,  0.0000,  0.0000)
  34 Co    11.866781    1.618689   13.307529    ( 0.0000,  0.0000,  2.1000)
  35 Al     2.854963    4.714546   11.194802    ( 0.0000,  0.0000,  0.0000)
  36 Fe     5.265733    4.520062   11.494567    ( 0.0000,  0.0000,  2.0000)
  37 Ni     7.424799    3.605736   12.825066    ( 0.0000,  0.0000,  1.5000)
  38 Co    10.040865    3.954400   12.576026    ( 0.0000,  0.0000,  2.1000)
  39 Cr    12.854023    3.989841   12.889514    ( 0.0000,  0.0000,  0.0000)
  40 Fe     4.017582    6.944323   11.254521    ( 0.0000,  0.0000,  2.0000)
  41 Cr     6.411557    6.174828   12.682562    ( 0.0000,  0.0000,  0.0000)
  42 Fe     8.903817    6.411703   11.733221    ( 0.0000,  0.0000,  2.0000)
  43 Ni    11.149131    5.980865   12.317934    ( 0.0000,  0.0000,  1.5000)
  44 Cr    15.370662    3.115930   13.498531    ( 0.0000,  0.0000,  0.0000)
  45 Fe     5.274444    8.467968   12.751770    ( 0.0000,  0.0000,  2.0000)
  46 Ni     7.673148    8.536402   11.773047    ( 0.0000,  0.0000,  1.5000)
  47 Ni    10.244907    8.247162   11.837956    ( 0.0000,  0.0000,  1.5000)
  48 Ni    13.445853    8.774455   11.705486    ( 0.0000,  0.0000,  1.5000)
  49 Al    15.900080    7.922387   14.019546    ( 0.0000,  0.0000,  0.0000)
  50 Co     1.662424    0.697121   13.937982    ( 0.0000,  0.0000,  2.1000)
  51 Cr     2.724286   -0.702773   11.965116    ( 0.0000,  0.0000,  0.0000)
  52 Co     6.706656    1.261800   13.157941    ( 0.0000,  0.0000,  2.1000)
  53 Ni     9.325280    0.670253   15.525759    ( 0.0000,  0.0000,  1.5000)
  54 Ni    12.008576    0.464777   15.332971    ( 0.0000,  0.0000,  1.5000)
  55 Cr     1.541886    1.969558   11.490729    ( 0.0000,  0.0000,  0.0000)
  56 Cr     5.190928    3.400596   13.865891    ( 0.0000,  0.0000,  0.0000)
  57 Co     7.634704    2.678786   14.773750    ( 0.0000,  0.0000,  2.1000)
  58 Co    10.238848    2.836132   14.720022    ( 0.0000,  0.0000,  2.1000)
  59 Cr    13.147574    2.846410   15.002744    ( 0.0000,  0.0000,  0.0000)
  60 Cr     3.963541    5.625078   13.146178    ( 0.0000,  0.0000,  0.0000)
  61 Co     6.836154    4.898841   14.803166    ( 0.0000,  0.0000,  2.1000)
  62 Co     9.080241    5.307895   14.175247    ( 0.0000,  0.0000,  2.1000)
  63 Ni    10.622394    6.311257   16.395464    ( 0.0000,  0.0000,  1.5000)
  64 Al    14.048584    5.313128   14.827249    ( 0.0000,  0.0000,  0.0000)
  65 Cr     5.412092    7.185168   15.032760    ( 0.0000,  0.0000,  0.0000)
  66 Fe     7.823367    7.493976   13.929711    ( 0.0000,  0.0000,  2.0000)
  67 Cr    10.485262    7.450952   14.118772    ( 0.0000,  0.0000,  0.0000)
  68 Al    12.900011    7.506703   14.079091    ( 0.0000,  0.0000,  0.0000)
  69 Fe    15.464485    6.722484   16.280424    ( 0.0000,  0.0000,  2.0000)
  70 Cr     6.872390    9.773330   14.278423    ( 0.0000,  0.0000,  0.0000)
  71 Ni     9.235928    9.648478   14.140660    ( 0.0000,  0.0000,  1.5000)
  72 Co    11.825140    9.367314   13.473586    ( 0.0000,  0.0000,  2.1000)
  73 Co    14.329365    8.798894   15.901277    ( 0.0000,  0.0000,  2.1000)
  74 Cr    14.592241    8.025769   18.226202    ( 0.0000,  0.0000,  0.0000)
  75 Al    12.732421    3.047020   19.374083    ( 0.0000,  0.0000,  0.0000)
  76 Co     2.979569    2.333064   15.904395    ( 0.0000,  0.0000,  2.1000)
  77 Ni     5.414643    2.136345   15.916344    ( 0.0000,  0.0000,  1.5000)
  78 Fe     6.467009    4.064620   17.122090    ( 0.0000,  0.0000,  2.0000)
  79 Fe    11.648010    5.091559   14.566830    ( 0.0000,  0.0000,  2.0000)
  80 Al    14.457198    3.932027   17.169724    ( 0.0000,  0.0000,  0.0000)
  81 Cr     3.786293    4.736999   15.783629    ( 0.0000,  0.0000,  0.0000)
  82 Cr     8.021727    4.202505   19.017414    ( 0.0000,  0.0000,  0.0000)
  83 Co     9.225331    4.079070   16.407405    ( 0.0000,  0.0000,  2.1000)
  84 Fe    11.695857    3.991404   16.946596    ( 0.0000,  0.0000,  2.0000)
  85 Ni    15.897272    5.579823   18.415717    ( 0.0000,  0.0000,  1.5000)
  86 Cr     5.127400    6.176103   16.954272    ( 0.0000,  0.0000,  0.0000)
  87 Fe     7.985973    6.071308   16.506237    ( 0.0000,  0.0000,  2.0000)
  88 Ni     9.486334    6.147875   18.392363    ( 0.0000,  0.0000,  1.5000)
  89 Co    13.028152    6.520827   16.659270    ( 0.0000,  0.0000,  2.1000)
  90 Co    17.174528    7.857675   18.581135    ( 0.0000,  0.0000,  2.1000)
  91 Co     6.545856    8.239445   16.861290    ( 0.0000,  0.0000,  2.1000)
  92 Fe     7.962649   10.711948   16.728631    ( 0.0000,  0.0000,  2.0000)
  93 Al     9.202638    8.394361   16.611533    ( 0.0000,  0.0000,  0.0000)
  94 Ni    12.803090    7.258371   20.344485    ( 0.0000,  0.0000,  1.5000)
  95 Cr    15.669475   10.120655   18.118849    ( 0.0000,  0.0000,  0.0000)
  96 Co     6.981839   12.780837   17.087097    ( 0.0000,  0.0000,  2.1000)
  97 Ni    10.300836   10.767517   16.145555    ( 0.0000,  0.0000,  1.5000)
  98 Al    12.990477   10.882794   15.469196    ( 0.0000,  0.0000,  0.0000)
  99 Al    14.358396   13.044701   17.327271    ( 0.0000,  0.0000,  0.0000)
 100 Cr     7.682590    9.469187   18.686342    ( 0.0000,  0.0000,  0.0000)
 101 Cr     8.845250   12.447396   18.378086    ( 0.0000,  0.0000,  0.0000)
 102 Fe     5.228319    0.978354   17.873962    ( 0.0000,  0.0000,  2.0000)
 103 Cr    12.071827    9.510117   20.036983    ( 0.0000,  0.0000,  0.0000)
 104 Al    14.915928    9.465350   20.526803    ( 0.0000,  0.0000,  0.0000)
 105 Cr     4.438594    0.747524   19.975467    ( 0.0000,  0.0000,  0.0000)
 106 Fe     4.243920    3.566832   17.991814    ( 0.0000,  0.0000,  2.0000)
 107 Ni     5.993694    2.785257   19.467573    ( 0.0000,  0.0000,  1.5000)
 108 Al     7.240272    0.522132   19.275649    ( 0.0000,  0.0000,  0.0000)
 109 Cr    10.133708    3.404913   19.096572    ( 0.0000,  0.0000,  0.0000)
 110 Ni    15.206485    3.725627   19.730910    ( 0.0000,  0.0000,  1.5000)
 111 Al     5.634970    5.644737   19.404511    ( 0.0000,  0.0000,  0.0000)
 112 Fe     8.699605    5.888975   20.591686    ( 0.0000,  0.0000,  2.0000)
 113 Al    11.360511    5.474665   19.618494    ( 0.0000,  0.0000,  0.0000)
 114 Ni    13.456612    5.543796   18.636904    ( 0.0000,  0.0000,  1.5000)
 115 Al    18.133540   10.677208   17.799851    ( 0.0000,  0.0000,  0.0000)
 116 Ni     7.502250    7.038962   18.710079    ( 0.0000,  0.0000,  1.5000)
 117 Al     9.875128    8.280754   19.893642    ( 0.0000,  0.0000,  0.0000)
 118 Fe    11.754201    7.699600   18.344261    ( 0.0000,  0.0000,  2.0000)
 119 Cr    15.497841    6.330451   20.555427    ( 0.0000,  0.0000,  0.0000)
 120 Fe     3.477965   11.811295   20.153700    ( 0.0000,  0.0000,  2.0000)
 121 Ni     4.370856   12.745790   17.555889    ( 0.0000,  0.0000,  1.5000)
 122 Ni    10.174578    9.928018   18.156088    ( 0.0000,  0.0000,  1.5000)
 123 Fe    11.665277    8.558277   16.002242    ( 0.0000,  0.0000,  2.0000)
 124 Fe    12.895152    9.812791   17.820099    ( 0.0000,  0.0000,  2.0000)

Unit cell:
           periodic     x           y           z      points  spacing
  1. axis:    yes   12.688900    0.000000    0.000000    56     0.1962
  2. axis:    yes    6.352870   11.003500    0.000000    56     0.1965
  3. axis:    no     0.000000    0.000000   29.353100   128     0.2293

  Lengths:  12.688900  12.705746  29.353100
  Angles:   90.000000  90.000000  60.000014

Effective grid spacing dv^(1/3) = 0.2169

     iter     time        total  log10-change:  magmom
                         energy  eigst   dens
iter:   1 00:13:06 -1105.090759                  +140.3334
iter:   2 00:15:30 -1162.567470  +0.15  -1.06    +71.2878
iter:   3 00:17:54 -3044.524573  +1.35  -0.89    +60.2498
iter:   4 00:20:19  -917.529901  +0.44  -0.51    +48.7240
iter:   5 00:22:43  -936.275497  +0.40  -1.13    +36.4259
iter:   6 00:25:06  -944.358045  +0.01  -1.14    +40.2347
iter:   7 00:27:31  -923.195820  -0.53  -1.13    +44.0046
iter:   8 00:29:55  -931.704713  -0.99  -1.18    +48.2946
iter:   9 00:32:19 -1716.417106  +0.32  -1.17    +51.9494
iter:  10 00:34:43  -910.731936  -0.44  -0.77    +48.1858
iter:  11 00:37:06  -899.417604  -1.14  -1.25    +47.6040
iter:  12 00:39:29  -890.705136  -1.15  -1.30    +52.3976
iter:  13 00:41:52  -923.555885  -1.48  -1.36    +53.7953
iter:  14 00:44:16  -895.343935  -1.41  -1.22    +55.9408
iter:  15 00:46:39  -963.267419  -1.27  -1.36    +55.5965
iter:  16 00:49:03  -874.767529  -1.44  -1.16    +55.2627
iter:  17 00:51:27  -873.040587  -2.11  -1.50    +53.5516
iter:  18 00:53:52  -868.568558  -2.52  -1.50    +58.6949
iter:  19 00:56:15  -869.210734  -1.87  -1.59    +61.2240
iter:  20 00:58:39  -868.062074  -1.92  -1.64    +62.8422
iter:  21 01:01:03  -890.996196  -1.82  -1.65    +63.0819
iter:  22 01:03:27  -867.466154  -2.14  -1.41    +61.0176
iter:  23 01:05:52  -869.069698  -2.25  -1.70    +63.0102
iter:  24 01:08:15  -874.547139  -2.33  -1.73    +64.0628
iter:  25 01:10:39  -872.522256  -2.57  -1.59    +63.0477
iter:  26 01:13:03  -873.945248  -2.42  -1.65    +62.2962
iter:  27 01:15:27  -871.400782  -2.09  -1.64    +62.5203
iter:  28 01:17:51  -869.746171  -2.20  -1.74    +62.7433
iter:  29 01:20:16  -878.732193  -2.21  -1.81    +63.8920
iter:  30 01:22:40  -872.222266  -2.05  -1.61    +63.0893
iter:  31 01:25:03  -871.304301  -2.48  -1.80    +63.1232
iter:  32 01:27:27  -869.614601  -3.22  -1.79    +63.0583
iter:  33 01:29:51  -869.803869  -3.21  -1.89    +63.2052
iter:  34 01:32:15  -870.793254  -2.98  -1.91    +63.2964
iter:  35 01:34:38  -870.666701  -2.80  -1.88    +63.4642
iter:  36 01:37:01  -870.444259  -2.58  -1.95    +63.0649
iter:  37 01:39:26  -870.984447  -2.44  -2.02    +62.8328
iter:  38 01:41:49  -876.171767  -2.32  -2.01    +63.5853
iter:  39 01:44:13  -869.536172  -2.78  -1.72    +63.3360
iter:  40 01:46:37  -869.631543  -3.30  -2.22    +63.6367
iter:  41 01:49:01  -869.547473c -3.34  -2.23    +63.9495
iter:  42 01:51:24  -869.988084  -3.61  -2.30    +63.9895
iter:  43 01:53:49  -869.738255  -3.47  -2.19    +63.8936
iter:  44 01:56:12  -873.073468  -2.77  -2.32    +63.9092
iter:  45 01:58:36  -869.938091  -2.96  -1.90    +64.0614
iter:  46 02:01:00  -869.796753  -3.54  -2.29    +64.1202
iter:  47 02:03:24  -869.890593  -3.67  -2.43    +64.0761
iter:  48 02:05:49  -869.903383  -3.58  -2.38    +63.7679
iter:  49 02:08:12  -869.824969c -4.33  -2.43    +63.7621
iter:  50 02:10:36  -870.039682  -3.63  -2.52    +63.3482
iter:  51 02:13:00  -870.732462  -3.35  -2.45    +63.2636
iter:  52 02:15:24  -870.060874  -3.66  -2.22    +63.1118
iter:  53 02:17:49  -870.371883  -3.52  -2.59    +63.1955
iter:  54 02:20:12  -870.370882  -3.30  -2.42    +63.1814
iter:  55 02:22:36  -870.189892  -3.69  -2.39    +62.6919
iter:  56 02:24:59  -870.306121  -4.08  -2.58    +62.5130
iter:  57 02:27:24  -870.162891  -3.80  -2.52    +62.5456
iter:  58 02:29:47  -870.166380  -4.29  -2.63    +62.3750
iter:  59 02:32:11  -870.203776c -4.11  -2.69    +62.2534
iter:  60 02:34:35  -870.218684c -4.10  -2.71    +62.1224
iter:  61 02:36:59  -870.212883c -4.18  -2.67    +61.9931
iter:  62 02:39:23  -870.218334c -4.30  -2.76    +62.0119
iter:  63 02:41:46  -870.325957  -3.80  -2.77    +61.9824
iter:  64 02:44:09  -870.241610  -4.01  -2.61    +61.9535
iter:  65 02:46:33  -870.214749  -4.23  -2.87    +62.0277
iter:  66 02:48:57  -870.229007c -4.61  -3.02    +62.0952
iter:  67 02:51:21  -870.225696c -4.39  -2.97    +62.0996
iter:  68 02:53:45  -870.221551c -4.64  -2.97    +62.0309
iter:  69 02:56:10  -870.222668c -4.94  -3.12    +61.9647
iter:  70 02:58:34  -870.227793c -5.00  -3.22    +61.9325
iter:  71 03:00:58  -870.234187c -4.90  -3.26    +61.8903
iter:  72 03:03:21  -870.235973c -5.04  -3.28    +61.8717
iter:  73 03:05:45  -870.239390c -5.03  -3.42    +61.8459
iter:  74 03:08:09  -870.259580c -4.94  -3.44    +61.8021
iter:  75 03:10:33  -870.247387c -4.96  -3.07    +61.7947
iter:  76 03:12:58  -870.250789c -5.12  -3.45    +61.8115
iter:  77 03:15:21  -870.255111c -5.16  -3.60    +61.7915
iter:  78 03:17:46  -870.257239c -5.50  -3.62    +61.7856
iter:  79 03:20:09  -870.263458c -5.18  -3.68    +61.7692
iter:  80 03:22:34  -870.260439c -5.86  -3.61    +61.7663
iter:  81 03:24:58  -870.275509c -4.67  -3.58    +61.7654
iter:  82 03:27:22  -870.263559c -4.93  -3.49    +61.7785
iter:  83 03:29:46  -870.268969c -5.30  -3.46    +61.8089
iter:  84 03:32:10  -870.271418c -5.47  -3.49    +61.8115
iter:  85 03:34:35  -870.275309c -5.33  -3.37    +61.8144
iter:  86 03:36:58  -870.279346c -5.30  -3.47    +61.8103
iter:  87 03:39:21  -870.289543c -5.17  -3.42    +61.8243
iter:  88 03:41:46  -870.285815c -5.38  -3.17    +61.8253
iter:  89 03:44:09  -870.293237c -5.13  -3.40    +61.8442
iter:  90 03:46:33  -870.299000c -5.09  -3.28    +61.8786
iter:  91 03:48:57  -870.298461c -5.01  -3.17    +61.8569
iter:  92 03:51:21  -870.304058c -5.02  -3.33    +61.8623
iter:  93 03:53:44  -870.303992c -5.28  -3.29    +61.8950
iter:  94 03:56:08  -870.317657c -4.89  -3.41    +61.9399
iter:  95 03:58:33  -870.313009c -5.17  -3.21    +61.9469
iter:  96 04:00:57  -870.318531c -5.25  -3.24    +61.9733
iter:  97 04:03:21  -870.308258c -4.93  -3.26    +61.8896
iter:  98 04:05:44  -870.328471c -4.63  -3.32    +62.0162
iter:  99 04:08:09  -870.323607c -5.53  -3.19    +62.0063
iter: 100 04:10:32  -870.426475c -4.19  -3.26    +62.0891
iter: 101 04:12:57  -870.327683c -4.54  -2.71    +62.0873
iter: 102 04:15:20  -870.332482c -5.13  -3.20    +62.1128
iter: 103 04:17:45  -870.337270c -4.80  -3.24    +62.1182
iter: 104 04:20:09  -870.343157c -4.77  -3.22    +62.1669
iter: 105 04:22:33  -870.343794c -4.89  -3.24    +62.2398
iter: 106 04:24:56  -870.352373c -5.04  -3.31    +62.2634
iter: 107 04:27:20  -870.348616c -5.77  -3.34    +62.2298
iter: 108 04:29:44  -870.351629c -5.37  -3.35    +62.2308
iter: 109 04:32:08  -870.356983c -5.19  -3.30    +62.2824
iter: 110 04:34:32  -870.374569c -4.81  -3.35    +62.2705
iter: 111 04:36:55  -870.364549c -4.88  -3.07    +62.3469
iter: 112 04:39:19  -870.385877c -4.81  -3.29    +62.3945
iter: 113 04:41:44  -870.386453c -5.43  -3.02    +62.4062
iter: 114 04:44:08  -870.406956c -4.93  -3.05    +62.4730
iter: 115 04:46:32  -870.397495c -5.64  -2.93    +62.4594
iter: 116 04:48:55  -870.398118c -4.84  -3.01    +62.5251
iter: 117 04:51:20  -870.465493c -4.26  -3.19    +62.5476
iter: 118 04:53:44  -870.411057c -4.55  -2.78    +62.6693
iter: 119 04:56:08  -870.420933c -4.77  -3.09    +62.7198
iter: 120 04:58:33  -870.421595c -5.56  -3.13    +62.7247
iter: 121 05:00:57  -870.438754c -4.70  -3.15    +62.7737
iter: 122 05:03:21  -870.460803c -4.60  -3.10    +62.7700
iter: 123 05:05:45  -870.481764c -4.29  -2.91    +62.9110
iter: 124 05:08:09  -870.463550c -4.24  -2.91    +63.0192
iter: 125 05:10:33  -870.467334c -4.60  -3.03    +63.0468
iter: 126 05:12:57  -870.552383c -4.37  -3.13    +63.1067
iter: 127 05:15:21  -870.496838c -5.06  -2.68    +63.1101
iter: 128 05:17:45  -870.521743c -4.34  -2.94    +63.1858
iter: 129 05:20:09  -870.514545c -4.93  -3.00    +63.1821
iter: 130 05:22:34  -870.541111c -4.59  -3.02    +63.3339
iter: 131 05:24:58  -870.552759c -4.35  -2.99    +63.3675
iter: 132 05:27:21  -870.579093c -4.24  -2.91    +63.5194
iter: 133 05:29:46  -870.717419  -3.85  -2.84    +63.6048
iter: 134 05:32:09  -870.594135  -4.62  -2.52    +63.6251
iter: 135 05:34:34  -870.567907  -4.49  -2.75    +63.6809
iter: 136 05:36:58  -870.562267c -4.40  -2.91    +63.6922
iter: 137 05:39:22  -870.553747c -4.84  -2.96    +63.6944
iter: 138 05:41:46  -870.543867c -4.81  -3.04    +63.6850
iter: 139 05:44:10  -870.601388c -4.30  -3.22    +63.6932
iter: 140 05:46:34  -870.550054c -4.66  -2.79    +63.6856
iter: 141 05:48:59  -870.542364c -5.36  -3.12    +63.6883
iter: 142 05:51:22  -870.541537c -5.87  -3.55    +63.6967
iter: 143 05:53:47  -870.545616c -5.33  -3.50    +63.7106
iter: 144 05:56:10  -870.543327c -5.32  -3.52    +63.7010
iter: 145 05:58:35  -870.547158c -5.24  -3.52    +63.7211
iter: 146 06:00:59  -870.545976c -5.53  -3.41    +63.7248
iter: 147 06:03:23  -870.546081c -5.73  -3.73    +63.7248
iter: 148 06:05:46  -870.547063c -5.37  -3.58    +63.7304
iter: 149 06:08:10  -870.549873c -5.52  -3.48    +63.7180
iter: 150 06:10:34  -870.549678c -6.31  -3.55    +63.7206
iter: 151 06:12:59  -870.550212c -5.34  -3.58    +63.7308
iter: 152 06:15:23  -870.551516c -5.39  -3.56    +63.7347
iter: 153 06:17:47  -870.553607c -5.24  -3.46    +63.7274
iter: 154 06:20:12  -870.687710  -4.29  -3.35    +63.7258
iter: 155 06:22:35  -870.554038  -4.47  -2.58    +63.7064
iter: 156 06:25:00  -870.555894  -5.40  -3.38    +63.6879
iter: 157 06:27:24  -870.567949c -5.00  -3.39    +63.7019
iter: 158 06:29:48  -870.571476c -4.76  -3.08    +63.6869
iter: 159 06:32:12  -870.548268c -5.02  -3.07    +63.6999
iter: 160 06:34:37  -870.566829c -4.73  -3.47    +63.6971
iter: 161 06:37:02  -870.547395c -5.18  -3.01    +63.7116
iter: 162 06:39:25  -870.547570c -5.70  -3.55    +63.7205
iter: 163 06:41:50  -870.547785c -5.70  -3.51    +63.6842
iter: 164 06:44:14  -870.548385c -5.71  -3.69    +63.7021
iter: 165 06:46:39  -870.550745c -5.98  -3.46    +63.6675
iter: 166 06:49:03  -870.547348c -5.87  -3.38    +63.6240
iter: 167 06:51:27  -870.553852c -5.72  -3.66    +63.6546
iter: 168 06:53:52  -870.549589c -5.80  -3.30    +63.6154
iter: 169 06:56:17  -870.548602c -5.93  -3.64    +63.6193
iter: 170 06:58:41  -870.549219c -6.23  -3.86    +63.6019
iter: 171 07:01:05  -870.550511c -5.67  -3.88    +63.5551
iter: 172 07:03:30  -870.550233c -5.84  -3.89    +63.5830
iter: 173 07:05:53  -870.553988c -5.43  -3.73    +63.5120
iter: 174 07:08:17  -870.555755c -5.82  -3.62    +63.5081
iter: 175 07:10:42  -870.556746c -5.95  -3.57    +63.4862
iter: 176 07:13:06  -870.556793c -5.57  -3.57    +63.4642
iter: 177 07:15:30  -870.558680c -5.65  -3.53    +63.4437
iter: 178 07:17:55  -870.578020c -4.79  -3.48    +63.4396
iter: 179 07:20:19  -870.558595c -5.03  -2.96    +63.4209
iter: 180 07:22:43  -870.565465c -5.09  -3.39    +63.4186
iter: 181 07:25:07  -870.570708c -5.10  -3.27    +63.4157
iter: 182 07:27:31  -870.563369c -4.55  -3.08    +63.3617
iter: 183 07:29:55  -870.551702c -4.98  -3.12    +63.3633
iter: 184 07:32:20  -870.570421c -4.64  -3.35    +63.3327
iter: 185 07:34:44  -870.550168c -5.16  -3.00    +63.3324
iter: 186 07:37:08  -870.555906c -5.03  -3.53    +63.3408
iter: 187 07:39:32  -870.549846c -5.61  -3.20    +63.3470
iter: 188 07:41:56  -870.550244c -5.78  -3.61    +63.3654
iter: 189 07:44:21  -870.550791c -5.48  -3.57    +63.3966
iter: 190 07:46:45  -870.550387c -6.07  -3.58    +63.3898
iter: 191 07:49:09  -870.551011c -6.15  -3.79    +63.4005
iter: 192 07:51:34  -870.571848c -5.09  -3.73    +63.4017
iter: 193 07:53:59  -870.551156c -5.30  -3.05    +63.3982
iter: 194 07:56:23  -870.551171c -6.11  -3.61    +63.4096
iter: 195 07:58:48  -870.550675c -6.83  -3.60    +63.4050
iter: 196 08:01:13  -870.550537c -7.01  -3.78    +63.4077
iter: 197 08:03:38  -870.550529c -7.02  -3.83    +63.4117
iter: 198 08:06:01  -870.551375c -6.16  -3.83    +63.4136
iter: 199 08:08:26  -870.550434c -6.63  -3.88    +63.4121
iter: 200 08:10:50  -870.550540c -6.70  -3.98    +63.4195
iter: 201 08:13:15  -870.550369c -7.06  -4.24c   +63.4174
iter: 202 08:15:39  -870.550655c -6.87  -4.27c   +63.4178
iter: 203 08:18:04  -870.550562c -7.18  -4.31c   +63.4183
iter: 204 08:20:27  -870.550549c -6.58  -4.41c   +63.4317
iter: 205 08:22:52  -870.550728c -6.31  -4.41c   +63.4445
iter: 206 08:25:15  -870.550618c -7.23  -4.18c   +63.4367
iter: 207 08:27:40  -870.551342c -5.61  -4.33c   +63.4739
iter: 208 08:30:04  -870.550614c -5.27  -3.86    +63.4128
iter: 209 08:32:28  -870.550740c -6.86  -4.37c   +63.4258
iter: 210 08:34:53  -870.550768c -7.39  -4.35c   +63.4278
iter: 211 08:37:17  -870.550992c -6.45  -4.33c   +63.4371
iter: 212 08:39:42  -870.550642c -6.36  -4.14c   +63.4390
iter: 213 08:42:06  -870.550943c -6.67  -3.75    +63.4356
iter: 214 08:44:30  -870.551092c -7.06  -4.07c   +63.4331
iter: 215 08:46:55  -870.551213c -6.90  -4.05c   +63.4370
iter: 216 08:49:19  -870.552021c -5.91  -3.98    +63.4446
iter: 217 08:51:43  -870.551458c -6.43  -3.79    +63.4369
iter: 218 08:54:07  -870.551959c -5.91  -3.92    +63.4264
iter: 219 08:56:31  -870.551686c -5.49  -3.76    +63.4441
iter: 220 08:58:56  -870.552666c -5.73  -3.65    +63.4405
iter: 221 09:01:20  -870.551914c -5.76  -3.40    +63.4439
iter: 222 09:03:45  -870.552449c -5.86  -3.74    +63.4465
iter: 223 09:06:10  -870.554297c -5.81  -3.40    +63.4414
iter: 224 09:08:34  -870.559884c -5.27  -3.62    +63.4371
iter: 225 09:10:59  -870.554688c -5.17  -3.26    +63.4491
iter: 226 09:13:24  -870.554533c -5.06  -3.33    +63.4360
iter: 227 09:15:48  -870.569375c -4.60  -3.25    +63.4471
iter: 228 09:18:12  -870.618746c -4.35  -3.08    +63.4650
iter: 229 09:20:36  -870.550959c -4.83  -2.76    +63.4651
iter: 230 09:23:00  -870.553688c -5.27  -3.86    +63.4662
iter: 231 09:25:25  -870.551239c -5.57  -3.57    +63.4409
iter: 232 09:27:49  -870.550018c -5.58  -3.84    +63.4337
iter: 233 09:30:13  -870.550381c -6.21  -3.91    +63.4257
iter: 234 09:32:38  -870.550686c -6.61  -4.16c   +63.4138
iter: 235 09:35:03  -870.550288c -6.83  -4.25c   +63.4157
iter: 236 09:37:27  -870.550941c -6.60  -4.06c   +63.4161
iter: 237 09:39:51  -870.550656c -7.03  -3.94    +63.4161
iter: 238 09:42:16  -870.550693c -6.75  -4.25c   +63.4164
iter: 239 09:44:40  -870.550439c -7.01  -4.18c   +63.4149
iter: 240 09:47:05  -870.550928c -6.85  -4.42c   +63.4127
iter: 241 09:49:29  -870.550634c -7.16  -4.39c   +63.4117
iter: 242 09:51:54  -870.550938c -6.46  -4.40c   +63.4117
iter: 243 09:54:18  -870.550507c -6.87  -3.73    +63.4119
iter: 244 09:56:43  -870.550506c -7.56c -4.58c   +63.4102

Converged after 244 iterations.

Dipole moment: (-8.934188, -2.586847, 0.190676) |e|*Ang

Total magnetic moment: (0.000000, 0.000000, 63.410225)
Local magnetic moments:
   0 Co ( 0.000000,  0.000000,  1.616809)
   1 Fe ( 0.000000,  0.000000,  2.324130)
   2 Co ( 0.000000,  0.000000,  0.645239)
   3 Fe ( 0.000000,  0.000000,  2.529738)
   4 Co ( 0.000000,  0.000000,  1.469385)
   5 Fe ( 0.000000,  0.000000,  2.979125)
   6 Co ( 0.000000,  0.000000,  1.072376)
   7 Al ( 0.000000,  0.000000, -0.044021)
   8 Co ( 0.000000,  0.000000,  1.594569)
   9 Co ( 0.000000,  0.000000,  1.439836)
  10 Fe ( 0.000000,  0.000000,  1.636165)
  11 Fe ( 0.000000,  0.000000,  2.954849)
  12 Co ( 0.000000,  0.000000,  1.621973)
  13 Co ( 0.000000,  0.000000,  1.707669)
  14 Al ( 0.000000,  0.000000, -0.009052)
  15 Fe ( 0.000000,  0.000000,  2.568652)
  16 Al ( 0.000000,  0.000000, -0.051611)
  17 Co ( 0.000000,  0.000000,  1.649125)
  18 Cr ( 0.000000,  0.000000, -3.122846)
  19 Ni ( 0.000000,  0.000000,  0.415717)
  20 Ni ( 0.000000,  0.000000,  0.446600)
  21 Ni ( 0.000000,  0.000000,  0.077162)
  22 Cr ( 0.000000,  0.000000, -2.760954)
  23 Al ( 0.000000,  0.000000, -0.006116)
  24 Al ( 0.000000,  0.000000, -0.023887)
  25 Al ( 0.000000,  0.000000, -0.008683)
  26 Al ( 0.000000,  0.000000, -0.002972)
  27 Al ( 0.000000,  0.000000, -0.015159)
  28 Fe ( 0.000000,  0.000000,  2.705832)
  29 Cr ( 0.000000,  0.000000, -1.278380)
  30 Al ( 0.000000,  0.000000, -0.038140)
  31 Ni ( 0.000000,  0.000000,  0.313184)
  32 Ni ( 0.000000,  0.000000,  0.524946)
  33 Al ( 0.000000,  0.000000, -0.051847)
  34 Co ( 0.000000,  0.000000,  0.932610)
  35 Al ( 0.000000,  0.000000, -0.033960)
  36 Fe ( 0.000000,  0.000000,  1.725881)
  37 Ni ( 0.000000,  0.000000,  0.456848)
  38 Co ( 0.000000,  0.000000,  1.717338)
  39 Cr ( 0.000000,  0.000000, -1.722449)
  40 Fe ( 0.000000,  0.000000,  1.999805)
  41 Cr ( 0.000000,  0.000000, -1.585790)
  42 Fe ( 0.000000,  0.000000,  2.575888)
  43 Ni ( 0.000000,  0.000000,  0.299771)
  44 Cr ( 0.000000,  0.000000,  2.295063)
  45 Fe ( 0.000000,  0.000000,  2.321565)
  46 Ni ( 0.000000,  0.000000,  0.177001)
  47 Ni ( 0.000000,  0.000000,  0.133642)
  48 Ni ( 0.000000,  0.000000,  0.354443)
  49 Al ( 0.000000,  0.000000, -0.039273)
  50 Co ( 0.000000,  0.000000,  0.958393)
  51 Cr ( 0.000000,  0.000000, -2.158388)
  52 Co ( 0.000000,  0.000000,  1.525277)
  53 Ni ( 0.000000,  0.000000,  0.327871)
  54 Ni ( 0.000000,  0.000000,  0.208431)
  55 Cr ( 0.000000,  0.000000, -2.861710)
  56 Cr ( 0.000000,  0.000000, -2.347751)
  57 Co ( 0.000000,  0.000000,  1.612503)
  58 Co ( 0.000000,  0.000000,  1.681911)
  59 Cr ( 0.000000,  0.000000, -1.414353)
  60 Cr ( 0.000000,  0.000000, -1.211213)
  61 Co ( 0.000000,  0.000000,  1.378041)
  62 Co ( 0.000000,  0.000000,  1.656721)
  63 Ni ( 0.000000,  0.000000,  0.423148)
  64 Al ( 0.000000,  0.000000, -0.023113)
  65 Cr ( 0.000000,  0.000000,  1.602813)
  66 Fe ( 0.000000,  0.000000,  2.305188)
  67 Cr ( 0.000000,  0.000000, -2.106472)
  68 Al ( 0.000000,  0.000000, -0.038620)
  69 Fe ( 0.000000,  0.000000,  1.741706)
  70 Cr ( 0.000000,  0.000000, -2.267025)
  71 Ni ( 0.000000,  0.000000, -0.064104)
  72 Co ( 0.000000,  0.000000,  0.729245)
  73 Co ( 0.000000,  0.000000,  1.092016)
  74 Cr ( 0.000000,  0.000000, -2.130032)
  75 Al ( 0.000000,  0.000000,  0.011738)
  76 Co ( 0.000000,  0.000000,  1.189032)
  77 Ni ( 0.000000,  0.000000,  0.408527)
  78 Fe ( 0.000000,  0.000000,  2.300990)
  79 Fe ( 0.000000,  0.000000,  2.224686)
  80 Al ( 0.000000,  0.000000, -0.018298)
  81 Cr ( 0.000000,  0.000000,  1.298203)
  82 Cr ( 0.000000,  0.000000,  2.046314)
  83 Co ( 0.000000,  0.000000,  1.616197)
  84 Fe ( 0.000000,  0.000000,  2.681828)
  85 Ni ( 0.000000,  0.000000,  0.301066)
  86 Cr ( 0.000000,  0.000000, -0.967442)
  87 Fe ( 0.000000,  0.000000,  2.690308)
  88 Ni ( 0.000000,  0.000000,  0.390110)
  89 Co ( 0.000000,  0.000000,  1.361195)
  90 Co ( 0.000000,  0.000000,  0.872001)
  91 Co ( 0.000000,  0.000000,  1.002704)
  92 Fe ( 0.000000,  0.000000,  2.376539)
  93 Al ( 0.000000,  0.000000, -0.020041)
  94 Ni ( 0.000000,  0.000000,  0.205294)
  95 Cr ( 0.000000,  0.000000,  1.639703)
  96 Co ( 0.000000,  0.000000,  0.755302)
  97 Ni ( 0.000000,  0.000000,  0.367448)
  98 Al ( 0.000000,  0.000000, -0.044839)
  99 Al ( 0.000000,  0.000000, -0.017912)
 100 Cr ( 0.000000,  0.000000, -3.053179)
 101 Cr ( 0.000000,  0.000000, -2.922956)
 102 Fe ( 0.000000,  0.000000,  2.104482)
 103 Cr ( 0.000000,  0.000000, -2.805800)
 104 Al ( 0.000000,  0.000000, -0.013371)
 105 Cr ( 0.000000,  0.000000,  3.032210)
 106 Fe ( 0.000000,  0.000000,  2.597756)
 107 Ni ( 0.000000,  0.000000,  0.383964)
 108 Al ( 0.000000,  0.000000, -0.048811)
 109 Cr ( 0.000000,  0.000000, -2.470577)
 110 Ni ( 0.000000,  0.000000,  0.201234)
 111 Al ( 0.000000,  0.000000, -0.025125)
 112 Fe ( 0.000000,  0.000000,  2.851201)
 113 Al ( 0.000000,  0.000000, -0.013850)
 114 Ni ( 0.000000,  0.000000,  0.263023)
 115 Al ( 0.000000,  0.000000, -0.019843)
 116 Ni ( 0.000000,  0.000000,  0.311521)
 117 Al ( 0.000000,  0.000000, -0.008657)
 118 Fe ( 0.000000,  0.000000,  2.322839)
 119 Cr ( 0.000000,  0.000000, -3.640347)
 120 Fe ( 0.000000,  0.000000,  2.975652)
 121 Ni ( 0.000000,  0.000000,  0.156843)
 122 Ni ( 0.000000,  0.000000,  0.064390)
 123 Fe ( 0.000000,  0.000000,  2.329859)
 124 Fe ( 0.000000,  0.000000,  2.136728)

Energy contributions relative to reference atoms: (reference = -3726899.091688)

Kinetic:       +256.312401
Potential:     -258.781323
External:        +0.000000
XC:            -899.708883
Entropy (-ST):   -4.886256
Local:          +34.070427
--------------------------
Free energy:   -872.993634
Extrapolated:  -870.550506

Dipole-layer corrected work functions: 4.283461, 4.036344 eV

Spin contamination: 52.686822 electrons
Showing all kpts
                      Up                     Down
 Kpt  Band  Eigenvalues  Occupancy  Eigenvalues  Occupancy
  0   523      0.35330    0.99744      1.24542    0.04942
  0   524      0.36314    0.99717      1.25714    0.04419
  0   525      0.37831    0.99671      1.27321    0.03788
  0   526      0.39955    0.99594      1.27508    0.03721

  1   523      0.34692    0.99760      1.24861    0.04794
  1   524      0.35375    0.99743      1.25475    0.04521
  1   525      0.37102    0.99694      1.27302    0.03795
  1   526      0.38543    0.99647      1.28141    0.03500


Fermi level: 0.94974

No gap

Forces in eV/Ang:
  0 Co   -0.09496    0.83512   -0.07329
  1 Fe    0.84658    0.79114    0.24866
  2 Co   -0.47412    0.24625    0.39522
  3 Fe   -0.10359   -0.42848    0.90272
  4 Co   -0.05140    1.71448    0.68127
  5 Fe   -0.29047   -0.22033    1.35357
  6 Co   -0.12739   -0.40972   -0.41140
  7 Al    0.54482   -0.23124   -0.43650
  8 Co    0.50611   -1.68390    0.15523
  9 Co    0.44932    0.09367    0.23349
 10 Fe   -0.52176   -0.22058   -0.98581
 11 Fe    0.27733    0.28253    1.12507
 12 Co   -0.27005    1.49954    0.10935
 13 Co    0.30269    0.51880    0.64246
 14 Al    0.59247   -0.38552   -0.88932
 15 Fe    0.40438   -0.68317    0.05251
 16 Al    0.67635    0.61355   -1.56517
 17 Co   -0.16209   -0.13396    0.94143
 18 Cr   -0.66505    0.39404    0.46399
 19 Ni    0.39361    1.22333   -0.10118
 20 Ni    0.28482    0.61025    0.04651
 21 Ni    0.27978   -0.58128   -0.03944
 22 Cr    0.69402    0.74113   -0.01444
 23 Al    1.32830   -0.35554    0.89147
 24 Al    0.12903    0.49397    0.35935
 25 Al   -0.54201    0.00218    0.48981
 26 Al   -0.41688   -0.58993    0.19204
 27 Al   -0.52117    0.40433    0.65722
 28 Fe   -0.05088   -0.14491   -0.40602
 29 Cr    0.19584    0.18527   -1.71928
 30 Al   -0.14837   -0.21480    0.93028
 31 Ni   -0.22402   -0.25829    0.23112
 32 Ni   -1.51988   -1.84704   -1.51549
 33 Al   -1.01672   -0.96975   -0.70432
 34 Co    0.68441    0.33369   -1.02290
 35 Al   -1.89763   -1.11834   -0.70173
 36 Fe    0.43982   -0.49999   -0.39459
 37 Ni    0.93851    1.93039   -1.02183
 38 Co    0.35875   -0.52764   -0.87373
 39 Cr    0.11122   -0.75467    0.38866
 40 Fe    0.04642   -1.26284   -0.84676
 41 Cr    0.70702   -0.66176    1.28304
 42 Fe   -0.92650   -1.45641    0.23862
 43 Ni    1.05092    0.35968   -0.23465
 44 Cr   -0.28113    0.45164    0.00202
 45 Fe    1.50897   -1.03030   -0.70575
 46 Ni   -1.04274   -0.73610   -0.44198
 47 Ni    0.74264    1.00855   -0.55096
 48 Ni   -1.79292    0.04090    0.28276
 49 Al   -1.13312    0.80712    0.42142
 50 Co   -0.11904    1.19008   -0.07437
 51 Cr    0.19863    2.16657   -0.45300
 52 Co   -0.31999   -0.53618   -0.04156
 53 Ni   -0.14736   -0.58029   -0.11096
 54 Ni   -0.34816    0.33171    0.93590
 55 Cr   -0.17850    0.40511    0.43981
 56 Cr   -0.45244   -0.44243   -0.09926
 57 Co    0.87607   -0.97299    2.39278
 58 Co    0.95112    0.41222    0.74247
 59 Cr   -0.42630   -0.86479   -0.17061
 60 Cr    0.03421    0.51483    2.45881
 61 Co   -0.86092    0.92419    0.29746
 62 Co    0.17434   -0.07023    0.45397
 63 Ni   -0.21731   -0.02074   -0.60124
 64 Al    1.26016   -0.72860   -0.62988
 65 Cr    0.00148   -0.69784   -0.45141
 66 Fe    0.36023   -0.03334    1.19806
 67 Cr   -1.83719   -0.05924    0.48926
 68 Al    1.76719   -0.53595   -0.00303
 69 Fe   -0.00837    0.59384    0.12173
 70 Cr   -0.83662   -1.21240   -0.05176
 71 Ni    0.97342   -0.51332    1.21919
 72 Co   -0.70079    1.53829    0.77132
 73 Co   -0.60799    0.94207   -0.30999
 74 Cr   -0.32471   -0.63627    0.59751
 75 Al    0.55005   -0.06492   -0.71786
 76 Co    0.00522   -0.87572   -0.49502
 77 Ni    0.19781    0.08709   -0.22581
 78 Fe   -0.29176    0.10027   -0.64687
 79 Fe   -0.88607   -0.17422    0.24092
 80 Al   -0.51980    0.36854    0.62264
 81 Cr    1.64175   -1.09189   -1.05431
 82 Cr    0.02659   -0.15962   -0.39805
 83 Co    0.01493    0.01200    0.81973
 84 Fe    0.25626    0.51075   -0.22389
 85 Ni    0.45268    0.86841   -0.60850
 86 Cr    1.29653   -0.08662   -0.07122
 87 Fe   -0.76144    0.56116   -0.29296
 88 Ni    1.32021   -0.70947    0.11689
 89 Co   -0.09052    0.57517   -1.00583
 90 Co    0.36413   -0.26967    0.50797
 91 Co    0.05796    0.90763   -0.33890
 92 Fe   -0.34246   -0.19052   -0.88180
 93 Al   -0.46748   -0.50309   -0.38754
 94 Ni    1.07243    0.26219    0.32182
 95 Cr   -0.77849    0.69903   -0.45729
 96 Co   -1.44815    0.19521   -0.07782
 97 Ni    0.57743    1.05528   -2.11923
 98 Al   -0.63726    0.79119   -0.07552
 99 Al    0.53518   -0.22062   -0.53960
100 Cr    0.19323    0.06354    0.33729
101 Cr    1.13470   -0.07580    0.21900
102 Fe    0.46244    0.18450   -0.98848
103 Cr    0.47225    0.53434   -0.17038
104 Al   -0.22678   -0.55425   -0.34330
105 Cr   -0.56318   -0.10961    1.15647
106 Fe    0.38750   -1.36637   -0.10146
107 Ni    0.21990    0.02561   -0.75958
108 Al    0.45261    0.97800    1.70629
109 Cr   -1.37180   -0.29782   -0.16697
110 Ni   -0.52033   -0.23088   -0.40962
111 Al   -0.07588   -0.78665    0.36596
112 Fe    0.15263    0.27192   -0.49920
113 Al    0.06870    0.27729    0.62162
114 Ni    0.52454   -0.30169    1.14882
115 Al    0.80592   -0.14881   -0.14354
116 Ni   -1.54530    0.22422    0.65962
117 Al   -0.97805   -0.91729    0.06721
118 Fe   -0.19891   -0.36454   -0.99836
119 Cr   -0.59081    0.58814   -0.04364
120 Fe   -0.20309    0.06053   -1.57240
121 Ni   -0.24866   -0.04212   -0.58329
122 Ni    0.18408   -0.13622    2.07802
123 Fe    0.12760    0.58676    0.07610
124 Fe   -0.23369   -0.39653   -0.77977

Timing:                              incl.     excl.
-----------------------------------------------------------
Forces:                             41.150    41.150   0.1% |
Hamiltonian:                         2.005     0.010   0.0% |
 Atomic:                             0.394     0.001   0.0% |
  XC Correction:                     0.393     0.393   0.0% |
 Calculate atomic Hamiltonians:      0.975     0.975   0.0% |
 Communicate:                        0.134     0.134   0.0% |
 Initialize Hamiltonian:             0.000     0.000   0.0% |
 Poisson:                            0.099     0.099   0.0% |
 XC 3D grid:                         0.392     0.392   0.0% |
LCAO initialization:               262.693     0.554   0.0% |
 LCAO eigensolver:                  12.325     0.010   0.0% |
  Calculate projections:             0.000     0.000   0.0% |
  DenseAtomicCorrection:             0.000     0.000   0.0% |
  Distribute overlap matrix:         7.893     7.893   0.0% |
  Orbital Layouts:                   4.314     4.314   0.0% |
  Potential matrix:                  0.007     0.007   0.0% |
  Sum over cells:                    0.100     0.100   0.0% |
 LCAO to grid:                     247.945   247.945   0.7% |
 Set positions (LCAO WFS):           1.870     1.602   0.0% |
  Basic WFS set positions:           0.004     0.004   0.0% |
  Basis functions set positions:     0.001     0.001   0.0% |
  P tci:                             0.000     0.000   0.0% |
  ST tci:                            0.093     0.093   0.0% |
  mktci:                             0.170     0.170   0.0% |
PWDescriptor:                        0.139     0.139   0.0% |
SCF-cycle:                       35174.607  1026.300   2.9% ||
 Davidson:                       33072.878 11863.427  33.4% |------------|
  Apply H:                         694.299   684.610   1.9% ||
   HMM T:                            9.689     9.689   0.0% |
  Subspace diag:                  3583.245     0.089   0.0% |
   calc_h_matrix:                 1535.532   891.958   2.5% ||
    Apply H:                       643.575   633.071   1.8% ||
     HMM T:                         10.504    10.504   0.0% |
   diagonalize:                    336.089   336.089   0.9% |
   rotate_psi:                    1711.535  1711.535   4.8% |-|
  calc. matrices:                 8470.375  7371.137  20.8% |-------|
   Apply H:                       1099.239  1079.056   3.0% ||
    HMM T:                          20.183    20.183   0.1% |
  diagonalize:                    4705.059  4705.059  13.3% |----|
  rotate_psi:                     3756.473  3756.473  10.6% |---|
 Density:                          594.886     0.008   0.0% |
  Atomic density matrices:           5.447     5.447   0.0% |
  Mix:                             276.350   276.350   0.8% |
  Multipole moments:                 0.168     0.168   0.0% |
  Pseudo density:                  312.914   312.903   0.9% |
   Symmetrize density:               0.011     0.011   0.0% |
 Hamiltonian:                      462.517     3.149   0.0% |
  Atomic:                           96.056     0.353   0.0% |
   XC Correction:                   95.703    95.703   0.3% |
  Calculate atomic Hamiltonians:   229.333   229.333   0.6% |
  Communicate:                      29.666    29.666   0.1% |
  Poisson:                          10.633    10.633   0.0% |
  XC 3D grid:                       93.679    93.679   0.3% |
 Orthonormalize:                    18.026     0.000   0.0% |
  calc_s_matrix:                     2.000     2.000   0.0% |
  inverse-cholesky:                  0.899     0.899   0.0% |
  projections:                      11.630    11.630   0.0% |
  rotate_psi_s:                      3.496     3.496   0.0% |
Set symmetry:                        0.001     0.001   0.0% |
Other:                               7.897     7.897   0.0% |
-----------------------------------------------------------
Total:                                     35488.492 100.0%

Date: Tue Apr 18 09:57:28 2023
