
  ___ ___ ___ _ _ _  
 |   |   |_  | | | | 
 | | | | | . | | | | 
 |__ |  _|___|_____|  22.8.0
 |___|_|             

User:   c.zeng@d0072
Date:   Thu Apr 20 12:25:42 2023
Arch:   x86_64
Pid:    64857
CWD:    /home/c.zeng/projects/hea-corrosion/hea-mlp/data-curation/surface-mcmc/dft-jobs/74
Python: 3.8.1
gpaw:   /home/c.zeng/usr/installs/gpaw/source/gpaw-22.8.0/gpaw
_gpaw:  /home/c.zeng/usr/installs/gpaw/source/gpaw-22.8.0/
        _gpaw.cpython-38-x86_64-linux-gnu.so
ase:    /home/c.zeng/.local/lib/python3.8/site-packages/ase-3.22.1-py3.8.egg/ase (version 3.22.1)
numpy:  /home/c.zeng/.local/lib/python3.8/site-packages/numpy (version 1.24.2)
scipy:  /home/c.zeng/.local/lib/python3.8/site-packages/scipy (version 1.10.1)
libxc:  4.2.3
units:  Angstrom and eV
cores: 30
OpenMP: False
OMP_NUM_THREADS: 1

Input parameters:
  convergence: {energy: 0.0001}
  kpts: [2 2 1]
  maxiter: 666
  mode: {ecut: 350.0,
         name: pw}
  occupations: {fixmagmom: False,
                name: fermi-dirac,
                width: 0.1}
  poissonsolver: {dipolelayer: xy}
  spinpol: True
  symmetry: {point_group: False}
  xc: PBE

System changes: positions, numbers, cell, pbc, initial_charges, initial_magmoms 

Initialize ...

species:
  Co:
    name: Cobalt
    id: 339d20d5b0b93d2de9531a1bee871d91
    Z: 27.0
    valence: 9
    core: 18
    charge: 0.0
    file: /home/c.zeng/usr/data/gpaw-setups-0.9.20000/Co.PBE.gz
    compensation charges: {type: gauss,
                           rc: 0.32,
                           lmax: 2}
    cutoffs: {filter: 1.87,
              core: 2.55}
    valence states:
      #              energy  rcut
      - 4s(2.00)    -5.469   1.005
      - 4p(0.00)    -1.277   1.058
      - 3d(7.00)    -8.205   1.005
      -  s          21.742   1.005
      -  p          25.934   1.058
      -  d          19.007   1.005
  
    # Using partial waves for Co as LCAO basis

  Cr:
    name: Chromium
    id: 33f258bda2ca9f93018e70263a35547b
    Z: 24.0
    valence: 6
    core: 18
    charge: 0.0
    file: /home/c.zeng/usr/data/gpaw-setups-0.9.20000/Cr.PBE.gz
    compensation charges: {type: gauss,
                           rc: 0.35,
                           lmax: 2}
    cutoffs: {filter: 2.14,
              core: 3.04}
    valence states:
      #              energy  rcut
      - 4s(1.00)    -4.007   1.164
      - 4p(0.00)    -0.989   1.217
      - 3d(5.00)    -2.913   1.111
      -  s          23.205   1.164
      -  p          26.223   1.217
      -  d          24.299   1.111
  
    # Using partial waves for Cr as LCAO basis

  Ni:
    name: Nickel
    id: 0d9f38a9d6e76a2886f07bb4381f212b
    Z: 28.0
    valence: 16
    core: 12
    charge: 0.0
    file: /home/c.zeng/usr/data/gpaw-setups-0.9.20000/Ni.PBE.gz
    compensation charges: {type: gauss,
                           rc: 0.36,
                           lmax: 2}
    cutoffs: {filter: 2.14,
              core: 1.98}
    valence states:
      #              energy  rcut
      - 4s(2.00)    -5.642   1.164
      - 3p(6.00)   -71.394   1.207
      - 4p(0.00)    -1.226   1.207
      - 3d(8.00)    -8.875   1.138
      -  s          21.570   1.164
      -  d          18.337   1.138
  
    # Using partial waves for Ni as LCAO basis

  Fe:
    name: Iron
    id: 37abbd8d6c3c35915a9b583b742da910
    Z: 26.0
    valence: 8
    core: 18
    charge: 0.0
    file: /home/c.zeng/usr/data/gpaw-setups-0.9.20000/Fe.PBE.gz
    compensation charges: {type: gauss,
                           rc: 0.33,
                           lmax: 2}
    cutoffs: {filter: 2.06,
              core: 2.67}
    valence states:
      #              energy  rcut
      - 4s(2.00)    -5.291   1.164
      - 4p(0.00)    -1.326   1.058
      - 3d(6.00)    -7.505   1.058
      -  s          21.920   1.164
      -  p          25.885   1.058
      -  d          19.706   1.058
  
    # Using partial waves for Fe as LCAO basis

  Al:
    name: Aluminium
    id: 0292cae29f5d6237e50f6abdd43a7bdd
    Z: 13.0
    valence: 3
    core: 10
    charge: 0.0
    file: /home/c.zeng/usr/data/gpaw-setups-0.9.20000/Al.PBE.gz
    compensation charges: {type: gauss,
                           rc: 0.34,
                           lmax: 2}
    cutoffs: {filter: 1.91,
              core: 2.36}
    valence states:
      #              energy  rcut
      - 3s(2.00)    -7.753   1.085
      - 3p(1.00)    -2.712   1.085
      -  s          19.459   1.085
      -  p          24.499   1.085
      -  d           0.000   1.085
  
    # Using partial waves for Al as LCAO basis

Reference energy: -4275894.041763  # eV

Spin-polarized calculation.
Magnetic moment: 165.900000

Convergence criteria:
 Maximum [total energy] change in last 3 cyles: 0.0001 eV / electron
 Maximum integral of absolute [dens]ity change: 0.0001 electrons / valence electron
 Maximum integral of absolute [eigenst]ate change: 4e-08 eV^2 / valence electron
 Maximum number of scf [iter]ations: 666
 (Square brackets indicate name in SCF output, whereas a 'c' in
 the SCF output indicates the quantity has converged.)

Symmetries present (total): 1

  ( 1  0  0)
  ( 0  1  0)
  ( 0  0  1)

4 k-points: 2 x 2 x 1 Monkhorst-Pack grid
2 k-points in the irreducible part of the Brillouin zone
       k-points in crystal coordinates                weights
   0:     0.25000000   -0.25000000    0.00000000          2/4
   1:     0.25000000    0.25000000    0.00000000          2/4

Wave functions: Plane wave expansion
  Cutoff energy: 350.000 eV
  Number of coefficients (min, max): 58901, 58943
  Pulay-stress correction: 0.000000 eV/Ang^3 (de/decut=0.000000)
  Using FFTW library
  ScaLapack parameters: grid=1x1, blocksize=None
  Wavefunction extrapolation:
    Improved wavefunction reuse through dual PAW basis 

Occupation numbers: Fermi-Dirac:
  width: 0.1000  # eV
 

Eigensolver
   Davidson(niter=2) 

Densities:
  Coarse grid: 54*54*128 grid
  Fine grid: 108*108*256 grid
  Total Charge: 0.000000 

Density mixing:
  Method: difference
  Backend: pulay
  Linear mixing parameter: 0.05
  old densities: 5
  Damping of long wavelength oscillations: 50 

Hamiltonian:
  XC and Coulomb potentials evaluated on a 108*108*256 grid
  Using the PBE Exchange-Correlation functional
  External potential:
    NoExternalPotential
 

XC parameters: PBE with 2 nearest neighbor stencil

Memory estimate:
  Process memory now: 358.73 MiB
  Calculator: 2335.53 MiB
    Density: 17.84 MiB
      Arrays: 6.75 MiB
      Localized functions: 8.39 MiB
      Mixer: 2.70 MiB
    Hamiltonian: 5.27 MiB
      Arrays: 5.01 MiB
      XC: 0.00 MiB
      Poisson: 0.00 MiB
      vbar: 0.25 MiB
    Wavefunctions: 2312.43 MiB
      Arrays psit_nG: 1458.82 MiB
      Eigensolver: 834.29 MiB
      Projections: 3.66 MiB
      Projectors: 1.14 MiB
      PW-descriptor: 14.51 MiB

Total number of cores used: 30
Parallelization over k-points: 2
Domain decomposition: 1 x 3 x 5

Number of atoms: 125
Number of atomic orbitals: 1185
Number of bands in calculation: 811
Number of valence electrons: 1179
Bands to converge: occupied

... initialized

Initializing position-dependent things.

Density initialized from atomic densities
Creating initial wave functions:
  811 bands from LCAO basis set

                                                                  
                                                                  
                                                                  
                                                                  
                             Cr                       Cr          
                               Ni    Co    Ni    Cr    Ni         
                          Co     Ni    Cr    Cr    Co             
                                Fe    Co    Fe    Al    Cr        
                Co    Cr   NCr   CFe    FAl   Cr    Ni            
           Ni     Co   CCo   FCo   CCo   Cr     Ni   Ni           
             Cr    Co     CoCo    Ni    Fe     Fe                 
                  Fe    NNi   CCr   FFe   CNi   ANi               
              Fe   NNi   FNi   CFFe  FNCr  NNi   Fe               
               Fe    Co    Cr    Ni     Co                        
                          Co    NFe   CFe   CNi   CNi   Al        
           Co    Cr   ACr  CCFe   FCr   CFe   FFe   Ni            
            Ni    Fe    Fe    Co    Ni                            
                       Fe    Cr    Al    Cr    Cr                 
       Ni    Cr   CCr    Fe    NFe   Co    Ni                     
              Cr    Co    Cr     Cr    Co                         
                                                                  
                                                                  
                                                                  
                                                                  
                                                                  

Positions:
   0 Co    12.486468    1.462777   10.528605    ( 0.0000,  0.0000,  1.5000)
   1 Cr     2.491286    1.427324   10.624355    ( 0.0000,  0.0000,  2.0000)
   2 Co     4.996443    1.433664   10.615695    ( 0.0000,  0.0000,  2.1000)
   3 Cr     7.497692    1.450585   10.618513    ( 0.0000,  0.0000,  2.0000)
   4 Cr     9.980354    1.438381   10.617016    ( 0.0000,  0.0000,  2.1000)
   5 Ni    13.725570    3.599047   10.613993    ( 0.0000,  0.0000,  2.1000)
   6 Co     3.721032    3.570702   10.596763    ( 0.0000,  0.0000,  1.5000)
   7 Fe     6.265421    3.568181   10.621801    ( 0.0000,  0.0000,  2.0000)
   8 Ni     8.741341    3.586865   10.615549    ( 0.0000,  0.0000,  2.0000)
   9 Co    11.233064    3.610428   10.573163    ( 0.0000,  0.0000,  0.0000)
  10 Cr    14.927431    5.761281   10.554435    ( 0.0000,  0.0000,  1.5000)
  11 Fe     5.002416    5.751707   10.362584    ( 0.0000,  0.0000,  0.0000)
  12 Cr     7.528897    5.754942   10.601782    ( 0.0000,  0.0000,  1.5000)
  13 Al     9.984614    5.751426   10.596909    ( 0.0000,  0.0000,  2.1000)
  14 Cr    12.467830    5.774643   10.569993    ( 0.0000,  0.0000,  0.0000)
  15 Ni    16.185528    7.952943   10.517715    ( 0.0000,  0.0000,  0.0000)
  16 Co     6.281890    7.953062   10.585785    ( 0.0000,  0.0000,  2.0000)
  17 Cr     8.751632    7.929564   10.589659    ( 0.0000,  0.0000,  2.0000)
  18 Co    11.232798    7.933199   10.565472    ( 0.0000,  0.0000,  0.0000)
  19 Fe    13.711755    7.928211   10.595530    ( 0.0000,  0.0000,  2.0000)
  20 Al    17.465073   10.103493   10.559367    ( 0.0000,  0.0000,  2.1000)
  21 Ni     7.524528   10.087482   10.585491    ( 0.0000,  0.0000,  2.1000)
  22 Cr     9.999339   10.092837   10.628699    ( 0.0000,  0.0000,  2.1000)
  23 Co    12.492524   10.103136   10.590364    ( 0.0000,  0.0000,  1.5000)
  24 Co    14.967562   10.103591   10.598553    ( 0.0000,  0.0000,  1.5000)
  25 Ni     0.039549    0.061487   12.592509    ( 0.0000,  0.0000,  0.0000)
  26 Cr     2.543839    0.004196   12.633574    ( 0.0000,  0.0000,  2.1000)
  27 Cr     5.007959    0.016292   12.619485    ( 0.0000,  0.0000,  1.5000)
  28 Al    13.725047   10.821613   12.614847    ( 0.0000,  0.0000,  1.5000)
  29 Fe     9.941746    0.020015   12.634836    ( 0.0000,  0.0000,  2.1000)
  30 Ni     1.280557    2.197634   12.622449    ( 0.0000,  0.0000,  2.0000)
  31 Fe     3.757003    2.159238   12.617870    ( 0.0000,  0.0000,  0.0000)
  32 Fe     6.259391    2.150539   12.632283    ( 0.0000,  0.0000,  0.0000)
  33 Co     8.729061    2.160536   12.640942    ( 0.0000,  0.0000,  1.5000)
  34 Ni    11.206426    2.199527   12.600112    ( 0.0000,  0.0000,  0.0000)
  35 Fe    14.980028    4.321894   12.623066    ( 0.0000,  0.0000,  1.5000)
  36 Al     5.000637    4.306532   12.605865    ( 0.0000,  0.0000,  0.0000)
  37 Cr     7.511972    4.316766   12.613115    ( 0.0000,  0.0000,  2.0000)
  38 Fe     9.977581    4.334444   12.603575    ( 0.0000,  0.0000,  2.0000)
  39 Fe    12.466237    4.352219   12.609857    ( 0.0000,  0.0000,  0.0000)
  40 Ni    16.217374    6.438246   12.562775    ( 0.0000,  0.0000,  2.1000)
  41 Co     6.249088    6.441384   12.586551    ( 0.0000,  0.0000,  2.1000)
  42 Fe     8.734867    6.480104   12.598380    ( 0.0000,  0.0000,  2.1000)
  43 Fe    11.217541    6.497393   12.580210    ( 0.0000,  0.0000,  1.5000)
  44 Ni    13.747589    6.470530   12.591629    ( 0.0000,  0.0000,  0.0000)
  45 Fe     4.965631    8.600697   12.619661    ( 0.0000,  0.0000,  0.0000)
  46 Cr     7.527050    8.647229   12.603517    ( 0.0000,  0.0000,  2.0000)
  47 Fe     9.992787    8.639093   12.602137    ( 0.0000,  0.0000,  0.0000)
  48 Ni    12.461146    8.678950   12.599202    ( 0.0000,  0.0000,  2.1000)
  49 Fe    14.923147    8.662851   12.605102    ( 0.0000,  0.0000,  0.0000)
  50 Co     1.264555    0.726556   14.701676    ( 0.0000,  0.0000,  2.1000)
  51 Cr     3.750060    0.743838   14.683888    ( 0.0000,  0.0000,  1.5000)
  52 Cr     6.237655    0.730758   14.677812    ( 0.0000,  0.0000,  2.1000)
  53 Fe     8.726659    0.737641   14.712772    ( 0.0000,  0.0000,  2.0000)
  54 Cr    11.216460    0.725550   14.709367    ( 0.0000,  0.0000,  2.1000)
  55 Fe     2.513395    2.883675   14.691579    ( 0.0000,  0.0000,  1.5000)
  56 Co     4.990849    2.893120   14.684241    ( 0.0000,  0.0000,  2.0000)
  57 Cr     7.488486    2.893629   14.696334    ( 0.0000,  0.0000,  0.0000)
  58 Ni     9.972278    2.890664   14.692489    ( 0.0000,  0.0000,  2.0000)
  59 Co    12.467576    2.877141   14.691667    ( 0.0000,  0.0000,  0.0000)
  60 Ni     3.758526    5.050346   14.670151    ( 0.0000,  0.0000,  2.0000)
  61 Fe     6.246120    5.038056   14.669564    ( 0.0000,  0.0000,  1.5000)
  62 Fe     8.732126    5.049902   14.667773    ( 0.0000,  0.0000,  1.5000)
  63 Ni    11.205583    5.023028   14.695277    ( 0.0000,  0.0000,  1.5000)
  64 Ni    13.756582    5.017781   14.684505    ( 0.0000,  0.0000,  2.0000)
  65 Ni     5.010694    7.182699   14.702674    ( 0.0000,  0.0000,  1.5000)
  66 Co     7.485228    7.189460   14.657588    ( 0.0000,  0.0000,  0.0000)
  67 Fe     9.946463    7.198159   14.653068    ( 0.0000,  0.0000,  2.1000)
  68 Co    12.473405    7.201264   14.677166    ( 0.0000,  0.0000,  0.0000)
  69 Ni    15.017763    7.213900   14.645054    ( 0.0000,  0.0000,  2.1000)
  70 Co     6.251064    9.372532   14.712302    ( 0.0000,  0.0000,  2.1000)
  71 Ni     8.729758    9.372705   14.658410    ( 0.0000,  0.0000,  0.0000)
  72 Fe    11.200962    9.406124   14.647901    ( 0.0000,  0.0000,  1.5000)
  73 Fe    13.749704    9.394894   14.665366    ( 0.0000,  0.0000,  2.0000)
  74 Ni    16.223386    9.399309   14.720785    ( 0.0000,  0.0000,  1.5000)
  75 Cr    12.479408    1.425961   16.738106    ( 0.0000,  0.0000,  1.5000)
  76 Fe     2.490684    1.454436   16.739222    ( 0.0000,  0.0000,  1.5000)
  77 Ni     4.964072    1.458060   16.748615    ( 0.0000,  0.0000,  2.0000)
  78 Ni     7.493576    1.474137   16.738664    ( 0.0000,  0.0000,  1.5000)
  79 Fe     9.990724    1.450314   16.751932    ( 0.0000,  0.0000,  2.0000)
  80 Ni    13.736871    3.597619   16.749671    ( 0.0000,  0.0000,  2.1000)
  81 Fe     3.731782    3.620695   16.737637    ( 0.0000,  0.0000,  2.0000)
  82 Ni     6.217757    3.600962   16.741893    ( 0.0000,  0.0000,  0.0000)
  83 Cr     8.739843    3.608427   16.720025    ( 0.0000,  0.0000,  2.1000)
  84 Fe    11.236517    3.591755   16.778291    ( 0.0000,  0.0000,  2.0000)
  85 Ni    14.987780    5.779273   16.714506    ( 0.0000,  0.0000,  0.0000)
  86 Co     4.996827    5.757928   16.729565    ( 0.0000,  0.0000,  1.5000)
  87 Fe     7.493878    5.760427   16.738488    ( 0.0000,  0.0000,  2.0000)
  88 Co     9.975457    5.766269   16.736932    ( 0.0000,  0.0000,  2.0000)
  89 Cr    12.478104    5.731140   16.775473    ( 0.0000,  0.0000,  1.5000)
  90 Ni    16.238159    7.937775   16.730328    ( 0.0000,  0.0000,  2.0000)
  91 Ni     6.231444    7.940404   16.765522    ( 0.0000,  0.0000,  0.0000)
  92 Cr     8.728840    7.936931   16.735611    ( 0.0000,  0.0000,  0.0000)
  93 Fe    11.192557    7.913866   16.746149    ( 0.0000,  0.0000,  0.0000)
  94 Cr    13.768802    7.904897   16.753722    ( 0.0000,  0.0000,  1.5000)
  95 Cr    17.466742   10.100767   16.763996    ( 0.0000,  0.0000,  2.0000)
  96 Fe     7.483726   10.114128   16.752695    ( 0.0000,  0.0000,  0.0000)
  97 Co     9.946168   10.127316   16.729242    ( 0.0000,  0.0000,  0.0000)
  98 Fe    12.492406   10.089342   16.764671    ( 0.0000,  0.0000,  0.0000)
  99 Al    15.005292   10.118575   16.753076    ( 0.0000,  0.0000,  2.0000)
 100 Cr     6.250979   10.817826   18.755486    ( 0.0000,  0.0000,  2.1000)
 101 Cr     2.491992    0.007607   18.757365    ( 0.0000,  0.0000,  2.0000)
 102 Co     4.959039    0.011376   18.813253    ( 0.0000,  0.0000,  1.5000)
 103 Co     7.505721    0.033872   18.830425    ( 0.0000,  0.0000,  0.0000)
 104 Cr    16.226478   10.816744   18.766934    ( 0.0000,  0.0000,  1.5000)
 105 Ni     1.262456    2.149912   18.735438    ( 0.0000,  0.0000,  2.1000)
 106 Co     3.733330    2.172036   18.731769    ( 0.0000,  0.0000,  2.1000)
 107 Co     6.235561    2.176310   18.762208    ( 0.0000,  0.0000,  0.0000)
 108 Co     8.740232    2.176277   18.742160    ( 0.0000,  0.0000,  2.0000)
 109 Co    11.216255    2.130427   18.758333    ( 0.0000,  0.0000,  1.5000)
 110 Co     2.521812    4.343315   18.747649    ( 0.0000,  0.0000,  2.1000)
 111 Cr     4.991012    4.329273   18.757688    ( 0.0000,  0.0000,  0.0000)
 112 Cr     7.490880    4.334898   18.725399    ( 0.0000,  0.0000,  2.1000)
 113 Fe     9.943770    4.322230   18.730184    ( 0.0000,  0.0000,  2.0000)
 114 Al    12.464525    4.326265   18.943816    ( 0.0000,  0.0000,  0.0000)
 115 Co    16.224051    6.495359   18.723022    ( 0.0000,  0.0000,  2.0000)
 116 Co     6.226814    6.495348   18.761650    ( 0.0000,  0.0000,  0.0000)
 117 Ni     8.730619    6.495759   18.735203    ( 0.0000,  0.0000,  1.5000)
 118 Cr    11.207915    6.503819   18.742835    ( 0.0000,  0.0000,  2.1000)
 119 Cr    13.765796    6.524169   18.782109    ( 0.0000,  0.0000,  0.0000)
 120 Ni    17.450702    8.660601   18.763558    ( 0.0000,  0.0000,  0.0000)
 121 Ni     7.490686    8.670024   18.761621    ( 0.0000,  0.0000,  1.5000)
 122 Co     9.981419    8.673010   18.727630    ( 0.0000,  0.0000,  2.1000)
 123 Ni    12.489241    8.635804   18.838438    ( 0.0000,  0.0000,  0.0000)
 124 Cr    14.988874    8.667774   18.729832    ( 0.0000,  0.0000,  2.1000)

Unit cell:
           periodic     x           y           z      points  spacing
  1. axis:    yes   12.474800    0.000000    0.000000    54     0.2001
  2. axis:    yes    6.246240   10.818800    0.000000    54     0.2003
  3. axis:    no     0.000000    0.000000   29.353100   128     0.2293

  Lengths:  12.474800  12.492476  29.353100
  Angles:   90.000000  90.000000  59.999988

Effective grid spacing dv^(1/3) = 0.2198

     iter     time        total  log10-change:  magmom
                         energy  eigst   dens
iter:   1 12:35:40 -1056.954559                  +165.5126
iter:   2 12:39:07 -2125.709136  +0.42  -1.21    +130.7287
iter:   3 12:42:34 -1407.849073  +0.46  -0.80    +102.8270
iter:   4 12:46:01 -1075.649136  -0.70  -0.99    +68.6894
iter:   5 12:49:28 -1007.635594  -1.32  -1.23    +54.9540
iter:   6 12:52:55  -996.396638  -1.78  -1.33    +48.6218
iter:   7 12:56:34  -992.985711  -1.85  -1.35    +45.5363
iter:   8 13:00:44 -1667.714981  -0.57  -1.37    +46.0943
iter:   9 13:04:10  -999.088190  -0.72  -0.87    +43.7320
iter:  10 13:07:37  -980.351180  -1.62  -1.36    +41.9954
iter:  11 13:11:04  -969.147759  -1.82  -1.44    +42.6225
iter:  12 13:14:29 -1012.769853  -1.57  -1.54    +43.0965
iter:  13 13:17:56  -990.373853  -1.58  -1.35    +44.1451
iter:  14 13:21:24  -973.417622  -1.60  -1.44    +43.3490
iter:  15 13:24:50  -978.739789  -1.69  -1.64    +42.1869
iter:  16 13:28:18  -994.958229  -1.68  -1.55    +42.7224
iter:  17 13:32:40  -963.753277  -2.05  -1.46    +42.9301
iter:  18 13:36:07  -974.073882  -2.24  -1.75    +44.7514
iter:  19 13:39:33  -966.345306  -2.22  -1.62    +45.5591
iter:  20 13:42:59  -964.056398  -2.46  -1.74    +47.2103
iter:  21 13:46:27  -965.495440  -2.37  -1.80    +49.7512
iter:  22 13:49:53  -964.719264  -2.46  -1.82    +50.8740
iter:  23 13:53:19  -966.984605  -2.58  -1.81    +54.0016
iter:  24 13:57:01  -966.729518  -2.66  -1.79    +55.3274
iter:  25 14:01:03  -972.330347  -2.34  -1.84    +57.4512
iter:  26 14:04:30  -967.880821  -2.37  -1.72    +58.7735
iter:  27 14:07:57  -966.021680  -2.61  -1.88    +60.2619
iter:  28 14:11:24  -974.122147  -2.21  -1.98    +62.4819
iter:  29 14:14:50  -966.815298  -2.48  -1.75    +62.4130
iter:  30 14:18:17  -967.982646  -2.78  -1.96    +64.3653
iter:  31 14:21:43  -966.628159  -2.81  -1.92    +65.1639
iter:  32 14:25:09  -965.508491  -3.32  -2.01    +66.1652
iter:  33 14:28:34  -965.750611  -3.30  -2.13    +68.3039
iter:  34 14:32:00  -966.485806  -3.40  -2.16    +69.2700
iter:  35 14:35:26  -967.675550  -2.88  -2.14    +70.3150
iter:  36 14:39:24  -968.652081  -2.87  -2.08    +70.7481
iter:  37 14:43:09  -973.992850  -2.52  -2.02    +71.1962
iter:  38 14:46:36  -967.685958  -2.75  -1.81    +71.3704
iter:  39 14:50:02  -967.696778  -2.83  -2.22    +71.5349
iter:  40 14:53:28  -967.146720  -3.35  -2.19    +72.3326
iter:  41 14:56:54  -967.304337  -3.55  -2.34    +72.7452
iter:  42 15:00:21  -967.319577  -3.82  -2.35    +73.3115
iter:  43 15:03:47  -967.557781  -3.84  -2.40    +73.6915
iter:  44 15:08:05  -967.840069  -3.50  -2.38    +74.0502
iter:  45 15:11:32  -968.086613  -3.41  -2.37    +74.0634
iter:  46 15:14:58  -968.060626  -3.33  -2.39    +74.0313
iter:  47 15:18:25  -968.056376c -3.41  -2.45    +74.3756
iter:  48 15:21:52  -968.230667  -3.42  -2.56    +74.3404
iter:  49 15:25:18  -968.561791  -3.49  -2.50    +74.3749
iter:  50 15:28:44  -968.053640  -3.74  -2.34    +74.5237
iter:  51 15:32:11  -968.045857  -4.09  -2.71    +74.7194
iter:  52 15:35:39  -968.105201c -4.15  -2.82    +74.9693
iter:  53 15:39:05  -968.291005  -3.72  -2.82    +75.3397
iter:  54 15:42:32  -968.227863  -4.09  -2.64    +75.1965
iter:  55 15:46:50  -968.422582  -4.08  -2.70    +75.2741
iter:  56 15:50:17  -968.283031  -4.73  -2.53    +75.2376
iter:  57 15:53:43  -968.344721  -4.40  -2.67    +75.3109
iter:  58 15:57:10  -968.415074  -3.70  -2.65    +75.2958
iter:  59 16:00:36  -968.275188  -4.08  -2.56    +75.3477
iter:  60 16:04:03  -968.300100  -4.19  -2.75    +75.4146
iter:  61 16:07:28  -968.280060c -4.55  -2.75    +75.4228
iter:  62 16:11:08  -968.349054c -4.48  -2.79    +75.4901
iter:  63 16:15:17  -968.312807c -4.55  -2.71    +75.5124
iter:  64 16:18:43  -968.368213c -4.27  -2.80    +75.5813
iter:  65 16:22:09  -968.466939  -3.88  -2.75    +75.5675
iter:  66 16:25:35  -968.352549c -4.04  -2.66    +75.5818
iter:  67 16:29:01  -968.422934c -4.04  -2.90    +75.6690
iter:  68 16:32:28  -968.517820  -4.01  -2.75    +75.6718
iter:  69 16:35:55  -968.366430  -4.29  -2.63    +75.7087
iter:  70 16:40:04  -968.363122  -4.70  -2.97    +75.7117
iter:  71 16:43:40  -968.363193c -5.24  -3.07    +75.7408
iter:  72 16:47:07  -968.381403c -4.83  -3.14    +75.7788
iter:  73 16:50:33  -968.388664c -5.07  -3.14    +75.8259
iter:  74 16:54:00  -968.439701c -4.35  -3.16    +75.8512
iter:  75 16:57:27  -968.404436c -5.10  -2.98    +75.8574
iter:  76 17:00:53  -968.425309c -4.85  -3.20    +75.8784
iter:  77 17:04:35  -968.426343c -4.66  -3.13    +75.8726
iter:  78 17:08:38  -968.424974c -4.89  -3.17    +75.8490
iter:  79 17:12:04  -968.424184c -5.14  -3.26    +75.8596
iter:  80 17:15:31  -968.434042c -4.86  -3.40    +75.8403
iter:  81 17:18:57  -968.432872c -5.19  -3.23    +75.8356
iter:  82 17:22:23  -968.429060c -5.46  -3.28    +75.8266
iter:  83 17:25:49  -968.432177c -5.53  -3.55    +75.8383
iter:  84 17:29:27  -968.438884c -4.95  -3.57    +75.8238
iter:  85 17:33:40  -968.447917c -4.75  -3.55    +75.8120
iter:  86 17:37:06  -968.443834c -5.44  -3.38    +75.8145
iter:  87 17:40:32  -968.448442c -5.33  -3.43    +75.7951
iter:  88 17:43:59  -968.457758c -5.40  -3.37    +75.8092
iter:  89 17:47:26  -968.455082c -5.17  -3.17    +75.8077
iter:  90 17:50:51  -968.496610c -4.60  -3.25    +75.7798
iter:  91 17:54:18  -968.451397c -4.94  -2.91    +75.7928
iter:  92 17:58:35  -968.462099c -4.73  -3.35    +75.7752
iter:  93 18:02:04  -968.449073c -5.08  -3.17    +75.7707
iter:  94 18:05:30  -968.454668c -5.43  -3.41    +75.7766
iter:  95 18:08:56  -968.449491c -5.89  -3.29    +75.7752
iter:  96 18:12:22  -968.467026c -4.94  -3.45    +75.7808
iter:  97 18:15:49  -968.448895c -5.28  -3.08    +75.7559
iter:  98 18:19:16  -968.448261c -5.68  -3.52    +75.7297
iter:  99 18:22:42  -968.454474c -5.41  -3.62    +75.7249
iter: 100 18:26:08  -968.453491c -5.22  -3.32    +75.7127
iter: 101 18:30:06  -968.447102c -5.70  -3.29    +75.6881
iter: 102 18:33:57  -968.449328c -5.94  -3.76    +75.6662
iter: 103 18:37:24  -968.447895c -6.06  -3.60    +75.6715
iter: 104 18:40:51  -968.447543c -6.44  -3.68    +75.6632
iter: 105 18:44:17  -968.448960c -6.05  -3.80    +75.6404
iter: 106 18:47:44  -968.454450c -5.59  -3.65    +75.6405
iter: 107 18:51:10  -968.449233c -5.61  -3.39    +75.6221
iter: 108 18:54:37  -968.449645c -5.81  -3.65    +75.6123
iter: 109 18:58:56  -968.451002c -5.68  -3.61    +75.5979
iter: 110 19:02:23  -968.449773c -5.91  -3.61    +75.5984
iter: 111 19:05:49  -968.449410c -6.41  -3.89    +75.5936
iter: 112 19:09:16  -968.449725c -6.35  -4.04c   +75.5774
iter: 113 19:12:42  -968.449812c -6.75  -3.85    +75.5749
iter: 114 19:16:58  -968.450037c -6.66  -4.09c   +75.5610
iter: 115 19:20:28  -968.450986c -6.09  -4.11c   +75.5395
iter: 116 19:23:54  -968.450333c -6.68  -3.91    +75.5434
iter: 117 19:27:21  -968.450824c -6.50  -4.19c   +75.5280
iter: 118 19:30:47  -968.451061c -6.60  -4.28c   +75.5222
iter: 119 19:34:13  -968.451058c -6.77  -4.21c   +75.5173
iter: 120 19:37:39  -968.451541c -6.61  -4.27c   +75.5055
iter: 121 19:41:04  -968.451432c -6.98  -4.12c   +75.4985
iter: 122 19:45:16  -968.451783c -6.76  -4.44c   +75.4844
iter: 123 19:48:51  -968.450218c -5.40  -4.32c   +75.5635
iter: 124 19:52:18  -968.449934c -6.45  -4.26c   +75.5766
iter: 125 19:55:43  -968.450274c -6.95  -4.39c   +75.5611
iter: 126 19:59:09  -968.450060c -7.05  -4.53c   +75.5718
iter: 127 20:02:34  -968.450264c -6.90  -4.46c   +75.5568
iter: 128 20:06:00  -968.450227c -7.96c -4.48c   +75.5613

Converged after 128 iterations.

Dipole moment: (45.774269, 22.575548, -0.018733) |e|*Ang

Total magnetic moment: (0.000000, 0.000000, 75.561329)
Local magnetic moments:
   0 Co ( 0.000000,  0.000000,  1.303906)
   1 Cr ( 0.000000,  0.000000,  1.659870)
   2 Co ( 0.000000,  0.000000,  0.757026)
   3 Cr ( 0.000000,  0.000000,  1.380088)
   4 Cr ( 0.000000,  0.000000, -2.421736)
   5 Ni ( 0.000000,  0.000000,  0.294265)
   6 Co ( 0.000000,  0.000000,  1.215584)
   7 Fe ( 0.000000,  0.000000,  1.971934)
   8 Ni ( 0.000000,  0.000000,  0.152003)
   9 Co ( 0.000000,  0.000000,  1.237488)
  10 Cr ( 0.000000,  0.000000, -2.465539)
  11 Fe ( 0.000000,  0.000000,  2.752998)
  12 Cr ( 0.000000,  0.000000, -2.105078)
  13 Al ( 0.000000,  0.000000, -0.023888)
  14 Cr ( 0.000000,  0.000000, -2.254181)
  15 Ni ( 0.000000,  0.000000,  0.437655)
  16 Co ( 0.000000,  0.000000,  1.041374)
  17 Cr ( 0.000000,  0.000000,  1.567214)
  18 Co ( 0.000000,  0.000000,  1.155253)
  19 Fe ( 0.000000,  0.000000,  2.449630)
  20 Al ( 0.000000,  0.000000, -0.037266)
  21 Ni ( 0.000000,  0.000000,  0.073412)
  22 Cr ( 0.000000,  0.000000, -1.841581)
  23 Co ( 0.000000,  0.000000,  0.983842)
  24 Co ( 0.000000,  0.000000,  1.139490)
  25 Ni ( 0.000000,  0.000000,  0.323458)
  26 Cr ( 0.000000,  0.000000,  0.095562)
  27 Cr ( 0.000000,  0.000000,  0.010243)
  28 Al ( 0.000000,  0.000000, -0.041517)
  29 Fe ( 0.000000,  0.000000,  2.100003)
  30 Ni ( 0.000000,  0.000000,  0.471905)
  31 Fe ( 0.000000,  0.000000, -0.803175)
  32 Fe ( 0.000000,  0.000000,  1.236505)
  33 Co ( 0.000000,  0.000000,  0.672552)
  34 Ni ( 0.000000,  0.000000,  0.375701)
  35 Fe ( 0.000000,  0.000000,  2.379338)
  36 Al ( 0.000000,  0.000000, -0.046124)
  37 Cr ( 0.000000,  0.000000, -0.821047)
  38 Fe ( 0.000000,  0.000000,  2.217127)
  39 Fe ( 0.000000,  0.000000,  2.462885)
  40 Ni ( 0.000000,  0.000000,  0.430807)
  41 Co ( 0.000000,  0.000000,  1.036995)
  42 Fe ( 0.000000,  0.000000,  1.490131)
  43 Fe ( 0.000000,  0.000000,  2.184591)
  44 Ni ( 0.000000,  0.000000,  0.360866)
  45 Fe ( 0.000000,  0.000000,  2.529479)
  46 Cr ( 0.000000,  0.000000, -1.241255)
  47 Fe ( 0.000000,  0.000000,  1.449959)
  48 Ni ( 0.000000,  0.000000,  0.454104)
  49 Fe ( 0.000000,  0.000000,  2.447741)
  50 Co ( 0.000000,  0.000000,  0.791547)
  51 Cr ( 0.000000,  0.000000, -0.651569)
  52 Cr ( 0.000000,  0.000000, -1.010711)
  53 Fe ( 0.000000,  0.000000,  1.760110)
  54 Cr ( 0.000000,  0.000000, -1.311539)
  55 Fe ( 0.000000,  0.000000,  2.337098)
  56 Co ( 0.000000,  0.000000,  0.812370)
  57 Cr ( 0.000000,  0.000000, -0.867895)
  58 Ni ( 0.000000,  0.000000,  0.233417)
  59 Co ( 0.000000,  0.000000,  1.350740)
  60 Ni ( 0.000000,  0.000000,  0.445364)
  61 Fe ( 0.000000,  0.000000,  2.105763)
  62 Fe ( 0.000000,  0.000000,  1.886446)
  63 Ni ( 0.000000,  0.000000,  0.466220)
  64 Ni ( 0.000000,  0.000000,  0.526181)
  65 Ni ( 0.000000,  0.000000,  0.573033)
  66 Co ( 0.000000,  0.000000,  1.298643)
  67 Fe ( 0.000000,  0.000000,  2.174967)
  68 Co ( 0.000000,  0.000000,  1.419697)
  69 Ni ( 0.000000,  0.000000,  0.512282)
  70 Co ( 0.000000,  0.000000,  1.260748)
  71 Ni ( 0.000000,  0.000000,  0.265155)
  72 Fe ( 0.000000,  0.000000,  2.064946)
  73 Fe ( 0.000000,  0.000000,  1.879655)
  74 Ni ( 0.000000,  0.000000,  0.253489)
  75 Cr ( 0.000000,  0.000000, -1.044156)
  76 Fe ( 0.000000,  0.000000,  2.106828)
  77 Ni ( 0.000000,  0.000000,  0.481384)
  78 Ni ( 0.000000,  0.000000,  0.279247)
  79 Fe ( 0.000000,  0.000000,  1.673362)
  80 Ni ( 0.000000,  0.000000,  0.427526)
  81 Fe ( 0.000000,  0.000000,  2.397961)
  82 Ni ( 0.000000,  0.000000,  0.213697)
  83 Cr ( 0.000000,  0.000000, -0.371096)
  84 Fe ( 0.000000,  0.000000,  2.034448)
  85 Ni ( 0.000000,  0.000000,  0.345972)
  86 Co ( 0.000000,  0.000000,  1.429805)
  87 Fe ( 0.000000,  0.000000,  2.180602)
  88 Co ( 0.000000,  0.000000,  1.070963)
  89 Cr ( 0.000000,  0.000000,  1.214992)
  90 Ni ( 0.000000,  0.000000,  0.261451)
  91 Ni ( 0.000000,  0.000000,  0.393096)
  92 Cr ( 0.000000,  0.000000, -1.770935)
  93 Fe ( 0.000000,  0.000000,  2.120457)
  94 Cr ( 0.000000,  0.000000, -1.515679)
  95 Cr ( 0.000000,  0.000000,  0.309927)
  96 Fe ( 0.000000,  0.000000,  1.941912)
  97 Co ( 0.000000,  0.000000,  1.283500)
  98 Fe ( 0.000000,  0.000000,  2.421592)
  99 Al ( 0.000000,  0.000000, -0.031121)
 100 Cr ( 0.000000,  0.000000,  1.507149)
 101 Cr ( 0.000000,  0.000000, -2.365226)
 102 Co ( 0.000000,  0.000000,  1.612307)
 103 Co ( 0.000000,  0.000000,  1.336187)
 104 Cr ( 0.000000,  0.000000, -2.010067)
 105 Ni ( 0.000000,  0.000000,  0.277122)
 106 Co ( 0.000000,  0.000000,  1.443317)
 107 Co ( 0.000000,  0.000000,  1.409978)
 108 Co ( 0.000000,  0.000000,  1.211874)
 109 Co ( 0.000000,  0.000000,  0.928843)
 110 Co ( 0.000000,  0.000000,  1.374007)
 111 Cr ( 0.000000,  0.000000, -2.458821)
 112 Cr ( 0.000000,  0.000000, -2.047047)
 113 Fe ( 0.000000,  0.000000,  2.249275)
 114 Al ( 0.000000,  0.000000, -0.018453)
 115 Co ( 0.000000,  0.000000,  1.328247)
 116 Co ( 0.000000,  0.000000,  1.320301)
 117 Ni ( 0.000000,  0.000000,  0.343025)
 118 Cr ( 0.000000,  0.000000, -1.990497)
 119 Cr ( 0.000000,  0.000000, -1.821971)
 120 Ni ( 0.000000,  0.000000,  0.195658)
 121 Ni ( 0.000000,  0.000000,  0.232289)
 122 Co ( 0.000000,  0.000000,  1.413528)
 123 Ni ( 0.000000,  0.000000,  0.193711)
 124 Cr ( 0.000000,  0.000000,  1.797893)

Energy contributions relative to reference atoms: (reference = -4275894.041763)

Kinetic:       +292.198612
Potential:     -324.507895
External:        +0.000000
XC:            -976.076821
Entropy (-ST):   -5.610504
Local:          +42.741129
--------------------------
Free energy:   -971.255478
Extrapolated:  -968.450227

Dipole-layer corrected work functions: 4.923850, 4.948965 eV

Spin contamination: 42.328185 electrons
Showing all kpts
                      Up                     Down
 Kpt  Band  Eigenvalues  Occupancy  Eigenvalues  Occupancy
  0   587     -0.06016    0.99608      0.83410    0.03214
  0   588     -0.04070    0.99524      0.84853    0.02794
  0   589     -0.03002    0.99471      0.85620    0.02593
  0   590     -0.01622    0.99393      0.86067    0.02483

  1   587     -0.03858    0.99514      0.83161    0.03292
  1   588     -0.02354    0.99436      0.83669    0.03134
  1   589     -0.01228    0.99369      0.84772    0.02816
  1   590     -0.00100    0.99294      0.85119    0.02723


Fermi level: 0.49360

No gap

Forces in eV/Ang:
  0 Co   -0.20314    0.29042    0.71149
  1 Cr    0.50033    0.21017   -0.08575
  2 Co   -0.10085   -0.05207    0.41683
  3 Cr   -0.32028    0.39961   -0.46446
  4 Cr   -0.28605    0.60765   -0.25961
  5 Ni   -0.18265    0.00881   -0.26275
  6 Co    0.35441    0.34820   -0.19686
  7 Fe   -0.09318    0.12502   -0.40798
  8 Ni   -0.08771   -0.03860   -0.23940
  9 Co    0.45900   -0.19708    0.28213
 10 Cr    1.11244   -0.30927   -0.10942
 11 Fe   -0.07597    0.28540    0.58723
 12 Cr   -1.17277    0.42094   -0.17824
 13 Al    0.17102   -0.37412   -1.66867
 14 Cr    0.02529   -0.12937   -0.09973
 15 Ni    0.27467   -0.19340    0.37099
 16 Co   -0.33639   -0.33462    0.32807
 17 Cr   -0.72837    0.49303   -0.24704
 18 Co    0.36257    0.24017    0.34603
 19 Fe   -0.11628    0.33560   -0.31738
 20 Al    0.76001   -0.71272   -0.79889
 21 Ni   -0.25965    0.00937   -0.10874
 22 Cr    0.28465    0.12504   -0.34792
 23 Co   -0.12690   -0.17816   -0.03347
 24 Co   -0.08717   -0.13156   -0.07325
 25 Ni   -0.34118   -0.30484    0.41858
 26 Cr    0.02546    0.53439    0.06371
 27 Cr   -0.87839    0.19199   -0.43042
 28 Al    0.45160   -0.18308   -0.01579
 29 Fe    0.47724   -0.09533    0.20690
 30 Ni   -0.33657   -0.29740    0.23198
 31 Fe   -0.15268   -1.08956   -0.10640
 32 Fe   -0.16942    0.13521   -0.04553
 33 Co    0.00520    0.17523    0.06998
 34 Ni    0.38967   -0.17588    0.12949
 35 Fe   -0.46981   -0.07896   -0.34010
 36 Al   -0.58573    0.33500    0.09053
 37 Cr    0.91148   -0.17837    0.00340
 38 Fe   -0.19238   -0.77685    0.56867
 39 Fe    0.08778   -0.27981    0.07656
 40 Ni    0.28369    0.48235   -0.17637
 41 Co    0.14064    0.44993   -0.19789
 42 Fe   -0.62262    0.15828    0.70135
 43 Fe    0.59862    0.58939    0.57059
 44 Ni   -0.26315    0.20523    0.49487
 45 Fe    0.36761    0.09941    0.38045
 46 Cr   -0.24856   -0.50271   -0.25131
 47 Fe    0.02744    0.17177    0.10166
 48 Ni   -0.02283   -0.40107    0.05802
 49 Fe    0.72717   -0.58256    0.09067
 50 Co   -0.34077   -0.06975   -0.33434
 51 Cr   -0.08843    0.03820    0.02402
 52 Cr   -0.55055    0.06759    0.71860
 53 Fe   -0.03613    0.29836   -0.31778
 54 Cr    0.34483   -0.13200   -0.43803
 55 Fe   -0.29466   -0.17096   -0.34278
 56 Co    0.04410   -0.36013    0.15613
 57 Cr    0.04418    0.08485   -0.29567
 58 Ni    0.17243   -0.05191   -0.08505
 59 Co    0.13413   -0.14821    0.15747
 60 Ni   -0.00300    0.07657    0.00255
 61 Fe    0.02119    0.19967    0.22736
 62 Fe    0.08776    0.04596    0.02658
 63 Ni    0.22223    0.19187   -0.06167
 64 Ni   -0.30005    0.35748   -0.15899
 65 Ni    0.13771    0.32484   -0.38327
 66 Co   -0.17159    0.20117   -0.09162
 67 Fe    0.14061   -0.00619    0.45835
 68 Co    0.04200    0.09979   -0.14944
 69 Ni   -0.42404   -0.01946    0.10768
 70 Co   -0.08963    0.22961   -0.41531
 71 Ni   -0.01709    0.08588    0.22895
 72 Fe    0.09914   -0.39482    0.06811
 73 Fe   -0.38831   -0.44138    0.15944
 74 Ni    0.15920   -0.34058   -0.44337
 75 Cr    0.04973    0.43359    0.42910
 76 Fe    0.09060   -0.22034    0.15481
 77 Ni    0.31537   -0.25501   -0.02684
 78 Ni   -0.20938   -0.12799    0.39303
 79 Fe    0.10039    0.65001    0.18300
 80 Ni   -0.22407    0.32633   -0.14933
 81 Fe    0.35147    0.13038    0.18384
 82 Ni   -0.00895    0.04886   -0.15019
 83 Cr    0.10776   -0.14064    0.04683
 84 Fe   -0.18644   -0.27911   -0.57771
 85 Ni    0.12255   -0.09786    0.36422
 86 Co    0.20159   -0.02038    0.33915
 87 Fe   -0.14200   -0.00704    0.20642
 88 Co   -0.07629    0.00779    0.04694
 89 Cr    0.16231    0.70362   -0.13516
 90 Ni   -0.06079   -0.28250   -0.06801
 91 Ni    0.11505   -0.09797   -0.36397
 92 Cr    0.15291    0.00922    0.16514
 93 Fe    0.20925    0.42758    0.20876
 94 Cr   -0.67220    0.19029   -0.50730
 95 Cr    0.98170   -0.56344    0.21666
 96 Fe    0.20266   -0.32294   -0.61836
 97 Co    0.60502   -0.20933    0.27339
 98 Fe   -0.46069    0.02294    0.40634
 99 Al   -0.87431    0.46549   -0.88562
100 Cr   -0.40184    0.29112    0.31192
101 Cr    0.00319    0.15423    0.10499
102 Co    0.39563    0.03883   -0.67051
103 Co   -0.50623    0.15578   -0.33500
104 Cr    0.53301    0.70448    0.69807
105 Ni   -0.12372    0.26326    0.27419
106 Co    0.14216   -0.04696    0.20052
107 Co    0.04669   -0.32689   -0.20180
108 Co   -0.26838   -0.01053   -0.11467
109 Co   -0.12984    0.05476   -0.10731
110 Co    0.16258   -0.01027   -0.17485
111 Cr   -0.94031    0.19231    0.19798
112 Cr    0.66309    0.03171    0.30168
113 Fe   -0.03048   -0.10629   -0.02290
114 Al    0.40983   -1.12802    0.73716
115 Co    0.15390   -0.21581   -0.28231
116 Co    0.02283   -0.10200   -0.27681
117 Ni   -0.09249    0.24768    0.09504
118 Cr   -0.26185    0.58504   -0.07953
119 Cr    0.35428   -0.35621    0.16220
120 Ni    0.34580   -0.32504   -0.01473
121 Ni   -0.01786   -0.41985    0.07093
122 Co   -0.05634   -0.14593   -0.07411
123 Ni   -0.18747    0.26472   -0.38291
124 Cr   -0.35129   -0.58661    0.80224

Timing:                              incl.     excl.
-----------------------------------------------------------
Forces:                             49.864    49.864   0.2% |
Hamiltonian:                         2.103     0.019   0.0% |
 Atomic:                             0.442     0.002   0.0% |
  XC Correction:                     0.441     0.441   0.0% |
 Calculate atomic Hamiltonians:      0.980     0.980   0.0% |
 Communicate:                        0.063     0.063   0.0% |
 Initialize Hamiltonian:             0.001     0.001   0.0% |
 Poisson:                            0.138     0.138   0.0% |
 XC 3D grid:                         0.461     0.461   0.0% |
LCAO initialization:               370.792     0.642   0.0% |
 LCAO eigensolver:                  24.771     0.030   0.0% |
  Calculate projections:             0.000     0.000   0.0% |
  DenseAtomicCorrection:             0.000     0.000   0.0% |
  Distribute overlap matrix:        13.031    13.031   0.0% |
  Orbital Layouts:                  11.641    11.641   0.0% |
  Potential matrix:                  0.005     0.005   0.0% |
  Sum over cells:                    0.064     0.064   0.0% |
 LCAO to grid:                     342.113   342.113   1.2% |
 Set positions (LCAO WFS):           3.265     2.857   0.0% |
  Basic WFS set positions:           0.004     0.004   0.0% |
  Basis functions set positions:     0.001     0.001   0.0% |
  P tci:                             0.000     0.000   0.0% |
  ST tci:                            0.177     0.177   0.0% |
  mktci:                             0.226     0.226   0.0% |
PWDescriptor:                        0.161     0.161   0.0% |
SCF-cycle:                       27241.358     1.754   0.0% |
 Davidson:                       26297.769  6953.600  25.1% |---------|
  Apply H:                         465.584   456.420   1.6% ||
   HMM T:                            9.165     9.165   0.0% |
  Subspace diag:                  2463.253     0.083   0.0% |
   calc_h_matrix:                 1055.111   632.096   2.3% ||
    Apply H:                       423.015   414.469   1.5% ||
     HMM T:                          8.546     8.546   0.0% |
   diagonalize:                    262.053   262.053   0.9% |
   rotate_psi:                    1146.007  1146.007   4.1% |-|
  calc. matrices:                 5843.055  5046.294  18.2% |------|
   Apply H:                        796.761   777.906   2.8% ||
    HMM T:                          18.855    18.855   0.1% |
  diagonalize:                    8127.481  8127.481  29.4% |-----------|
  rotate_psi:                     2444.795  2444.795   8.8% |---|
 Density:                          547.195     0.006   0.0% |
  Atomic density matrices:           4.958     4.958   0.0% |
  Mix:                             303.871   303.871   1.1% |
  Multipole moments:                 0.135     0.135   0.0% |
  Pseudo density:                  238.225   238.216   0.9% |
   Symmetrize density:               0.009     0.009   0.0% |
 Hamiltonian:                      373.186     2.128   0.0% |
  Atomic:                           56.121     0.214   0.0% |
   XC Correction:                   55.906    55.906   0.2% |
  Calculate atomic Hamiltonians:   239.709   239.709   0.9% |
  Communicate:                       9.492     9.492   0.0% |
  Poisson:                           6.765     6.765   0.0% |
  XC 3D grid:                       58.971    58.971   0.2% |
 Orthonormalize:                    21.454     0.001   0.0% |
  calc_s_matrix:                     2.693     2.693   0.0% |
  inverse-cholesky:                  1.214     1.214   0.0% |
  projections:                      12.908    12.908   0.0% |
  rotate_psi_s:                      4.637     4.637   0.0% |
Set symmetry:                        0.001     0.001   0.0% |
Other:                               8.966     8.966   0.0% |
-----------------------------------------------------------
Total:                                     27673.244 100.0%

Date: Thu Apr 20 20:06:55 2023
