
  ___ ___ ___ _ _ _  
 |   |   |_  | | | | 
 | | | | | . | | | | 
 |__ |  _|___|_____|  22.8.0
 |___|_|             

User:   c.zeng@d0139
Date:   Sat Apr 15 07:42:30 2023
Arch:   x86_64
Pid:    40612
CWD:    /home/c.zeng/projects/hea-corrosion/hea-mlp/data-curation/bulk-mcmc/dft-jobs/227
Python: 3.8.1
gpaw:   /home/c.zeng/usr/installs/gpaw/source/gpaw-22.8.0/gpaw
_gpaw:  /home/c.zeng/usr/installs/gpaw/source/gpaw-22.8.0/
        _gpaw.cpython-38-x86_64-linux-gnu.so
ase:    /home/c.zeng/.local/lib/python3.8/site-packages/ase-3.22.1-py3.8.egg/ase (version 3.22.1)
numpy:  /shared/centos7/python/3.8.1/lib/python3.8/site-packages/numpy (version 1.17.4)
scipy:  /shared/centos7/python/3.8.1/lib/python3.8/site-packages/scipy (version 1.4.1)
libxc:  4.2.3
units:  Angstrom and eV
cores: 30
OpenMP: False
OMP_NUM_THREADS: 1

Input parameters:
  convergence: {energy: 0.0001}
  kpts: [2 2 2]
  maxiter: 666
  mode: {ecut: 350.0,
         name: pw}
  occupations: {fixmagmom: False,
                name: fermi-dirac,
                width: 0.1}
  spinpol: True
  xc: PBE

System changes: positions, numbers, cell, pbc, initial_charges, initial_magmoms 

Initialize ...

species:
  Ni:
    name: Nickel
    id: 0d9f38a9d6e76a2886f07bb4381f212b
    Z: 28.0
    valence: 16
    core: 12
    charge: 0.0
    file: /home/c.zeng/usr/data/gpaw-setups-0.9.20000/Ni.PBE.gz
    compensation charges: {type: gauss,
                           rc: 0.36,
                           lmax: 2}
    cutoffs: {filter: 2.14,
              core: 1.98}
    valence states:
      #              energy  rcut
      - 4s(2.00)    -5.642   1.164
      - 3p(6.00)   -71.394   1.207
      - 4p(0.00)    -1.226   1.207
      - 3d(8.00)    -8.875   1.138
      -  s          21.570   1.164
      -  d          18.337   1.138
  
    # Using partial waves for Ni as LCAO basis

  Al:
    name: Aluminium
    id: 0292cae29f5d6237e50f6abdd43a7bdd
    Z: 13.0
    valence: 3
    core: 10
    charge: 0.0
    file: /home/c.zeng/usr/data/gpaw-setups-0.9.20000/Al.PBE.gz
    compensation charges: {type: gauss,
                           rc: 0.34,
                           lmax: 2}
    cutoffs: {filter: 1.91,
              core: 2.36}
    valence states:
      #              energy  rcut
      - 3s(2.00)    -7.753   1.085
      - 3p(1.00)    -2.712   1.085
      -  s          19.459   1.085
      -  p          24.499   1.085
      -  d           0.000   1.085
  
    # Using partial waves for Al as LCAO basis

  Co:
    name: Cobalt
    id: 339d20d5b0b93d2de9531a1bee871d91
    Z: 27.0
    valence: 9
    core: 18
    charge: 0.0
    file: /home/c.zeng/usr/data/gpaw-setups-0.9.20000/Co.PBE.gz
    compensation charges: {type: gauss,
                           rc: 0.32,
                           lmax: 2}
    cutoffs: {filter: 1.87,
              core: 2.55}
    valence states:
      #              energy  rcut
      - 4s(2.00)    -5.469   1.005
      - 4p(0.00)    -1.277   1.058
      - 3d(7.00)    -8.205   1.005
      -  s          21.742   1.005
      -  p          25.934   1.058
      -  d          19.007   1.005
  
    # Using partial waves for Co as LCAO basis

  Cr:
    name: Chromium
    id: 33f258bda2ca9f93018e70263a35547b
    Z: 24.0
    valence: 6
    core: 18
    charge: 0.0
    file: /home/c.zeng/usr/data/gpaw-setups-0.9.20000/Cr.PBE.gz
    compensation charges: {type: gauss,
                           rc: 0.35,
                           lmax: 2}
    cutoffs: {filter: 2.14,
              core: 3.04}
    valence states:
      #              energy  rcut
      - 4s(1.00)    -4.007   1.164
      - 4p(0.00)    -0.989   1.217
      - 3d(5.00)    -2.913   1.111
      -  s          23.205   1.164
      -  p          26.223   1.217
      -  d          24.299   1.111
  
    # Using partial waves for Cr as LCAO basis

  Fe:
    name: Iron
    id: 37abbd8d6c3c35915a9b583b742da910
    Z: 26.0
    valence: 8
    core: 18
    charge: 0.0
    file: /home/c.zeng/usr/data/gpaw-setups-0.9.20000/Fe.PBE.gz
    compensation charges: {type: gauss,
                           rc: 0.33,
                           lmax: 2}
    cutoffs: {filter: 2.06,
              core: 2.67}
    valence states:
      #              energy  rcut
      - 4s(2.00)    -5.291   1.164
      - 4p(0.00)    -1.326   1.058
      - 3d(6.00)    -7.505   1.058
      -  s          21.920   1.164
      -  p          25.885   1.058
      -  d          19.706   1.058
  
    # Using partial waves for Fe as LCAO basis

Reference energy: -3235165.067515  # eV

Spin-polarized calculation.
Magnetic moment: 121.100000

Convergence criteria:
 Maximum [total energy] change in last 3 cyles: 0.0001 eV / electron
 Maximum integral of absolute [dens]ity change: 0.0001 electrons / valence electron
 Maximum integral of absolute [eigenst]ate change: 4e-08 eV^2 / valence electron
 Maximum number of scf [iter]ations: 666
 (Square brackets indicate name in SCF output, whereas a 'c' in
 the SCF output indicates the quantity has converged.)

Symmetries present (total): 1

  ( 1  0  0)
  ( 0  1  0)
  ( 0  0  1)

8 k-points: 2 x 2 x 2 Monkhorst-Pack grid
4 k-points in the irreducible part of the Brillouin zone
       k-points in crystal coordinates                weights
   0:     0.25000000   -0.25000000   -0.25000000          2/8
   1:     0.25000000   -0.25000000    0.25000000          2/8
   2:     0.25000000    0.25000000   -0.25000000          2/8
   3:     0.25000000    0.25000000    0.25000000          2/8

Wave functions: Plane wave expansion
  Cutoff energy: 350.000 eV
  Number of coefficients (min, max): 19084, 19084
  Pulay-stress correction: 0.000000 eV/Ang^3 (de/decut=0.000000)
  Using FFTW library
  ScaLapack parameters: grid=1x1, blocksize=None
  Wavefunction extrapolation:
    Improved wavefunction reuse through dual PAW basis 

Occupation numbers: Fermi-Dirac:
  width: 0.1000  # eV
 

Eigensolver
   Davidson(niter=2) 

Densities:
  Coarse grid: 48*48*48 grid
  Fine grid: 96*96*96 grid
  Total Charge: 0.000000 

Density mixing:
  Method: difference
  Backend: pulay
  Linear mixing parameter: 0.05
  old densities: 5
  Damping of long wavelength oscillations: 50 

Hamiltonian:
  XC and Coulomb potentials evaluated on a 96*96*96 grid
  Using the PBE Exchange-Correlation functional
  External potential:
    NoExternalPotential
 

XC parameters: PBE with 2 nearest neighbor stencil

Memory estimate:
  Process memory now: 250.29 MiB
  Calculator: 986.43 MiB
    Density: 5.59 MiB
      Arrays: 2.05 MiB
      Localized functions: 2.72 MiB
      Mixer: 0.82 MiB
    Hamiltonian: 1.61 MiB
      Arrays: 1.52 MiB
      XC: 0.00 MiB
      Poisson: 0.00 MiB
      vbar: 0.08 MiB
    Wavefunctions: 979.23 MiB
      Arrays psit_nG: 726.83 MiB
      Eigensolver: 242.60 MiB
      Projections: 4.67 MiB
      Projectors: 0.74 MiB
      PW-descriptor: 4.39 MiB

Total number of cores used: 30
Parallelization over k-points: 2
Domain decomposition: 5 x 3 x 1

Number of atoms: 108
Number of atomic orbitals: 933
Number of bands in calculation: 624
Number of valence electrons: 912
Bands to converge: occupied

... initialized

Initializing position-dependent things.

Density initialized from atomic densities
Creating initial wave functions:
  624 bands from LCAO basis set

        .--------Al----------------.  
       /|           Fe             |  
      / |    FeFe     Ni           |  
     / Cr       Ni       Al        |  
    /   |Fe      CrCo       Fe     |  
   /    | CrNi      ACo            |  
  /    Co  FeiAlAl    Co Fe  CoAl  |  
 *      Fe     AlCoAl   NiFe     Cr|  
 |      |FeCr   NiFeFe   AlCrNi   Co  
 |      | CoNi   AlCoCoAl CrNiFe   |  
 |     Fe  Al CoCo  NiCr Cr  CrCr  |  
 |      Cr  Ni CrNiCo CoNiCoAl   Fe|  
 |      |CrCo   CoAlAl   CoNiFe   Fe  
 |      .-FeNi-----NiCr-Al--NiFe---.  
 |     Al  Cr CoCr    Al Co  Cr Cr/   
 |    / Co              Ni       Cr   
 |   /           Alr      NiFe  /     
 |  /      Cr       Fe     NiAl/      
 | /                   Fe     /i      
 |/                          /        
 *--------------------------Ni        

Positions:
   0 Ni    10.797848    0.093654    0.085777    ( 0.0000,  0.0000,  0.0000)
   1 Al    10.831824    1.844742    1.870716    ( 0.0000,  0.0000,  2.0000)
   2 Ni     1.786803   10.847372    1.827335    ( 0.0000,  0.0000,  0.0000)
   3 Co     1.769614    1.870531   -0.031264    ( 0.0000,  0.0000,  0.0000)
   4 Al     3.620857   10.822050   10.833629    ( 0.0000,  0.0000,  1.5000)
   5 Cr     3.571246    1.883176    1.708402    ( 0.0000,  0.0000,  0.0000)
   6 Co     5.521103   10.788063    1.666217    ( 0.0000,  0.0000,  0.0000)
   7 Al     5.520831    1.813973   10.830911    ( 0.0000,  0.0000,  1.5000)
   8 Al     7.330846    0.011025   10.815657    ( 0.0000,  0.0000,  2.0000)
   9 Fe     7.282018    1.809483    1.793250    ( 0.0000,  0.0000,  2.1000)
  10 Fe     9.029996    0.022005    1.811918    ( 0.0000,  0.0000,  1.5000)
  11 Fe     9.007196    1.868639   10.825714    ( 0.0000,  0.0000,  2.0000)
  12 Ni    10.861310    3.649723    0.014171    ( 0.0000,  0.0000,  2.0000)
  13 Cr    10.867442    5.463468    1.819235    ( 0.0000,  0.0000,  2.1000)
  14 Co     1.756088    3.650267    1.845949    ( 0.0000,  0.0000,  0.0000)
  15 Fe     1.790358    5.439092   10.869084    ( 0.0000,  0.0000,  2.1000)
  16 Ni     3.687842    3.622792   -0.049287    ( 0.0000,  0.0000,  2.0000)
  17 Co     3.667347    5.391145    1.745368    ( 0.0000,  0.0000,  0.0000)
  18 Al     5.497977    3.634415    1.792370    ( 0.0000,  0.0000,  2.0000)
  19 Cr     5.524908    5.448029    0.002551    ( 0.0000,  0.0000,  2.0000)
  20 Co     7.223340    3.611877   10.834270    ( 0.0000,  0.0000,  0.0000)
  21 Al     7.217762    5.474830    1.807776    ( 0.0000,  0.0000,  2.1000)
  22 Ni     9.073442    3.654344    1.775148    ( 0.0000,  0.0000,  0.0000)
  23 Ni     9.008740    5.418608    0.007692    ( 0.0000,  0.0000,  2.0000)
  24 Cr    10.859190    7.178720    0.014480    ( 0.0000,  0.0000,  1.5000)
  25 Fe    -0.018106    8.970948    1.875391    ( 0.0000,  0.0000,  0.0000)
  26 Fe     1.817615    7.224025    1.802546    ( 0.0000,  0.0000,  1.5000)
  27 Cr     1.880729    8.993464   10.874031    ( 0.0000,  0.0000,  0.0000)
  28 Fe     3.684428    7.260447   -0.001356    ( 0.0000,  0.0000,  2.0000)
  29 Co     3.612616    9.025636    1.761807    ( 0.0000,  0.0000,  1.5000)
  30 Ni     5.481440    7.275114    1.811211    ( 0.0000,  0.0000,  1.5000)
  31 Fe     5.461261    9.048153   10.833988    ( 0.0000,  0.0000,  1.5000)
  32 Ni     7.245704    7.257881    0.056891    ( 0.0000,  0.0000,  2.1000)
  33 Co     7.301969    9.004609    1.790315    ( 0.0000,  0.0000,  0.0000)
  34 Ni     9.029343    7.181775    1.815549    ( 0.0000,  0.0000,  2.0000)
  35 Cr     9.030561    9.042010    0.020232    ( 0.0000,  0.0000,  1.5000)
  36 Fe    -0.031046    0.001947    3.645701    ( 0.0000,  0.0000,  2.0000)
  37 Fe    10.825910    1.804351    5.434602    ( 0.0000,  0.0000,  2.1000)
  38 Ni     1.743552   10.849296    5.484376    ( 0.0000,  0.0000,  0.0000)
  39 Al     1.769755    1.791891    3.636068    ( 0.0000,  0.0000,  1.5000)
  40 Al     3.516667   10.719828    3.663227    ( 0.0000,  0.0000,  0.0000)
  41 Co     3.644244    1.785205    5.586728    ( 0.0000,  0.0000,  0.0000)
  42 Al     5.484778   10.815439    5.504022    ( 0.0000,  0.0000,  0.0000)
  43 Cr     5.457934    1.842230    3.658769    ( 0.0000,  0.0000,  0.0000)
  44 Cr     7.360615   10.815439    3.672229    ( 0.0000,  0.0000,  0.0000)
  45 Al     7.266884    1.811614    5.485528    ( 0.0000,  0.0000,  2.1000)
  46 Al     9.077986    0.023590    5.491921    ( 0.0000,  0.0000,  0.0000)
  47 Co     9.066788    1.824226    3.671175    ( 0.0000,  0.0000,  1.5000)
  48 Fe    -0.047135    3.649615    3.617291    ( 0.0000,  0.0000,  2.0000)
  49 Cr    10.809264    5.435993    5.379805    ( 0.0000,  0.0000,  2.0000)
  50 Cr     1.752316    3.624989    5.344676    ( 0.0000,  0.0000,  0.0000)
  51 Cr     1.805786    5.472046    3.619389    ( 0.0000,  0.0000,  2.1000)
  52 Ni     3.649408    3.633491    3.631251    ( 0.0000,  0.0000,  2.1000)
  53 Co     3.657628    5.433797    5.434015    ( 0.0000,  0.0000,  1.5000)
  54 Ni     5.413368    3.672642    5.480309    ( 0.0000,  0.0000,  1.5000)
  55 Al     5.413835    5.465588    3.639666    ( 0.0000,  0.0000,  2.1000)
  56 Cr     7.223449    3.731734    3.720829    ( 0.0000,  0.0000,  0.0000)
  57 Cr     7.220557    5.483180    5.485572    ( 0.0000,  0.0000,  0.0000)
  58 Co     9.069039    3.623673    5.469720    ( 0.0000,  0.0000,  1.5000)
  59 Ni     9.064766    5.503837    3.636731    ( 0.0000,  0.0000,  0.0000)
  60 Fe    -0.007801    7.208303    3.671501    ( 0.0000,  0.0000,  2.1000)
  61 Co    -0.032907    9.095361    5.398690    ( 0.0000,  0.0000,  0.0000)
  62 Co     1.823693    7.248716    5.440766    ( 0.0000,  0.0000,  2.0000)
  63 Al     1.739856    8.989170    3.676437    ( 0.0000,  0.0000,  2.0000)
  64 Cr     3.645353    7.306090    3.692343    ( 0.0000,  0.0000,  0.0000)
  65 Ni     3.652300    9.051545    5.521635    ( 0.0000,  0.0000,  1.5000)
  66 Co     5.474253    7.265362    5.482886    ( 0.0000,  0.0000,  2.1000)
  67 Ni     5.473601    9.034877    3.664390    ( 0.0000,  0.0000,  0.0000)
  68 Ni     7.218436    7.243171    3.634643    ( 0.0000,  0.0000,  1.5000)
  69 Al     7.240823    9.039172    5.472851    ( 0.0000,  0.0000,  1.5000)
  70 Ni     8.972600    7.234071    5.399136    ( 0.0000,  0.0000,  2.0000)
  71 Cr     9.065516    8.978221    3.651180    ( 0.0000,  0.0000,  0.0000)
  72 Al    10.856755    0.017916    7.210891    ( 0.0000,  0.0000,  2.1000)
  73 Ni    10.824681    1.882197    8.982799    ( 0.0000,  0.0000,  0.0000)
  74 Fe     1.860768   10.856646    9.009795    ( 0.0000,  0.0000,  0.0000)
  75 Fe     1.767189    1.801926    7.237202    ( 0.0000,  0.0000,  2.1000)
  76 Cr     3.637144   10.797772    7.275701    ( 0.0000,  0.0000,  2.1000)
  77 Cr     3.668032    1.775833    9.018743    ( 0.0000,  0.0000,  0.0000)
  78 Ni     5.482495   10.845165    9.071409    ( 0.0000,  0.0000,  2.1000)
  79 Co     5.527517    1.773408    7.253489    ( 0.0000,  0.0000,  0.0000)
  80 Co     7.260502    0.005379    7.255185    ( 0.0000,  0.0000,  1.5000)
  81 Fe     7.265112    1.802383    9.014883    ( 0.0000,  0.0000,  2.0000)
  82 Al     9.024788    0.026384    9.025244    ( 0.0000,  0.0000,  1.5000)
  83 Cr     9.016296    1.814658    7.226449    ( 0.0000,  0.0000,  2.0000)
  84 Fe    10.804437    3.613888    7.198159    ( 0.0000,  0.0000,  0.0000)
  85 Al    10.834662    5.395809    9.098938    ( 0.0000,  0.0000,  0.0000)
  86 Fe     1.818746    3.628870    9.065668    ( 0.0000,  0.0000,  0.0000)
  87 Fe     1.809776    5.464294    7.231146    ( 0.0000,  0.0000,  0.0000)
  88 Ni     3.671588    3.637100    7.249553    ( 0.0000,  0.0000,  0.0000)
  89 Al     3.679546    5.412074    9.119606    ( 0.0000,  0.0000,  0.0000)
  90 Co     5.499651    3.591088    9.044978    ( 0.0000,  0.0000,  2.1000)
  91 Fe     5.468306    5.448464    7.223046    ( 0.0000,  0.0000,  1.5000)
  92 Co     7.241888    3.617400    7.225101    ( 0.0000,  0.0000,  0.0000)
  93 Co     7.214631    5.385893    9.048577    ( 0.0000,  0.0000,  2.1000)
  94 Fe     8.994291    3.655975    9.039237    ( 0.0000,  0.0000,  1.5000)
  95 Cr     9.006577    5.423262    7.223296    ( 0.0000,  0.0000,  2.0000)
  96 Cr    -0.070637    7.291956    7.110419    ( 0.0000,  0.0000,  0.0000)
  97 Cr     0.073012    9.104570    9.068375    ( 0.0000,  0.0000,  0.0000)
  98 Cr     1.863247    7.257381    9.054785    ( 0.0000,  0.0000,  2.0000)
  99 Fe     1.858343    9.053708    7.225808    ( 0.0000,  0.0000,  2.1000)
 100 Al     3.683906    7.292456    7.235550    ( 0.0000,  0.0000,  2.0000)
 101 Ni     3.628218    9.069550    9.051262    ( 0.0000,  0.0000,  2.1000)
 102 Co     5.530605    7.331890    9.040129    ( 0.0000,  0.0000,  0.0000)
 103 Al     5.476232    9.097209    7.250467    ( 0.0000,  0.0000,  2.0000)
 104 Ni     7.256827    7.264242    7.208456    ( 0.0000,  0.0000,  2.1000)
 105 Al     7.272548    9.136437    9.056861    ( 0.0000,  0.0000,  1.5000)
 106 Fe     8.936493    7.190875    9.109767    ( 0.0000,  0.0000,  0.0000)
 107 Co     8.994682    9.112169    7.218480    ( 0.0000,  0.0000,  0.0000)

Unit cell:
           periodic     x           y           z      points  spacing
  1. axis:    yes   10.872400    0.000000    0.000000    48     0.2265
  2. axis:    yes    0.000000   10.872400    0.000000    48     0.2265
  3. axis:    yes    0.000000    0.000000   10.872400    48     0.2265

  Lengths:  10.872400  10.872400  10.872400
  Angles:   90.000000  90.000000  90.000000

Effective grid spacing dv^(1/3) = 0.2265

     iter     time        total  log10-change:  magmom
                         energy  eigst   dens
iter:   1 07:45:56  -920.104426                  +120.1256
iter:   2 07:47:21  -835.058372  -0.26  -1.26    +80.9649
iter:   3 07:48:47  -829.080530  -0.79  -1.29    +48.8217
iter:   4 07:50:12  -815.193163  -1.22  -1.32    +45.9187
iter:   5 07:51:37  -810.743746  -1.66  -1.37    +43.8631
iter:   6 07:53:03  -811.987352  -1.66  -1.42    +42.8539
iter:   7 07:54:28  -808.036694  -1.43  -1.45    +42.2923
iter:   8 07:55:54  -802.680885  -1.75  -1.53    +42.4177
iter:   9 07:57:18  -803.487173  -2.02  -1.68    +43.0169
iter:  10 07:58:44  -803.347827  -2.21  -1.72    +43.8570
iter:  11 08:00:09  -802.856296  -2.35  -1.76    +45.0850
iter:  12 08:01:34  -803.272024  -2.45  -1.81    +46.0237
iter:  13 08:03:00  -804.006180  -2.35  -1.85    +47.0915
iter:  14 08:04:25  -803.649003  -2.43  -1.85    +47.9073
iter:  15 08:05:50  -803.422275  -2.55  -1.92    +48.9341
iter:  16 08:07:16  -804.083573  -2.51  -1.97    +49.7247
iter:  17 08:08:41  -803.460483  -2.62  -1.96    +50.6914
iter:  18 08:10:07  -803.502601  -2.77  -2.04    +51.6050
iter:  19 08:11:33  -803.298408  -2.89  -2.05    +52.3456
iter:  20 08:12:58  -803.327783  -3.00  -2.11    +53.2202
iter:  21 08:14:24  -803.301878c -3.21  -2.14    +54.1866
iter:  22 08:15:50  -803.523339  -3.23  -2.19    +54.7412
iter:  23 08:17:15  -803.698000  -3.08  -2.20    +55.4589
iter:  24 08:18:42  -803.915245  -3.09  -2.20    +55.9368
iter:  25 08:20:07  -804.003369  -3.08  -2.22    +56.5171
iter:  26 08:21:32  -804.034735  -3.09  -2.21    +56.9562
iter:  27 08:22:58  -804.026202c -3.15  -2.29    +57.1995
iter:  28 08:24:23  -804.027027c -3.40  -2.29    +57.6728
iter:  29 08:25:49  -804.109257c -3.46  -2.35    +57.9549
iter:  30 08:27:15  -804.173226  -3.39  -2.36    +58.1786
iter:  31 08:28:40  -804.156327c -3.54  -2.36    +58.2492
iter:  32 08:30:07  -804.152853c -3.68  -2.39    +58.4352
iter:  33 08:31:32  -804.301994  -3.51  -2.46    +58.5671
iter:  34 08:32:58  -804.262337  -3.62  -2.41    +58.5566
iter:  35 08:34:23  -804.312580c -3.59  -2.45    +58.5294
iter:  36 08:35:49  -804.371797  -3.50  -2.49    +58.5567
iter:  37 08:37:14  -804.397630c -3.56  -2.48    +58.5867
iter:  38 08:38:40  -804.297908  -3.83  -2.46    +58.4897
iter:  39 08:40:06  -804.306314  -4.03  -2.59    +58.4162
iter:  40 08:41:32  -804.312448c -4.29  -2.59    +58.4388
iter:  41 08:42:58  -804.330444c -4.52  -2.63    +58.4346
iter:  42 08:44:23  -804.383481c -4.14  -2.64    +58.3538
iter:  43 08:45:48  -804.409756c -4.02  -2.63    +58.3132
iter:  44 08:47:14  -804.463138c -3.83  -2.62    +58.2726
iter:  45 08:48:39  -804.490252c -3.77  -2.63    +58.2626
iter:  46 08:50:04  -804.506652c -3.79  -2.65    +58.1258
iter:  47 08:51:31  -804.483751c -3.86  -2.66    +58.0024
iter:  48 08:52:56  -804.484445c -4.15  -2.74    +57.9845
iter:  49 08:54:22  -804.496753c -4.34  -2.79    +57.9461
iter:  50 08:55:48  -804.509463c -4.61  -2.82    +57.8621
iter:  51 08:57:14  -804.534533c -4.66  -2.86    +57.7726
iter:  52 08:58:39  -804.625008  -3.72  -2.87    +57.4457
iter:  53 09:00:05  -804.713069  -3.37  -2.84    +57.0757
iter:  54 09:01:31  -804.707032c -4.58  -2.74    +57.2117
iter:  55 09:02:57  -804.726152c -4.31  -2.76    +57.1550
iter:  56 09:04:22  -804.699220c -4.24  -2.75    +57.1588
iter:  57 09:05:48  -804.684713c -4.32  -2.87    +57.1519
iter:  58 09:07:14  -804.683589c -4.31  -3.02    +57.1699
iter:  59 09:08:39  -804.687883c -4.79  -3.21    +57.1283
iter:  60 09:10:05  -804.693715c -5.00  -3.26    +57.1050
iter:  61 09:11:30  -804.699142c -5.12  -3.31    +57.0887
iter:  62 09:12:56  -804.708101c -4.83  -3.33    +57.0292
iter:  63 09:14:22  -804.721180c -4.55  -3.36    +56.9608
iter:  64 09:15:48  -804.718979c -5.44  -3.33    +56.9597
iter:  65 09:17:13  -804.723714c -5.37  -3.39    +56.9323
iter:  66 09:18:37  -804.731753c -5.02  -3.40    +56.8716
iter:  67 09:20:02  -804.743142c -4.87  -3.35    +56.8118
iter:  68 09:21:29  -804.734212c -5.23  -3.27    +56.8670
iter:  69 09:22:54  -804.743182c -5.23  -3.34    +56.8148
iter:  70 09:24:20  -804.738456c -5.72  -3.29    +56.8637
iter:  71 09:25:46  -804.740531c -4.95  -3.30    +56.8170
iter:  72 09:27:11  -804.744396c -5.39  -3.33    +56.7583
iter:  73 09:28:37  -804.751407c -5.15  -3.34    +56.6678
iter:  74 09:30:02  -804.753067c -5.25  -3.30    +56.7272
iter:  75 09:31:28  -804.768197c -4.81  -3.21    +56.5552
iter:  76 09:32:54  -804.756544c -5.13  -3.16    +56.7211
iter:  77 09:34:19  -804.761500c -5.79  -3.20    +56.6922
iter:  78 09:35:45  -804.753249c -4.98  -3.16    +56.6564
iter:  79 09:37:10  -804.756707c -4.98  -3.36    +56.5967
iter:  80 09:38:36  -804.757395c -5.22  -3.37    +56.5622
iter:  81 09:40:02  -804.759093c -5.30  -3.48    +56.5043
iter:  82 09:41:28  -804.761536c -5.46  -3.50    +56.4713
iter:  83 09:42:53  -804.765036c -5.45  -3.53    +56.4077
iter:  84 09:44:19  -804.764384c -6.22  -3.54    +56.4116
iter:  85 09:45:44  -804.766385c -5.61  -3.59    +56.3540
iter:  86 09:47:10  -804.767487c -5.84  -3.59    +56.3798
iter:  87 09:48:35  -804.770780c -5.40  -3.64    +56.3240
iter:  88 09:50:01  -804.769500c -6.06  -3.68    +56.3196
iter:  89 09:51:27  -804.772807c -5.51  -3.72    +56.2468
iter:  90 09:52:52  -804.767244c -4.96  -3.68    +56.4081
iter:  91 09:54:18  -804.762786c -4.26  -3.68    +56.6833
iter:  92 09:55:44  -804.763725c -5.00  -3.38    +56.6914
iter:  93 09:57:09  -804.769123c -5.36  -3.35    +56.6325
iter:  94 09:58:35  -804.768826c -5.91  -3.33    +56.5936
iter:  95 10:00:02  -804.766249c -5.19  -3.37    +56.7164
iter:  96 10:01:28  -804.756845c -5.12  -3.30    +56.7048
iter:  97 10:02:54  -804.755831c -5.67  -3.33    +56.6548
iter:  98 10:04:20  -804.753791c -5.26  -3.46    +56.6730
iter:  99 10:05:46  -804.753947c -5.19  -3.50    +56.5480
iter: 100 10:07:12  -804.756778c -5.06  -3.46    +56.4471
iter: 101 10:08:38  -804.750206c -5.19  -3.49    +56.5927
iter: 102 10:10:04  -804.752968c -5.57  -3.54    +56.5701
iter: 103 10:11:31  -804.761389c -5.10  -3.67    +56.4926
iter: 104 10:12:57  -804.770954c -4.87  -3.68    +56.3912
iter: 105 10:14:23  -804.792041c -4.41  -3.57    +56.2100
iter: 106 10:15:42  -804.739172c -3.66  -3.36    +56.7532
iter: 107 10:16:57  -804.719685c -3.73  -3.51    +57.0941
iter: 108 10:18:12  -804.734498c -4.49  -3.21    +56.8255
iter: 109 10:19:27  -804.744419c -4.55  -3.45    +56.6827
iter: 110 10:20:38  -804.751465c -4.83  -3.63    +56.6181
iter: 111 10:21:47  -804.747308c -5.69  -3.74    +56.6725
iter: 112 10:22:56  -804.732063c -4.27  -3.66    +56.8726
iter: 113 10:24:06  -804.743915c -4.79  -3.35    +56.7283
iter: 114 10:25:14  -804.748380c -4.82  -3.53    +56.6543
iter: 115 10:26:23  -804.740892c -4.97  -3.65    +56.7423
iter: 116 10:27:32  -804.730675c -4.44  -3.50    +56.8076
iter: 117 10:28:41  -804.735447c -5.45  -3.33    +56.7565
iter: 118 10:29:49  -804.748599c -4.39  -3.43    +56.6597
iter: 119 10:30:58  -804.741355c -5.14  -3.54    +56.7110
iter: 120 10:32:07  -804.745040c -5.35  -3.48    +56.6708
iter: 121 10:33:15  -804.745391c -6.37  -3.66    +56.6747
iter: 122 10:34:24  -804.749629c -5.43  -3.66    +56.6471
iter: 123 10:35:33  -804.745133c -5.59  -3.77    +56.6741
iter: 124 10:36:42  -804.756106c -4.78  -3.68    +56.5642
iter: 125 10:37:51  -804.755134c -5.70  -3.92    +56.5932
iter: 126 10:38:59  -804.760949c -5.20  -3.88    +56.5237
iter: 127 10:40:08  -804.764876c -5.44  -4.01c   +56.5035
iter: 128 10:41:17  -804.766610c -5.92  -3.89    +56.4853
iter: 129 10:42:25  -804.767495c -5.66  -3.79    +56.5414
iter: 130 10:43:34  -804.773749c -5.33  -3.77    +56.4730
iter: 131 10:44:43  -804.763814c -4.97  -3.65    +56.6298
iter: 132 10:45:52  -804.752508c -4.49  -3.75    +56.8630
iter: 133 10:47:00  -804.754333c -5.51  -3.71    +56.8927
iter: 134 10:48:09  -804.757563c -5.24  -3.65    +56.8601
iter: 135 10:49:18  -804.759733c -5.49  -3.73    +56.8476
iter: 136 10:50:26  -804.762195c -5.46  -3.75    +56.7927
iter: 137 10:51:35  -804.765003c -5.64  -3.93    +56.7623
iter: 138 10:52:44  -804.769805c -5.37  -3.91    +56.6994
iter: 139 10:53:52  -804.734728c -3.55  -3.75    +57.3775
iter: 140 10:55:02  -804.739941c -5.14  -3.31    +57.2440
iter: 141 10:56:11  -804.742013c -5.67  -3.46    +57.2191
iter: 142 10:57:20  -804.746083c -5.09  -3.51    +57.1698
iter: 143 10:58:28  -804.749863c -5.15  -3.69    +57.1285
iter: 144 10:59:38  -804.732683c -3.98  -3.87    +57.3647
iter: 145 11:00:48  -804.741721c -4.72  -3.26    +57.2263
iter: 146 11:01:57  -804.738973c -5.64  -3.50    +57.2658
iter: 147 11:03:07  -804.740556c -5.59  -3.41    +57.2313
iter: 148 11:04:17  -804.739233c -5.94  -3.50    +57.2585
iter: 149 11:05:26  -804.742242c -5.29  -3.45    +57.2054
iter: 150 11:06:35  -804.748425c -5.14  -3.59    +57.1929
iter: 151 11:07:44  -804.743361c -5.40  -3.39    +57.1913
iter: 152 11:08:53  -804.746521c -5.21  -3.69    +57.1463
iter: 153 11:10:03  -804.742181c -5.45  -3.64    +57.2000
iter: 154 11:11:12  -804.735901c -4.94  -3.75    +57.3023
iter: 155 11:12:22  -804.752427c -4.30  -3.54    +57.0310
iter: 156 11:13:31  -804.741534c -4.59  -3.61    +57.2725
iter: 157 11:14:40  -804.741009c -5.32  -3.66    +57.2839
iter: 158 11:15:49  -804.745194c -5.40  -3.67    +57.2255
iter: 159 11:16:59  -804.734781c -4.72  -3.64    +57.3673
iter: 160 11:18:08  -804.743685c -4.97  -3.51    +57.2325
iter: 161 11:19:18  -804.747561c -4.96  -3.76    +57.1781
iter: 162 11:20:27  -804.749706c -5.25  -3.52    +57.1779
iter: 163 11:21:36  -804.752283c -5.13  -3.59    +57.1128
iter: 164 11:22:45  -804.754288c -5.39  -3.68    +57.0660
iter: 165 11:23:55  -804.761251c -4.97  -3.82    +56.9883
iter: 166 11:25:05  -804.754713c -5.37  -3.61    +57.0641
iter: 167 11:26:14  -804.741538c -4.50  -3.74    +57.2246
iter: 168 11:27:23  -804.757218c -4.64  -3.87    +57.0514
iter: 169 11:28:33  -804.745559c -4.94  -3.70    +57.1866
iter: 170 11:29:42  -804.732560c -4.28  -4.15c   +57.4353
iter: 171 11:30:52  -804.731438c -4.91  -3.58    +57.5036
iter: 172 11:32:01  -804.729579c -3.93  -3.50    +57.9358
iter: 173 11:33:10  -804.730885c -5.12  -3.22    +57.8214
iter: 174 11:34:20  -804.732307c -5.21  -3.32    +57.9264
iter: 175 11:35:29  -804.735499c -5.18  -3.27    +57.8403
iter: 176 11:36:39  -804.735816c -5.56  -3.32    +57.9244
iter: 177 11:37:51  -804.738859c -5.01  -3.30    +57.8472
iter: 178 11:39:07  -804.742084c -4.82  -3.19    +57.9164
iter: 179 11:40:21  -804.756725c -4.19  -3.20    +57.8276
iter: 180 11:41:33  -804.735942c -4.54  -2.97    +57.9370
iter: 181 11:42:45  -804.756153c -4.33  -3.37    +57.9340
iter: 182 11:43:57  -804.748893c -4.54  -3.08    +57.9529
iter: 183 11:45:09  -804.740905c -4.83  -3.20    +57.9889
iter: 184 11:46:20  -804.746456c -4.96  -3.63    +57.9949
iter: 185 11:47:30  -804.748066c -5.32  -3.65    +57.9669
iter: 186 11:48:41  -804.755733c -4.90  -3.74    +57.9072
iter: 187 11:49:51  -804.758098c -5.32  -3.67    +57.8949
iter: 188 11:51:01  -804.765779c -5.01  -3.63    +57.8558
iter: 189 11:52:11  -804.756937c -4.95  -3.51    +57.8917
iter: 190 11:53:20  -804.762811c -5.24  -3.56    +57.8721
iter: 191 11:54:30  -804.761780c -6.08  -3.58    +57.8763
iter: 192 11:55:46  -804.765801c -5.48  -3.60    +57.8526
iter: 193 11:57:01  -804.763506c -6.24  -3.56    +57.8780
iter: 194 11:58:15  -804.763474c -5.22  -3.66    +57.9467
iter: 195 11:59:27  -804.770343c -4.85  -3.46    +57.8981
iter: 196 12:00:39  -804.765142c -5.33  -3.35    +57.8918
iter: 197 12:01:51  -804.766377c -5.53  -3.66    +57.8564
iter: 198 12:03:02  -804.772943c -4.89  -3.73    +57.7878
iter: 199 12:04:13  -804.772058c -5.54  -3.48    +57.7991
iter: 200 12:05:23  -804.773455c -5.57  -3.57    +57.7755
iter: 201 12:06:33  -804.775056c -5.53  -3.59    +57.7516
iter: 202 12:07:44  -804.774986c -5.89  -3.60    +57.7437
iter: 203 12:08:54  -804.775804c -5.70  -3.64    +57.7227
iter: 204 12:10:04  -804.776750c -6.14  -3.68    +57.7200
iter: 205 12:11:13  -804.777967c -5.79  -3.71    +57.7011
iter: 206 12:12:23  -804.777621c -5.72  -3.70    +57.7017
iter: 207 12:13:33  -804.779936c -5.60  -3.85    +57.6894
iter: 208 12:14:43  -804.779347c -6.05  -3.82    +57.6856
iter: 209 12:15:59  -804.780562c -6.01  -4.01c   +57.6824
iter: 210 12:17:14  -804.781926c -5.91  -4.03c   +57.6684
iter: 211 12:18:27  -804.782967c -6.16  -4.04c   +57.6644
iter: 212 12:19:39  -804.777830c -5.17  -3.95    +57.6766
iter: 213 12:20:51  -804.775992c -5.49  -4.09c   +57.6831
iter: 214 12:22:03  -804.778966c -5.62  -4.07c   +57.6741
iter: 215 12:23:15  -804.771949c -4.90  -4.07c   +57.6843
iter: 216 12:24:26  -804.794434c -4.02  -4.24c   +57.6574
iter: 217 12:25:37  -804.788436c -5.61  -3.59    +57.6714
iter: 218 12:26:47  -804.798676c -4.75  -3.71    +57.6634
iter: 219 12:27:57  -804.804376c -4.95  -3.50    +57.6686
iter: 220 12:29:07  -804.798856c -5.63  -3.42    +57.6685
iter: 221 12:30:17  -804.793294c -5.16  -3.52    +57.6634
iter: 222 12:31:27  -804.797763c -5.29  -3.61    +57.6699
iter: 223 12:32:36  -804.798535c -5.46  -3.56    +57.6658
iter: 224 12:33:45  -804.796967c -5.54  -3.54    +57.6638
iter: 225 12:35:01  -804.799123c -5.17  -3.58    +57.6424
iter: 226 12:36:17  -804.796759c -5.85  -3.49    +57.6236
iter: 227 12:37:31  -804.800747c -5.37  -3.69    +57.5967
iter: 228 12:38:44  -804.797375c -5.93  -3.54    +57.5901
iter: 229 12:39:56  -804.798329c -5.96  -3.74    +57.5570
iter: 230 12:41:07  -804.798691c -6.38  -3.72    +57.5309
iter: 231 12:42:19  -804.799436c -6.17  -3.77    +57.4996
iter: 232 12:43:29  -804.799414c -6.45  -3.72    +57.4969
iter: 233 12:44:40  -804.800724c -5.93  -3.71    +57.4744
iter: 234 12:45:50  -804.799424c -5.70  -3.75    +57.4649
iter: 235 12:47:00  -804.800066c -6.19  -3.84    +57.4475
iter: 236 12:48:10  -804.800728c -6.04  -3.93    +57.4263
iter: 237 12:49:20  -804.800235c -6.50  -3.88    +57.4230
iter: 238 12:50:30  -804.800638c -6.47  -4.04c   +57.4058
iter: 239 12:51:39  -804.800787c -6.71  -4.01c   +57.3998
iter: 240 12:52:49  -804.801083c -6.51  -4.12c   +57.3852
iter: 241 12:54:05  -804.800995c -6.74  -4.19c   +57.3786
iter: 242 12:55:20  -804.801513c -6.66  -4.20c   +57.3661
iter: 243 12:56:35  -804.801439c -6.62  -4.30c   +57.3537
iter: 244 12:57:48  -804.801651c -6.89  -4.27c   +57.3461
iter: 245 12:59:01  -804.801897c -6.75  -4.34c   +57.3345
iter: 246 13:00:13  -804.802236c -6.67  -4.44c   +57.3176
iter: 247 13:01:25  -804.802284c -7.19  -4.45c   +57.3125
iter: 248 13:02:37  -804.802712c -6.76  -4.52c   +57.2972
iter: 249 13:03:48  -804.803009c -6.51  -4.55c   +57.2737
iter: 250 13:04:59  -804.803199c -7.00  -4.54c   +57.2651
iter: 251 13:06:11  -804.803437c -6.94  -4.57c   +57.2525
iter: 252 13:07:22  -804.804187c -6.13  -4.56c   +57.2136
iter: 253 13:08:32  -804.803300c -6.12  -4.39c   +57.2621
iter: 254 13:09:42  -804.804764c -5.64  -4.54c   +57.1810
iter: 255 13:10:51  -804.804284c -6.94  -4.31c   +57.2051
iter: 256 13:12:01  -804.805852c -5.63  -4.35c   +57.1239
iter: 257 13:13:10  -804.806834c -5.73  -4.17c   +57.0696
iter: 258 13:14:20  -804.801903c -4.58  -4.07c   +57.3438
iter: 259 13:15:30  -804.802854c -6.32  -4.47c   +57.3061
iter: 260 13:16:39  -804.802471c -6.78  -4.53c   +57.3200
iter: 261 13:17:48  -804.802801c -6.69  -4.64c   +57.2975
iter: 262 13:18:58  -804.803097c -6.93  -4.55c   +57.2864
iter: 263 13:20:07  -804.803416c -6.91  -4.67c   +57.2722
iter: 264 13:21:17  -804.805012c -5.48  -4.60c   +57.1814
iter: 265 13:22:26  -804.804222c -6.32  -4.28c   +57.2265
iter: 266 13:23:35  -804.806689c -5.14  -4.36c   +57.0775
iter: 267 13:24:45  -804.805869c -6.34  -4.07c   +57.1283
iter: 268 13:25:54  -804.807152c -5.71  -4.16c   +57.0474
iter: 269 13:27:04  -804.805245c -5.58  -4.02c   +57.1450
iter: 270 13:28:13  -804.806837c -5.77  -4.12c   +57.0577
iter: 271 13:29:23  -804.806488c -7.07  -4.06c   +57.0730
iter: 272 13:30:32  -804.806888c -6.37  -4.08c   +57.0395
iter: 273 13:31:42  -804.807404c -6.14  -4.06c   +57.0624
iter: 274 13:32:51  -804.807295c -6.07  -3.84    +57.0223
iter: 275 13:34:01  -804.807034c -5.98  -4.02c   +57.0087
iter: 276 13:35:10  -804.807230c -6.42  -3.85    +56.9921
iter: 277 13:36:19  -804.808532c -5.81  -4.03c   +56.9712
iter: 278 13:37:29  -804.807396c -6.20  -3.83    +56.9651
iter: 279 13:38:39  -804.808226c -6.07  -4.10c   +56.9505
iter: 280 13:39:48  -804.807848c -6.55  -3.91    +56.9472
iter: 281 13:40:57  -804.807834c -6.68  -4.17c   +56.9339
iter: 282 13:42:07  -804.808174c -6.62  -4.21c   +56.9283
iter: 283 13:43:16  -804.808042c -6.65  -4.22c   +56.9167
iter: 284 13:44:26  -804.808277c -6.99  -4.26c   +56.9121
iter: 285 13:45:36  -804.808275c -6.75  -4.31c   +56.9032
iter: 286 13:46:45  -804.808318c -7.35  -4.24c   +56.9025
iter: 287 13:47:54  -804.808369c -7.11  -4.37c   +56.8915
iter: 288 13:49:04  -804.808644c -6.81  -4.38c   +56.8779
iter: 289 13:50:13  -804.808718c -7.24  -4.39c   +56.8738
iter: 290 13:51:23  -804.808705c -7.03  -4.41c   +56.8659
iter: 291 13:52:32  -804.808779c -7.29  -4.44c   +56.8604
iter: 292 13:53:42  -804.808828c -7.35  -4.46c   +56.8546
iter: 293 13:54:51  -804.808975c -7.25  -4.54c   +56.8458
iter: 294 13:56:01  -804.808955c -7.29  -4.56c   +56.8385
iter: 295 13:57:10  -804.809090c -7.36  -4.64c   +56.8339
iter: 296 13:58:19  -804.809120c -7.32  -4.57c   +56.8263
iter: 297 13:59:29  -804.809145c -7.95c -4.69c   +56.8255

Converged after 297 iterations.

Dipole moment: (28.507109, 18.015225, 8.503291) |e|*Ang

Total magnetic moment: (0.000000, 0.000000, 56.825488)
Local magnetic moments:
   0 Ni ( 0.000000,  0.000000,  0.315199)
   1 Al ( 0.000000,  0.000000, -0.035154)
   2 Ni ( 0.000000,  0.000000,  0.224333)
   3 Co ( 0.000000,  0.000000,  1.238247)
   4 Al ( 0.000000,  0.000000, -0.026918)
   5 Cr ( 0.000000,  0.000000,  2.172217)
   6 Co ( 0.000000,  0.000000,  1.037962)
   7 Al ( 0.000000,  0.000000, -0.028410)
   8 Al ( 0.000000,  0.000000, -0.037040)
   9 Fe ( 0.000000,  0.000000,  2.207221)
  10 Fe ( 0.000000,  0.000000,  2.089265)
  11 Fe ( 0.000000,  0.000000,  2.471800)
  12 Ni ( 0.000000,  0.000000,  0.338238)
  13 Cr ( 0.000000,  0.000000, -1.551291)
  14 Co ( 0.000000,  0.000000,  0.859094)
  15 Fe ( 0.000000,  0.000000,  2.128483)
  16 Ni ( 0.000000,  0.000000,  0.242128)
  17 Co ( 0.000000,  0.000000,  0.864520)
  18 Al ( 0.000000,  0.000000, -0.020750)
  19 Cr ( 0.000000,  0.000000,  1.538914)
  20 Co ( 0.000000,  0.000000,  0.932547)
  21 Al ( 0.000000,  0.000000, -0.014812)
  22 Ni ( 0.000000,  0.000000,  0.287323)
  23 Ni ( 0.000000,  0.000000,  0.287549)
  24 Cr ( 0.000000,  0.000000,  0.999679)
  25 Fe ( 0.000000,  0.000000,  2.101752)
  26 Fe ( 0.000000,  0.000000,  1.965808)
  27 Cr ( 0.000000,  0.000000, -1.791762)
  28 Fe ( 0.000000,  0.000000,  2.026855)
  29 Co ( 0.000000,  0.000000,  0.892485)
  30 Ni ( 0.000000,  0.000000,  0.143775)
  31 Fe ( 0.000000,  0.000000,  2.466962)
  32 Ni ( 0.000000,  0.000000,  0.298038)
  33 Co ( 0.000000,  0.000000,  1.069703)
  34 Ni ( 0.000000,  0.000000,  0.190950)
  35 Cr ( 0.000000,  0.000000, -1.384009)
  36 Fe ( 0.000000,  0.000000,  2.272706)
  37 Fe ( 0.000000,  0.000000,  1.773211)
  38 Ni ( 0.000000,  0.000000,  0.208970)
  39 Al ( 0.000000,  0.000000, -0.029270)
  40 Al ( 0.000000,  0.000000, -0.012817)
  41 Co ( 0.000000,  0.000000,  0.901581)
  42 Al ( 0.000000,  0.000000, -0.008504)
  43 Cr ( 0.000000,  0.000000, -2.192381)
  44 Cr ( 0.000000,  0.000000,  1.340331)
  45 Al ( 0.000000,  0.000000, -0.008032)
  46 Al ( 0.000000,  0.000000, -0.007935)
  47 Co ( 0.000000,  0.000000,  0.958732)
  48 Fe ( 0.000000,  0.000000,  2.014764)
  49 Cr ( 0.000000,  0.000000, -1.359906)
  50 Cr ( 0.000000,  0.000000, -1.969838)
  51 Cr ( 0.000000,  0.000000,  1.460501)
  52 Ni ( 0.000000,  0.000000,  0.107449)
  53 Co ( 0.000000,  0.000000,  1.059156)
  54 Ni ( 0.000000,  0.000000,  0.266838)
  55 Al ( 0.000000,  0.000000, -0.008815)
  56 Cr ( 0.000000,  0.000000,  1.836966)
  57 Cr ( 0.000000,  0.000000, -1.288842)
  58 Co ( 0.000000,  0.000000,  0.405108)
  59 Ni ( 0.000000,  0.000000,  0.208133)
  60 Fe ( 0.000000,  0.000000,  2.159624)
  61 Co ( 0.000000,  0.000000,  0.791376)
  62 Co ( 0.000000,  0.000000,  0.755947)
  63 Al ( 0.000000,  0.000000, -0.030618)
  64 Cr ( 0.000000,  0.000000, -2.047319)
  65 Ni ( 0.000000,  0.000000,  0.114323)
  66 Co ( 0.000000,  0.000000,  0.651289)
  67 Ni ( 0.000000,  0.000000,  0.156733)
  68 Ni ( 0.000000,  0.000000,  0.103431)
  69 Al ( 0.000000,  0.000000, -0.000421)
  70 Ni ( 0.000000,  0.000000,  0.002001)
  71 Cr ( 0.000000,  0.000000, -1.857298)
  72 Al ( 0.000000,  0.000000, -0.019842)
  73 Ni ( 0.000000,  0.000000,  0.279714)
  74 Fe ( 0.000000,  0.000000,  1.954819)
  75 Fe ( 0.000000,  0.000000,  2.421656)
  76 Cr ( 0.000000,  0.000000,  0.841307)
  77 Cr ( 0.000000,  0.000000, -2.035816)
  78 Ni ( 0.000000,  0.000000,  0.085915)
  79 Co ( 0.000000,  0.000000,  1.163528)
  80 Co ( 0.000000,  0.000000,  0.107761)
  81 Fe ( 0.000000,  0.000000,  1.930457)
  82 Al ( 0.000000,  0.000000,  0.002725)
  83 Cr ( 0.000000,  0.000000, -1.706322)
  84 Fe ( 0.000000,  0.000000,  2.047647)
  85 Al ( 0.000000,  0.000000, -0.050331)
  86 Fe ( 0.000000,  0.000000,  2.398644)
  87 Fe ( 0.000000,  0.000000,  2.241350)
  88 Ni ( 0.000000,  0.000000,  0.395456)
  89 Al ( 0.000000,  0.000000, -0.044165)
  90 Co ( 0.000000,  0.000000,  1.051256)
  91 Fe ( 0.000000,  0.000000,  2.365058)
  92 Co ( 0.000000,  0.000000,  1.008230)
  93 Co ( 0.000000,  0.000000,  1.240920)
  94 Fe ( 0.000000,  0.000000,  2.212315)
  95 Cr ( 0.000000,  0.000000, -1.130820)
  96 Cr ( 0.000000,  0.000000,  1.431717)
  97 Cr ( 0.000000,  0.000000, -1.871741)
  98 Cr ( 0.000000,  0.000000,  0.768067)
  99 Fe ( 0.000000,  0.000000,  2.018630)
 100 Al ( 0.000000,  0.000000, -0.036308)
 101 Ni ( 0.000000,  0.000000,  0.113063)
 102 Co ( 0.000000,  0.000000,  0.978864)
 103 Al ( 0.000000,  0.000000, -0.002041)
 104 Ni ( 0.000000,  0.000000,  0.152794)
 105 Al ( 0.000000,  0.000000, -0.012377)
 106 Fe ( 0.000000,  0.000000,  2.283733)
 107 Co ( 0.000000,  0.000000, -0.415244)

Energy contributions relative to reference atoms: (reference = -3235165.067515)

Kinetic:       +250.142343
Potential:     -239.791809
External:        +0.000000
XC:            -844.301017
Entropy (-ST):   -4.116179
Local:          +31.199427
--------------------------
Free energy:   -806.867234
Extrapolated:  -804.809145

Spin contamination: 27.501318 electrons
Showing only first 2 kpts
                      Up                     Down
 Kpt  Band  Eigenvalues  Occupancy  Eigenvalues  Occupancy
  0   454      9.01454    0.99407      9.89738    0.02396
  0   455      9.03211    0.99294      9.91344    0.02048
  0   456      9.04073    0.99230      9.92480    0.01832
  0   457      9.05375    0.99124      9.94431    0.01512

  1   454      9.02618    0.99334      9.88446    0.02718
  1   455      9.03641    0.99263      9.90839    0.02152
  1   456      9.05282    0.99132      9.92279    0.01869
  1   457      9.06476    0.99023      9.93855    0.01600


Fermi level: 9.52668

No gap

Forces in eV/Ang:
  0 Ni    0.47220   -0.58295   -0.63525
  1 Al   -0.40709    0.13372   -1.18393
  2 Ni   -0.02896    0.02845    0.08894
  3 Co    0.14484   -0.12561   -0.30777
  4 Al    0.02444    0.01549    0.39598
  5 Cr    0.13778   -0.26858    0.71806
  6 Co   -0.16713    0.21140    0.94860
  7 Al   -0.32598    0.21097   -0.25484
  8 Al   -0.86478    0.06035    1.73672
  9 Fe    0.22769   -0.27380    0.54423
 10 Fe    0.03433   -0.46926    0.30811
 11 Fe    0.42070    0.41896    0.06927
 12 Ni   -0.00223   -0.20010   -0.12217
 13 Cr   -0.27583   -0.13265   -0.05261
 14 Co    0.54236    0.15449   -0.33352
 15 Fe    0.66647   -0.19512    0.55026
 16 Ni   -0.35851   -0.09406    0.28435
 17 Co   -0.37235    0.45864    0.00513
 18 Al   -0.87102   -0.31062   -0.02814
 19 Cr   -0.54147    0.19234   -0.71434
 20 Co    0.28959    0.14847    0.07358
 21 Al    1.93631    0.52349   -0.16183
 22 Ni   -0.42347   -0.03352    0.45620
 23 Ni    0.12583   -0.09635   -0.10688
 24 Cr   -0.20372    1.05579    0.16085
 25 Fe   -0.39831    0.60543   -0.92235
 26 Fe    0.37763    0.13482   -0.17820
 27 Cr   -0.88383   -0.54378    0.43554
 28 Fe   -0.19850    0.15238    0.39518
 29 Co    0.36908   -0.21032    0.32728
 30 Ni   -0.55382    0.07952    0.00989
 31 Fe    0.02644   -0.72340    0.42337
 32 Ni    0.04127    0.08247   -0.66931
 33 Co   -0.06089    0.35044    0.31846
 34 Ni    0.38101    0.63551    0.10812
 35 Cr    0.97424   -0.62455    1.00608
 36 Fe   -0.50991   -0.30442   -0.19135
 37 Fe   -0.02697    0.53263   -0.19985
 38 Ni    0.67812    0.09633   -0.29660
 39 Al    0.86117    0.22016    0.45143
 40 Al    1.54210    0.67523   -0.46913
 41 Co    0.02785   -0.22380   -0.42392
 42 Al   -0.95847    1.06332   -0.87885
 43 Cr   -0.25166   -0.22079   -0.53143
 44 Cr   -0.53328    0.23015   -1.71573
 45 Al   -0.31732    1.11231   -0.31078
 46 Al    0.05162   -0.72558   -0.73879
 47 Co   -0.30931    0.16358   -0.35219
 48 Fe   -0.60534    0.25569    0.49175
 49 Cr   -0.11199    0.28782    0.18333
 50 Cr    0.89487    0.52830    1.16670
 51 Cr    0.64924   -0.46934    0.39954
 52 Ni   -0.36307   -0.16954   -0.00177
 53 Co   -0.54447    0.17284    0.29037
 54 Ni   -0.22187   -0.56924    0.03997
 55 Al   -0.98903    0.46733    0.63383
 56 Cr    1.10444   -0.84823   -0.04133
 57 Cr    0.28604   -0.17234    0.30202
 58 Co    0.17932    0.18544   -0.09236
 59 Ni   -0.12238   -0.63558   -0.04963
 60 Fe   -0.35657   -0.19217    0.10198
 61 Co   -0.19929   -0.66542    0.28553
 62 Co   -0.01782   -0.14509    0.21052
 63 Al   -0.40125   -0.11845    0.07953
 64 Cr    0.14335   -0.25139   -0.48944
 65 Ni   -0.19962    0.06801   -0.57439
 66 Co   -0.36109   -0.29129   -0.44529
 67 Ni   -0.10992    0.37875   -0.30649
 68 Ni    0.00234    0.06616   -0.12116
 69 Al    0.82748   -1.40851   -0.37763
 70 Ni    0.60956    0.14415    0.27665
 71 Cr    0.12518    0.18956   -0.97693
 72 Al    1.21509   -0.43606    0.16180
 73 Ni    0.19844   -0.36797    0.67836
 74 Fe   -0.82970    0.00351    0.57762
 75 Fe    0.62642    0.64115   -0.14710
 76 Cr   -1.11482    1.31616    0.13775
 77 Cr   -0.60067    0.95006   -0.88926
 78 Ni   -0.08527    0.31780   -0.12297
 79 Co   -0.92742    0.59733    0.31818
 80 Co   -0.60397    0.30647   -0.46519
 81 Fe   -0.08908    0.67529   -0.42203
 82 Al    1.36095    0.23427    0.02831
 83 Cr    0.47072    2.00064    0.74959
 84 Fe    0.29796    0.10289   -0.06424
 85 Al   -0.05017   -0.06987   -0.46792
 86 Fe   -0.06793   -0.49016   -0.14301
 87 Fe    0.23654   -0.31699   -0.52127
 88 Ni   -0.25397   -0.23741    0.12373
 89 Al    0.15995   -0.38940   -0.37323
 90 Co   -0.00323    0.00434   -0.44084
 91 Fe    0.39980   -0.12307    0.13768
 92 Co    0.07404    0.37573    0.37213
 93 Co    0.02114    0.40514   -0.14673
 94 Fe   -0.25848   -0.24181   -0.12398
 95 Cr   -0.28475   -0.24762   -0.07111
 96 Cr   -0.16512    0.12762    0.38933
 97 Cr   -0.12203   -1.13952   -0.12897
 98 Cr   -0.86088    0.37460    0.49438
 99 Fe   -0.43113    0.03956   -0.05499
100 Al   -0.37283   -0.53067   -0.51619
101 Ni    0.22207   -0.20471    0.01811
102 Co   -0.29886   -0.76296    0.34868
103 Al   -0.27210   -0.86240    1.16979
104 Ni    0.15670   -0.09366    0.75919
105 Al   -0.13747   -1.75006   -0.64961
106 Fe    0.51744    0.23877   -0.31129
107 Co    1.14625   -0.64564    0.56483

Timing:                              incl.     excl.
-----------------------------------------------------------
Forces:                             15.871    15.871   0.1% |
Hamiltonian:                         0.697     0.008   0.0% |
 Atomic:                             0.303     0.089   0.0% |
  XC Correction:                     0.214     0.214   0.0% |
 Calculate atomic Hamiltonians:      0.263     0.263   0.0% |
 Communicate:                        0.025     0.025   0.0% |
 Initialize Hamiltonian:             0.000     0.000   0.0% |
 Poisson:                            0.002     0.002   0.0% |
 XC 3D grid:                         0.096     0.096   0.0% |
LCAO initialization:               104.155     0.969   0.0% |
 LCAO eigensolver:                   9.931     0.010   0.0% |
  Calculate projections:             0.124     0.124   0.0% |
  DenseAtomicCorrection:             0.140     0.140   0.0% |
  Distribute overlap matrix:         2.012     2.012   0.0% |
  Orbital Layouts:                   4.483     4.483   0.0% |
  Potential matrix:                  2.856     2.856   0.0% |
  Sum over cells:                    0.306     0.306   0.0% |
 LCAO to grid:                      90.943    90.943   0.4% |
 Set positions (LCAO WFS):           2.312     1.607   0.0% |
  Basic WFS set positions:           0.003     0.003   0.0% |
  Basis functions set positions:     0.001     0.001   0.0% |
  P tci:                             0.207     0.207   0.0% |
  ST tci:                            0.189     0.189   0.0% |
  mktci:                             0.305     0.305   0.0% |
PWDescriptor:                        0.137     0.137   0.0% |
SCF-cycle:                       22511.611   177.010   0.8% |
 Davidson:                       21844.362  6058.349  26.8% |----------|
  Apply H:                         273.460   267.477   1.2% |
   HMM T:                            5.982     5.982   0.0% |
  Subspace diag:                  2167.554     0.219   0.0% |
   calc_h_matrix:                  871.949   506.172   2.2% ||
    Apply H:                       365.777   360.477   1.6% ||
     HMM T:                          5.301     5.301   0.0% |
   diagonalize:                    377.605   377.605   1.7% ||
   rotate_psi:                     917.780   917.780   4.1% |-|
  calc. matrices:                 4552.981  4155.691  18.4% |------|
   Apply H:                        397.290   385.182   1.7% ||
    HMM T:                          12.107    12.107   0.1% |
  diagonalize:                    6736.419  6736.419  29.8% |-----------|
  rotate_psi:                     2055.600  2055.600   9.1% |---|
 Density:                          283.750     0.008   0.0% |
  Atomic density matrices:           6.124     6.124   0.0% |
  Mix:                              88.207    88.207   0.4% |
  Multipole moments:                 0.139     0.139   0.0% |
  Pseudo density:                  189.272   189.261   0.8% |
   Symmetrize density:               0.012     0.012   0.0% |
 Hamiltonian:                      197.118     1.819   0.0% |
  Atomic:                           87.364    26.266   0.1% |
   XC Correction:                   61.098    61.098   0.3% |
  Calculate atomic Hamiltonians:    77.641    77.641   0.3% |
  Communicate:                       4.947     4.947   0.0% |
  Poisson:                           0.231     0.231   0.0% |
  XC 3D grid:                       25.115    25.115   0.1% |
 Orthonormalize:                     9.371     0.001   0.0% |
  calc_s_matrix:                     1.089     1.089   0.0% |
  inverse-cholesky:                  0.715     0.715   0.0% |
  projections:                       5.758     5.758   0.0% |
  rotate_psi_s:                      1.808     1.808   0.0% |
Set symmetry:                        0.001     0.001   0.0% |
Other:                               3.150     3.150   0.0% |
-----------------------------------------------------------
Total:                                     22635.622 100.0%

Date: Sat Apr 15 13:59:46 2023
