
  ___ ___ ___ _ _ _  
 |   |   |_  | | | | 
 | | | | | . | | | | 
 |__ |  _|___|_____|  22.8.0
 |___|_|             

User:   c.zeng@d0018
Date:   Thu Apr 20 04:48:15 2023
Arch:   x86_64
Pid:    102309
CWD:    /home/c.zeng/projects/hea-corrosion/hea-mlp/data-curation/surface-mcmc/dft-jobs/48
Python: 3.8.1
gpaw:   /home/c.zeng/usr/installs/gpaw/source/gpaw-22.8.0/gpaw
_gpaw:  /home/c.zeng/usr/installs/gpaw/source/gpaw-22.8.0/
        _gpaw.cpython-38-x86_64-linux-gnu.so
ase:    /home/c.zeng/.local/lib/python3.8/site-packages/ase-3.22.1-py3.8.egg/ase (version 3.22.1)
numpy:  /home/c.zeng/.local/lib/python3.8/site-packages/numpy (version 1.24.2)
scipy:  /home/c.zeng/.local/lib/python3.8/site-packages/scipy (version 1.10.1)
libxc:  4.2.3
units:  Angstrom and eV
cores: 30
OpenMP: False
OMP_NUM_THREADS: 1

Input parameters:
  convergence: {energy: 0.0001}
  kpts: [2 2 1]
  maxiter: 666
  mode: {ecut: 350.0,
         name: pw}
  occupations: {fixmagmom: False,
                name: fermi-dirac,
                width: 0.1}
  poissonsolver: {dipolelayer: xy}
  spinpol: True
  symmetry: {point_group: False}
  xc: PBE

System changes: positions, numbers, cell, pbc, initial_charges, initial_magmoms 

Initialize ...

species:
  Cr:
    name: Chromium
    id: 33f258bda2ca9f93018e70263a35547b
    Z: 24.0
    valence: 6
    core: 18
    charge: 0.0
    file: /home/c.zeng/usr/data/gpaw-setups-0.9.20000/Cr.PBE.gz
    compensation charges: {type: gauss,
                           rc: 0.35,
                           lmax: 2}
    cutoffs: {filter: 2.14,
              core: 3.04}
    valence states:
      #              energy  rcut
      - 4s(1.00)    -4.007   1.164
      - 4p(0.00)    -0.989   1.217
      - 3d(5.00)    -2.913   1.111
      -  s          23.205   1.164
      -  p          26.223   1.217
      -  d          24.299   1.111
  
    # Using partial waves for Cr as LCAO basis

  Co:
    name: Cobalt
    id: 339d20d5b0b93d2de9531a1bee871d91
    Z: 27.0
    valence: 9
    core: 18
    charge: 0.0
    file: /home/c.zeng/usr/data/gpaw-setups-0.9.20000/Co.PBE.gz
    compensation charges: {type: gauss,
                           rc: 0.32,
                           lmax: 2}
    cutoffs: {filter: 1.87,
              core: 2.55}
    valence states:
      #              energy  rcut
      - 4s(2.00)    -5.469   1.005
      - 4p(0.00)    -1.277   1.058
      - 3d(7.00)    -8.205   1.005
      -  s          21.742   1.005
      -  p          25.934   1.058
      -  d          19.007   1.005
  
    # Using partial waves for Co as LCAO basis

  Ni:
    name: Nickel
    id: 0d9f38a9d6e76a2886f07bb4381f212b
    Z: 28.0
    valence: 16
    core: 12
    charge: 0.0
    file: /home/c.zeng/usr/data/gpaw-setups-0.9.20000/Ni.PBE.gz
    compensation charges: {type: gauss,
                           rc: 0.36,
                           lmax: 2}
    cutoffs: {filter: 2.14,
              core: 1.98}
    valence states:
      #              energy  rcut
      - 4s(2.00)    -5.642   1.164
      - 3p(6.00)   -71.394   1.207
      - 4p(0.00)    -1.226   1.207
      - 3d(8.00)    -8.875   1.138
      -  s          21.570   1.164
      -  d          18.337   1.138
  
    # Using partial waves for Ni as LCAO basis

  Fe:
    name: Iron
    id: 37abbd8d6c3c35915a9b583b742da910
    Z: 26.0
    valence: 8
    core: 18
    charge: 0.0
    file: /home/c.zeng/usr/data/gpaw-setups-0.9.20000/Fe.PBE.gz
    compensation charges: {type: gauss,
                           rc: 0.33,
                           lmax: 2}
    cutoffs: {filter: 2.06,
              core: 2.67}
    valence states:
      #              energy  rcut
      - 4s(2.00)    -5.291   1.164
      - 4p(0.00)    -1.326   1.058
      - 3d(6.00)    -7.505   1.058
      -  s          21.920   1.164
      -  p          25.885   1.058
      -  d          19.706   1.058
  
    # Using partial waves for Fe as LCAO basis

Reference energy: -4451268.207082  # eV

Spin-polarized calculation.
Magnetic moment: 175.600000

Convergence criteria:
 Maximum [total energy] change in last 3 cyles: 0.0001 eV / electron
 Maximum integral of absolute [dens]ity change: 0.0001 electrons / valence electron
 Maximum integral of absolute [eigenst]ate change: 4e-08 eV^2 / valence electron
 Maximum number of scf [iter]ations: 666
 (Square brackets indicate name in SCF output, whereas a 'c' in
 the SCF output indicates the quantity has converged.)

Symmetries present (total): 1

  ( 1  0  0)
  ( 0  1  0)
  ( 0  0  1)

4 k-points: 2 x 2 x 1 Monkhorst-Pack grid
2 k-points in the irreducible part of the Brillouin zone
       k-points in crystal coordinates                weights
   0:     0.25000000   -0.25000000    0.00000000          2/4
   1:     0.25000000    0.25000000    0.00000000          2/4

Wave functions: Plane wave expansion
  Cutoff energy: 350.000 eV
  Number of coefficients (min, max): 58495, 58567
  Pulay-stress correction: 0.000000 eV/Ang^3 (de/decut=0.000000)
  Using FFTW library
  ScaLapack parameters: grid=1x1, blocksize=None
  Wavefunction extrapolation:
    Improved wavefunction reuse through dual PAW basis 

Occupation numbers: Fermi-Dirac:
  width: 0.1000  # eV
 

Eigensolver
   Davidson(niter=2) 

Densities:
  Coarse grid: 54*54*128 grid
  Fine grid: 108*108*256 grid
  Total Charge: 0.000000 

Density mixing:
  Method: difference
  Backend: pulay
  Linear mixing parameter: 0.05
  old densities: 5
  Damping of long wavelength oscillations: 50 

Hamiltonian:
  XC and Coulomb potentials evaluated on a 108*108*256 grid
  Using the PBE Exchange-Correlation functional
  External potential:
    NoExternalPotential
 

XC parameters: PBE with 2 nearest neighbor stencil

Memory estimate:
  Process memory now: 355.87 MiB
  Calculator: 2405.48 MiB
    Density: 16.73 MiB
      Arrays: 6.75 MiB
      Localized functions: 7.29 MiB
      Mixer: 2.70 MiB
    Hamiltonian: 5.22 MiB
      Arrays: 5.01 MiB
      XC: 0.00 MiB
      Poisson: 0.00 MiB
      vbar: 0.21 MiB
    Wavefunctions: 2383.52 MiB
      Arrays psit_nG: 1501.35 MiB
      Eigensolver: 862.84 MiB
      Projections: 3.85 MiB
      Projectors: 0.98 MiB
      PW-descriptor: 14.51 MiB

Total number of cores used: 30
Parallelization over k-points: 2
Domain decomposition: 1 x 3 x 5

Number of atoms: 125
Number of atomic orbitals: 1218
Number of bands in calculation: 840
Number of valence electrons: 1217
Bands to converge: occupied

... initialized

Initializing position-dependent things.

Density initialized from atomic densities
Creating initial wave functions:
  840 bands from LCAO basis set

                                                                  
                                                                  
                                                                  
                                                                  
                                   Co    Fe           Ni          
                         Ni    Ni    Fe    Co    Cr               
                    Co    Cr     Cr    Ni    Fe                   
                                Fe    Ni    Ni    Cr    Co        
                Cr    Ni   NCr   CCo    NCo   Fe    Fe            
            Fe    Ni   FCo   NCo   FNi   Fe     Ni                
       Ni                 CoCr    Cr     Cr    Fe    Fe           
                   Fe   FFe   CCo   FNi   CCo   Cr    Cr          
              Ni   CCo    CNi   CFe   CFe   Ni                    
                               Ni    Ni    Cr    Fe    Cr         
               Cr   CFe   CCr   NCNi  CFNi  CFe   Co    Cr        
           Cr   CNi   FCo  CNCr   NFe   CCo         Co            
            Fe    Fe          Fe    Cr        Ni                  
                       CNi   Fe    Cr    Ni     Cr                
             Co    Cr    CFe   Co    FFe   Ni                     
              Co    Co    Cr     Ni    Cr                         
                                                                  
                                                                  
                                                                  
                                                                  
                                                                  

Positions:
   0 Cr    12.462288    1.423821   10.629080    ( 0.0000,  0.0000,  0.0000)
   1 Co     2.499576    1.440301   10.626527    ( 0.0000,  0.0000,  2.0000)
   2 Co     4.968611    1.438835   10.615079    ( 0.0000,  0.0000,  1.5000)
   3 Cr     7.462726    1.421460   10.639178    ( 0.0000,  0.0000,  2.1000)
   4 Ni     9.958813    1.440808   10.614286    ( 0.0000,  0.0000,  1.5000)
   5 Ni    13.701699    3.595687   10.631928    ( 0.0000,  0.0000,  0.0000)
   6 Fe     3.731720    3.588498   10.658463    ( 0.0000,  0.0000,  2.0000)
   7 Cr     6.206181    3.578862   10.616048    ( 0.0000,  0.0000,  0.0000)
   8 Co     8.708678    3.588487   10.610441    ( 0.0000,  0.0000,  0.0000)
   9 Fe    11.213254    3.596560   10.610265    ( 0.0000,  0.0000,  0.0000)
  10 Cr    14.928341    5.748260   10.633307    ( 0.0000,  0.0000,  1.5000)
  11 Co     4.975718    5.742741   10.620568    ( 0.0000,  0.0000,  0.0000)
  12 Fe     7.478433    5.755029   10.612261    ( 0.0000,  0.0000,  0.0000)
  13 Cr     9.958968    5.766540   10.606596    ( 0.0000,  0.0000,  0.0000)
  14 Ni    12.428955    5.759114   10.623679    ( 0.0000,  0.0000,  2.0000)
  15 Co    16.172575    7.907763   10.614962    ( 0.0000,  0.0000,  0.0000)
  16 Co     6.230875    7.897556   10.631399    ( 0.0000,  0.0000,  1.5000)
  17 Co     8.712063    7.918800   10.624912    ( 0.0000,  0.0000,  1.5000)
  18 Cr    11.196407    7.900649   10.627583    ( 0.0000,  0.0000,  2.0000)
  19 Ni    13.685743    7.894915   10.608768    ( 0.0000,  0.0000,  0.0000)
  20 Cr    17.413095   10.061737   10.609531    ( 0.0000,  0.0000,  0.0000)
  21 Ni     7.473454   10.060875   10.626761    ( 0.0000,  0.0000,  1.5000)
  22 Co     9.959304   10.058201   10.606068    ( 0.0000,  0.0000,  0.0000)
  23 Co    12.452485   10.052985   10.619834    ( 0.0000,  0.0000,  1.5000)
  24 Co    14.933506   10.061047   10.614433    ( 0.0000,  0.0000,  2.0000)
  25 Fe    12.449050   -0.000629   12.627234    ( 0.0000,  0.0000,  2.1000)
  26 Co     2.492433    0.000558   12.634954    ( 0.0000,  0.0000,  2.1000)
  27 Cr     4.974333    0.000141   12.611941    ( 0.0000,  0.0000,  2.1000)
  28 Fe     7.468637   -0.006559   12.638564    ( 0.0000,  0.0000,  0.0000)
  29 Cr    16.167928   10.788301   12.619514    ( 0.0000,  0.0000,  2.0000)
  30 Fe     1.266555    2.151225   12.633662    ( 0.0000,  0.0000,  2.0000)
  31 Fe     3.735748    2.148121   12.651127    ( 0.0000,  0.0000,  2.1000)
  32 Ni     6.204229    2.151322   12.625297    ( 0.0000,  0.0000,  2.0000)
  33 Fe     8.713864    2.159169   12.632341    ( 0.0000,  0.0000,  0.0000)
  34 Cr    11.209280    2.157261   12.630668    ( 0.0000,  0.0000,  2.0000)
  35 Cr     2.491537    4.311041   12.649513    ( 0.0000,  0.0000,  1.5000)
  36 Fe     4.975141    4.309004   12.661988    ( 0.0000,  0.0000,  1.5000)
  37 Ni     7.471546    4.302515   12.629612    ( 0.0000,  0.0000,  0.0000)
  38 Ni     9.959331    4.321389   12.624211    ( 0.0000,  0.0000,  2.0000)
  39 Co    12.447216    4.322736   12.648779    ( 0.0000,  0.0000,  0.0000)
  40 Cr     3.727002    6.455713   12.638564    ( 0.0000,  0.0000,  2.0000)
  41 Co     6.230130    6.458548   12.645726    ( 0.0000,  0.0000,  1.5000)
  42 Co     8.722502    6.475815   12.624504    ( 0.0000,  0.0000,  2.1000)
  43 Fe    11.197735    6.469758   12.643995    ( 0.0000,  0.0000,  1.5000)
  44 Fe    13.683348    6.470059   12.640003    ( 0.0000,  0.0000,  2.1000)
  45 Cr    17.413993    8.621565   12.620189    ( 0.0000,  0.0000,  0.0000)
  46 Ni     7.471608    8.621834   12.638564    ( 0.0000,  0.0000,  1.5000)
  47 Ni     9.955597    8.628593   12.628115    ( 0.0000,  0.0000,  2.1000)
  48 Cr    12.449432    8.615173   12.619279    ( 0.0000,  0.0000,  1.5000)
  49 Fe    14.929575    8.617340   12.626089    ( 0.0000,  0.0000,  2.0000)
  50 Cr     1.254097    0.717223   14.680102    ( 0.0000,  0.0000,  2.1000)
  51 Ni     3.731090    0.711950   14.670063    ( 0.0000,  0.0000,  2.0000)
  52 Co     6.214925    0.718289   14.674818    ( 0.0000,  0.0000,  0.0000)
  53 Cr     8.714063    0.718519   14.689084    ( 0.0000,  0.0000,  2.0000)
  54 Fe    11.204771    0.717512   14.682421    ( 0.0000,  0.0000,  0.0000)
  55 Cr     2.496837    2.862958   14.687264    ( 0.0000,  0.0000,  2.0000)
  56 Fe     4.979214    2.867151   14.683800    ( 0.0000,  0.0000,  2.1000)
  57 Cr     7.478991    2.885690   14.679133    ( 0.0000,  0.0000,  2.1000)
  58 Ni     9.958294    2.881486   14.688056    ( 0.0000,  0.0000,  2.1000)
  59 Ni    12.441997    2.882424   14.688409    ( 0.0000,  0.0000,  0.0000)
  60 Co     3.731806    5.017201   14.686589    ( 0.0000,  0.0000,  2.1000)
  61 Cr     6.225452    5.035536   14.687205    ( 0.0000,  0.0000,  0.0000)
  62 Co     8.715945    5.032324   14.674525    ( 0.0000,  0.0000,  2.1000)
  63 Cr    11.195745    5.039006   14.696011    ( 0.0000,  0.0000,  2.0000)
  64 Ni    13.700079    5.031203   14.681012    ( 0.0000,  0.0000,  2.1000)
  65 Fe     4.981869    7.184260   14.692048    ( 0.0000,  0.0000,  2.0000)
  66 Co     7.477161    7.188130   14.678135    ( 0.0000,  0.0000,  1.5000)
  67 Fe     9.952805    7.179334   14.674554    ( 0.0000,  0.0000,  0.0000)
  68 Cr    12.443073    7.188992   14.681100    ( 0.0000,  0.0000,  2.0000)
  69 Cr    14.930068    7.191493   14.686618    ( 0.0000,  0.0000,  0.0000)
  70 Cr     6.231394    9.346900   14.677343    ( 0.0000,  0.0000,  0.0000)
  71 Cr     8.712453    9.336671   14.666629    ( 0.0000,  0.0000,  1.5000)
  72 Cr    11.193692    9.342761   14.657881    ( 0.0000,  0.0000,  1.5000)
  73 Fe    13.688080    9.336294   14.678986    ( 0.0000,  0.0000,  2.1000)
  74 Fe    16.181709    9.338601   14.679603    ( 0.0000,  0.0000,  2.0000)
  75 Fe    12.451515    1.431333   16.739956    ( 0.0000,  0.0000,  2.0000)
  76 Ni     2.493173    1.440441   16.729476    ( 0.0000,  0.0000,  1.5000)
  77 Co     4.973378    1.437348   16.717295    ( 0.0000,  0.0000,  1.5000)
  78 Ni     7.475017    1.438609   16.711571    ( 0.0000,  0.0000,  2.0000)
  79 Fe     9.955789    1.433845   16.723048    ( 0.0000,  0.0000,  2.1000)
  80 Co    13.696559    3.594351   16.715270    ( 0.0000,  0.0000,  2.1000)
  81 Fe     3.730077    3.579487   16.736903    ( 0.0000,  0.0000,  2.0000)
  82 Fe     6.225541    3.599416   16.704614    ( 0.0000,  0.0000,  1.5000)
  83 Co     8.709257    3.594792   16.716150    ( 0.0000,  0.0000,  2.1000)
  84 Ni    11.199463    3.603674   16.739691    ( 0.0000,  0.0000,  2.0000)
  85 Ni    14.943900    5.737718   16.712745    ( 0.0000,  0.0000,  1.5000)
  86 Fe     4.972339    5.736543   16.726893    ( 0.0000,  0.0000,  1.5000)
  87 Ni     7.458804    5.749316   16.714624    ( 0.0000,  0.0000,  2.1000)
  88 Fe     9.954095    5.748637   16.721228    ( 0.0000,  0.0000,  2.0000)
  89 Fe    12.462014    5.747344   16.728743    ( 0.0000,  0.0000,  2.0000)
  90 Fe    16.183410    7.912818   16.742715    ( 0.0000,  0.0000,  2.0000)
  91 Ni     6.219087    7.908313   16.727040    ( 0.0000,  0.0000,  2.1000)
  92 Co     8.705037    7.899237   16.717853    ( 0.0000,  0.0000,  1.5000)
  93 Ni    11.200247    7.900293   16.707726    ( 0.0000,  0.0000,  2.0000)
  94 Fe    13.685904    7.915049   16.733058    ( 0.0000,  0.0000,  2.0000)
  95 Co    17.435836   10.053955   16.714183    ( 0.0000,  0.0000,  2.1000)
  96 Fe     7.479895   10.064335   16.723694    ( 0.0000,  0.0000,  2.1000)
  97 Ni     9.948438   10.062297   16.717999    ( 0.0000,  0.0000,  2.0000)
  98 Ni    12.430846   10.066016   16.706229    ( 0.0000,  0.0000,  2.1000)
  99 Cr    14.931465   10.060206   16.719819    ( 0.0000,  0.0000,  2.0000)
 100 Ni     0.001393   -0.001477   18.721348    ( 0.0000,  0.0000,  2.1000)
 101 Co     8.706806   10.779893   18.727160    ( 0.0000,  0.0000,  2.1000)
 102 Fe    11.204107   10.781618   18.717855    ( 0.0000,  0.0000,  1.5000)
 103 Co     7.469960    0.013195   18.707875    ( 0.0000,  0.0000,  2.0000)
 104 Ni    16.181919   10.775754   18.709108    ( 0.0000,  0.0000,  2.1000)
 105 Fe     1.248004    2.161303   18.718354    ( 0.0000,  0.0000,  2.1000)
 106 Ni     3.733315    2.155634   18.745800    ( 0.0000,  0.0000,  1.5000)
 107 Co     6.228574    2.157186   18.698042    ( 0.0000,  0.0000,  2.0000)
 108 Co     8.707430    2.146688   18.721378    ( 0.0000,  0.0000,  1.5000)
 109 Ni    11.204420    2.145825   18.737698    ( 0.0000,  0.0000,  0.0000)
 110 Cr     2.490030    4.312410   18.723374    ( 0.0000,  0.0000,  2.1000)
 111 Ni     4.985099    4.302214   18.737992    ( 0.0000,  0.0000,  1.5000)
 112 Cr     7.468273    4.307150   18.718736    ( 0.0000,  0.0000,  1.5000)
 113 Co     9.951365    4.318112   18.731387    ( 0.0000,  0.0000,  1.5000)
 114 Co    12.445275    4.305296   18.744537    ( 0.0000,  0.0000,  0.0000)
 115 Co     3.740863    6.459076   18.741044    ( 0.0000,  0.0000,  0.0000)
 116 Cr     6.217689    6.472786   18.736054    ( 0.0000,  0.0000,  1.5000)
 117 Cr     8.709004    6.465931   18.718354    ( 0.0000,  0.0000,  0.0000)
 118 Ni    11.207929    6.465576   18.705468    ( 0.0000,  0.0000,  2.1000)
 119 Fe    13.697451    6.465489   18.739900    ( 0.0000,  0.0000,  0.0000)
 120 Ni     4.983428    8.632721   18.739518    ( 0.0000,  0.0000,  1.5000)
 121 Ni     7.469224    8.629196   18.723022    ( 0.0000,  0.0000,  1.5000)
 122 Fe     9.951770    8.622740   18.693815    ( 0.0000,  0.0000,  2.1000)
 123 Co    12.435945    8.632257   18.713130    ( 0.0000,  0.0000,  0.0000)
 124 Cr    14.940770    8.642831   18.751406    ( 0.0000,  0.0000,  0.0000)

Unit cell:
           periodic     x           y           z      points  spacing
  1. axis:    yes   12.446800    0.000000    0.000000    54     0.1996
  2. axis:    yes    6.223010   10.778600    0.000000    54     0.1996
  3. axis:    no     0.000000    0.000000   29.353100   128     0.2293

  Lengths:  12.446800  12.446046  29.353100
  Angles:   90.000000  90.000000  60.000070

Effective grid spacing dv^(1/3) = 0.2193

     iter     time        total  log10-change:  magmom
                         energy  eigst   dens
iter:   1 04:59:21 -1140.037329                  +175.5308
iter:   2 05:03:17 -2080.435356  +0.53  -1.18    +140.2893
iter:   3 05:07:13 -2034.352785  +0.99  -0.86    +113.6533
iter:   4 05:11:10 -1178.415391  -0.33  -0.84    +78.0723
iter:   5 05:15:06 -1045.425038  -1.25  -1.20    +60.2052
iter:   6 05:18:59 -1029.864006  -1.78  -1.33    +45.2399
iter:   7 05:23:13 -1013.196616  -1.73  -1.36    +41.7907
iter:   8 05:27:08 -1096.547184  -1.11  -1.39    +42.5821
iter:   9 05:30:54 -1149.034108  -1.10  -1.21    +41.7203
iter:  10 05:34:40 -1008.047281  -1.58  -1.13    +36.7636
iter:  11 05:38:26  -998.622488  -1.93  -1.44    +35.9984
iter:  12 05:42:12  -997.519237  -1.68  -1.47    +36.8408
iter:  13 05:46:44 -1006.621848  -1.68  -1.54    +38.5066
iter:  14 05:50:30  -991.236426  -1.65  -1.48    +39.8345
iter:  15 05:54:15 -1342.288251  -0.91  -1.69    +42.7156
iter:  16 05:58:01 -1004.792590  -1.24  -1.03    +40.0220
iter:  17 06:01:46  -998.336561  -1.92  -1.55    +38.3948
iter:  18 06:05:32  -989.922630  -2.31  -1.65    +40.2109
iter:  19 06:09:25  -996.526040  -1.93  -1.77    +41.3447
iter:  20 06:13:17  -989.260532  -2.26  -1.70    +44.1709
iter:  21 06:17:10 -1029.221895  -1.92  -1.79    +46.9128
iter:  22 06:21:05  -989.030323  -2.03  -1.45    +46.2935
iter:  23 06:25:02 -1014.412471  -2.21  -1.88    +47.4941
iter:  24 06:28:47  -989.127966  -2.41  -1.52    +49.9187
iter:  25 06:32:44  -989.373383  -3.03  -1.89    +51.4109
iter:  26 06:36:42  -989.346446  -2.75  -1.92    +53.3737
iter:  27 06:40:36  -999.641063  -2.19  -1.96    +55.0919
iter:  28 06:44:30  -989.965018  -2.43  -1.75    +55.3006
iter:  29 06:48:27  -992.202616  -2.89  -1.98    +56.7513
iter:  30 06:52:23 -1014.376470  -2.15  -1.94    +57.6946
iter:  31 06:56:21  -991.052491  -2.34  -1.55    +58.2695
iter:  32 07:00:19  -990.865081  -2.85  -2.08    +60.4128
iter:  33 07:03:55  -990.912288  -3.14  -2.08    +61.7394
iter:  34 07:07:53  -992.407538  -2.75  -2.14    +63.8677
iter:  35 07:11:51  -991.180883  -3.08  -2.05    +64.3184
iter:  36 07:15:50  -994.018167  -2.86  -2.19    +65.9331
iter:  37 07:19:48  -991.257938  -3.09  -1.97    +65.8496
iter:  38 07:23:46  -992.523925  -2.80  -2.27    +66.8207
iter:  39 07:27:45  -991.382915  -3.19  -2.14    +67.5723
iter:  40 07:31:43  -991.759715  -3.14  -2.33    +68.1431
iter:  41 07:35:40  -991.485435  -3.64  -2.28    +68.8194
iter:  42 07:39:38  -992.238908  -3.44  -2.38    +69.2846
iter:  43 07:43:36  -991.559532  -3.84  -2.24    +70.1079
iter:  44 07:47:34  -991.718759  -3.86  -2.44    +70.8768
iter:  45 07:51:32  -991.978485  -3.47  -2.45    +71.7127
iter:  46 07:55:30  -992.039295  -3.35  -2.45    +71.9718
iter:  47 07:59:27  -992.251282  -3.45  -2.57    +71.8113
iter:  48 08:03:25  -993.285715  -3.29  -2.45    +71.7963
iter:  49 08:07:22  -993.477619  -3.12  -2.22    +71.8190
iter:  50 08:11:20  -992.045818  -3.55  -2.19    +71.7863
iter:  51 08:15:18  -992.058151  -3.98  -2.71    +72.2045
iter:  52 08:19:16  -992.051817c -4.44  -2.72    +71.8943
iter:  53 08:23:14  -992.081154c -4.26  -2.81    +71.7138
iter:  54 08:27:11  -992.083313c -4.74  -2.81    +71.6672
iter:  55 08:31:09  -992.117966c -4.30  -2.88    +71.5130
iter:  56 08:35:07  -992.166054c -4.20  -3.00    +71.4783
iter:  57 08:39:05  -992.244376  -4.17  -2.90    +71.3909
iter:  58 08:43:02  -992.167348c -4.35  -2.74    +71.2440
iter:  59 08:47:00  -992.159756c -4.47  -2.97    +71.2251
iter:  60 08:50:58  -992.179305c -4.71  -3.20    +71.1547
iter:  61 08:54:55  -992.175492c -5.07  -3.07    +70.9630
iter:  62 08:58:53  -992.200360c -4.63  -3.17    +70.5890
iter:  63 09:02:49  -992.235987c -4.16  -3.12    +70.0278
iter:  64 09:06:47  -992.317314c -4.43  -3.08    +70.0105
iter:  65 09:10:44  -992.262588c -4.54  -2.76    +69.9199
iter:  66 09:14:41  -992.273721c -4.91  -3.01    +69.7942
iter:  67 09:18:38  -992.284267c -5.15  -3.01    +69.6167
iter:  68 09:22:37  -992.353850c -4.01  -2.99    +68.7799
iter:  69 09:26:34  -992.359289c -4.38  -2.84    +69.3789
iter:  70 09:30:32  -992.528556  -3.86  -2.78    +68.8004
iter:  71 09:34:30  -992.316849  -4.18  -2.55    +69.3174
iter:  72 09:38:27  -992.302673  -4.31  -2.94    +69.0999
iter:  73 09:42:25  -992.375450c -4.00  -2.99    +69.1164
iter:  74 09:46:22  -992.498185  -3.76  -2.79    +69.0392
iter:  75 09:50:19  -992.286203  -4.24  -2.61    +69.0245
iter:  76 09:54:17  -992.346567  -4.52  -3.10    +69.0601
iter:  77 09:58:14  -992.275286c -4.87  -2.85    +69.0072
iter:  78 10:02:11  -992.280447c -5.18  -3.31    +69.0407
iter:  79 10:06:09  -992.291390c -5.09  -3.36    +69.0149
iter:  80 10:10:06  -992.296404c -4.99  -3.31    +68.9981
iter:  81 10:14:04  -992.295891c -5.49  -3.41    +68.9988
iter:  82 10:18:02  -992.304193c -5.15  -3.32    +68.9562
iter:  83 10:21:59  -992.302175c -5.15  -3.29    +68.9394
iter:  84 10:25:57  -992.322356c -5.05  -3.39    +68.9494
iter:  85 10:29:54  -992.343977c -4.72  -3.12    +68.9131
iter:  86 10:33:51  -992.311939c -4.96  -2.98    +68.8670
iter:  87 10:37:47  -992.315423c -5.18  -3.42    +68.7793
iter:  88 10:41:41  -992.317982c -5.46  -3.48    +68.8111
iter:  89 10:45:35  -992.322282c -5.37  -3.46    +68.8284
iter:  90 10:49:28  -992.330135c -5.16  -3.50    +68.7880
iter:  91 10:53:22  -992.327010c -5.86  -3.37    +68.7827
iter:  92 10:57:15  -992.330341c -5.36  -3.45    +68.8112
iter:  93 11:01:08  -992.334361c -5.59  -3.55    +68.7679
iter:  94 11:05:01  -992.350857c -4.70  -3.55    +68.6451
iter:  95 11:08:54  -992.350296c -5.63  -3.38    +68.6830
iter:  96 11:12:47  -992.352401c -5.21  -3.30    +68.6193
iter:  97 11:16:41  -992.355331c -5.25  -3.43    +68.6226
iter:  98 11:20:34  -992.354522c -5.41  -3.36    +68.6408
iter:  99 11:24:25  -992.359543c -4.99  -3.47    +68.5774
iter: 100 11:28:18  -992.355194c -5.64  -3.31    +68.5638
iter: 101 11:32:12  -992.357582c -5.37  -3.63    +68.5535
iter: 102 11:36:06  -992.356349c -5.73  -3.64    +68.5246
iter: 103 11:40:04  -992.358696c -5.72  -3.83    +68.4462
iter: 104 11:44:01  -992.358332c -6.09  -3.72    +68.4100
iter: 105 11:47:59  -992.362617c -5.86  -3.87    +68.3985
iter: 106 11:51:56  -992.362710c -6.51  -3.46    +68.3935
iter: 107 11:55:53  -992.362062c -5.70  -3.46    +68.4267
iter: 108 11:59:51  -992.363105c -5.76  -3.62    +68.3940
iter: 109 12:03:48  -992.363400c -5.87  -3.65    +68.3730
iter: 110 12:07:45  -992.367139c -5.44  -3.80    +68.3296
iter: 111 12:11:42  -992.364222c -5.86  -3.53    +68.3314
iter: 112 12:15:38  -992.366358c -6.07  -3.87    +68.2840
iter: 113 12:19:33  -992.364792c -6.23  -3.62    +68.2946
iter: 114 12:23:31  -992.365260c -6.42  -4.10c   +68.2728
iter: 115 12:27:28  -992.366425c -6.14  -4.12c   +68.2402
iter: 116 12:31:25  -992.366138c -6.72  -4.13c   +68.2214
iter: 117 12:35:22  -992.366708c -6.53  -4.20c   +68.1980
iter: 118 12:39:19  -992.367637c -6.18  -4.29c   +68.1452
iter: 119 12:43:17  -992.367757c -6.69  -4.10c   +68.1516
iter: 120 12:47:14  -992.368002c -6.74  -4.24c   +68.1384
iter: 121 12:51:11  -992.368511c -6.47  -4.34c   +68.1168
iter: 122 12:55:09  -992.368895c -6.73  -4.20c   +68.1139
iter: 123 12:59:06  -992.368936c -6.79  -4.20c   +68.1010
iter: 124 13:03:03  -992.369294c -6.71  -4.26c   +68.0950
iter: 125 13:07:00  -992.369448c -6.87  -4.17c   +68.0842
iter: 126 13:10:57  -992.369636c -6.88  -4.29c   +68.0677
iter: 127 13:14:53  -992.369902c -7.03  -4.41c   +68.0590
iter: 128 13:18:50  -992.370167c -7.21  -4.39c   +68.0499
iter: 129 13:22:47  -992.369923c -7.45c -4.24c   +68.0641

Converged after 129 iterations.

Dipole moment: (51.447002, 28.526212, -0.010377) |e|*Ang

Total magnetic moment: (0.000000, 0.000000, 68.064098)
Local magnetic moments:
   0 Cr ( 0.000000,  0.000000, -2.120735)
   1 Co ( 0.000000,  0.000000,  1.511476)
   2 Co ( 0.000000,  0.000000,  1.184071)
   3 Cr ( 0.000000,  0.000000,  2.051126)
   4 Ni ( 0.000000,  0.000000, -0.099831)
   5 Ni ( 0.000000,  0.000000,  0.319524)
   6 Fe ( 0.000000,  0.000000,  2.255738)
   7 Cr ( 0.000000,  0.000000, -2.363618)
   8 Co ( 0.000000,  0.000000,  1.104099)
   9 Fe ( 0.000000,  0.000000,  2.417514)
  10 Cr ( 0.000000,  0.000000, -1.920620)
  11 Co ( 0.000000,  0.000000,  1.243599)
  12 Fe ( 0.000000,  0.000000,  2.579095)
  13 Cr ( 0.000000,  0.000000, -2.425808)
  14 Ni ( 0.000000,  0.000000,  0.227346)
  15 Co ( 0.000000,  0.000000,  0.179060)
  16 Co ( 0.000000,  0.000000,  1.377221)
  17 Co ( 0.000000,  0.000000,  1.430182)
  18 Cr ( 0.000000,  0.000000,  1.847863)
  19 Ni ( 0.000000,  0.000000, -0.024183)
  20 Cr ( 0.000000,  0.000000, -1.583860)
  21 Ni ( 0.000000,  0.000000,  0.282392)
  22 Co ( 0.000000,  0.000000,  1.318260)
  23 Co ( 0.000000,  0.000000, -1.047752)
  24 Co ( 0.000000,  0.000000, -1.060616)
  25 Fe ( 0.000000,  0.000000,  1.487212)
  26 Co ( 0.000000,  0.000000,  1.088181)
  27 Cr ( 0.000000,  0.000000, -0.315860)
  28 Fe ( 0.000000,  0.000000, -1.635065)
  29 Cr ( 0.000000,  0.000000,  0.668369)
  30 Fe ( 0.000000,  0.000000,  1.722956)
  31 Fe ( 0.000000,  0.000000,  1.915730)
  32 Ni ( 0.000000,  0.000000,  0.143848)
  33 Fe ( 0.000000,  0.000000, -1.539560)
  34 Cr ( 0.000000,  0.000000, -0.395810)
  35 Cr ( 0.000000,  0.000000, -0.465320)
  36 Fe ( 0.000000,  0.000000,  1.814398)
  37 Ni ( 0.000000,  0.000000,  0.290333)
  38 Ni ( 0.000000,  0.000000,  0.299563)
  39 Co ( 0.000000,  0.000000,  0.915230)
  40 Cr ( 0.000000,  0.000000,  0.086357)
  41 Co ( 0.000000,  0.000000,  1.194642)
  42 Co ( 0.000000,  0.000000,  1.346632)
  43 Fe ( 0.000000,  0.000000,  1.653199)
  44 Fe ( 0.000000,  0.000000,  1.596715)
  45 Cr ( 0.000000,  0.000000, -0.002223)
  46 Ni ( 0.000000,  0.000000,  0.264058)
  47 Ni ( 0.000000,  0.000000,  0.176428)
  48 Cr ( 0.000000,  0.000000, -0.540788)
  49 Fe ( 0.000000,  0.000000, -1.433319)
  50 Cr ( 0.000000,  0.000000, -0.864332)
  51 Ni ( 0.000000,  0.000000,  0.169075)
  52 Co ( 0.000000,  0.000000,  0.781241)
  53 Cr ( 0.000000,  0.000000, -0.757692)
  54 Fe ( 0.000000,  0.000000,  1.487402)
  55 Cr ( 0.000000,  0.000000, -1.148983)
  56 Fe ( 0.000000,  0.000000,  1.956289)
  57 Cr ( 0.000000,  0.000000,  0.052018)
  58 Ni ( 0.000000,  0.000000,  0.129209)
  59 Ni ( 0.000000,  0.000000,  0.139878)
  60 Co ( 0.000000,  0.000000,  0.846941)
  61 Cr ( 0.000000,  0.000000, -1.502913)
  62 Co ( 0.000000,  0.000000,  0.810780)
  63 Cr ( 0.000000,  0.000000, -1.001064)
  64 Ni ( 0.000000,  0.000000,  0.136322)
  65 Fe ( 0.000000,  0.000000,  1.602176)
  66 Co ( 0.000000,  0.000000,  1.143561)
  67 Fe ( 0.000000,  0.000000, -1.519762)
  68 Cr ( 0.000000,  0.000000, -0.684499)
  69 Cr ( 0.000000,  0.000000, -0.726189)
  70 Cr ( 0.000000,  0.000000, -0.887683)
  71 Cr ( 0.000000,  0.000000,  0.034618)
  72 Cr ( 0.000000,  0.000000,  0.313898)
  73 Fe ( 0.000000,  0.000000,  1.417182)
  74 Fe ( 0.000000,  0.000000,  1.312444)
  75 Fe ( 0.000000,  0.000000,  2.282100)
  76 Ni ( 0.000000,  0.000000,  0.424165)
  77 Co ( 0.000000,  0.000000,  1.565925)
  78 Ni ( 0.000000,  0.000000,  0.429927)
  79 Fe ( 0.000000,  0.000000,  2.219404)
  80 Co ( 0.000000,  0.000000,  1.235214)
  81 Fe ( 0.000000,  0.000000,  2.158698)
  82 Fe ( 0.000000,  0.000000,  2.132908)
  83 Co ( 0.000000,  0.000000,  1.262263)
  84 Ni ( 0.000000,  0.000000,  0.521971)
  85 Ni ( 0.000000,  0.000000,  0.335527)
  86 Fe ( 0.000000,  0.000000,  2.055563)
  87 Ni ( 0.000000,  0.000000,  0.262542)
  88 Fe ( 0.000000,  0.000000,  2.180017)
  89 Fe ( 0.000000,  0.000000,  2.144441)
  90 Fe ( 0.000000,  0.000000,  2.026124)
  91 Ni ( 0.000000,  0.000000,  0.392004)
  92 Co ( 0.000000,  0.000000,  1.221861)
  93 Ni ( 0.000000,  0.000000,  0.368119)
  94 Fe ( 0.000000,  0.000000,  1.822099)
  95 Co ( 0.000000,  0.000000,  1.175838)
  96 Fe ( 0.000000,  0.000000,  2.227425)
  97 Ni ( 0.000000,  0.000000,  0.474444)
  98 Ni ( 0.000000,  0.000000,  0.386872)
  99 Cr ( 0.000000,  0.000000, -0.587988)
 100 Ni ( 0.000000,  0.000000,  0.648334)
 101 Co ( 0.000000,  0.000000,  1.656764)
 102 Fe ( 0.000000,  0.000000,  2.760242)
 103 Co ( 0.000000,  0.000000,  1.399246)
 104 Ni ( 0.000000,  0.000000,  0.426236)
 105 Fe ( 0.000000,  0.000000,  2.668524)
 106 Ni ( 0.000000,  0.000000,  0.563239)
 107 Co ( 0.000000,  0.000000,  1.583568)
 108 Co ( 0.000000,  0.000000,  1.609086)
 109 Ni ( 0.000000,  0.000000,  0.677974)
 110 Cr ( 0.000000,  0.000000, -2.593675)
 111 Ni ( 0.000000,  0.000000,  0.408107)
 112 Cr ( 0.000000,  0.000000, -2.291551)
 113 Co ( 0.000000,  0.000000,  1.387995)
 114 Co ( 0.000000,  0.000000,  1.613139)
 115 Co ( 0.000000,  0.000000,  1.346860)
 116 Cr ( 0.000000,  0.000000,  2.163041)
 117 Cr ( 0.000000,  0.000000, -2.443312)
 118 Ni ( 0.000000,  0.000000,  0.542692)
 119 Fe ( 0.000000,  0.000000,  2.540485)
 120 Ni ( 0.000000,  0.000000,  0.431148)
 121 Ni ( 0.000000,  0.000000,  0.422693)
 122 Fe ( 0.000000,  0.000000,  2.654715)
 123 Co ( 0.000000,  0.000000,  1.551192)
 124 Cr ( 0.000000,  0.000000, -2.400009)

Energy contributions relative to reference atoms: (reference = -4451268.207082)

Kinetic:       +229.090144
Potential:     -286.627901
External:        +0.000000
XC:            -977.508607
Entropy (-ST):   -5.746545
Local:          +45.549713
--------------------------
Free energy:   -995.243196
Extrapolated:  -992.369923

Dipole-layer corrected work functions: 4.943310, 4.957307 eV

Spin contamination: 45.167664 electrons
Showing all kpts
                      Up                     Down
 Kpt  Band  Eigenvalues  Occupancy  Eigenvalues  Occupancy
  0   606      0.01992    0.99192      0.81266    0.04241
  0   607      0.03239    0.99086      0.82259    0.03855
  0   608      0.05172    0.98893      0.83233    0.03510
  0   609      0.05529    0.98853      0.83843    0.03309

  1   606      0.03231    0.99087      0.81573    0.04118
  1   607      0.03634    0.99049      0.82808    0.03657
  1   608      0.04548    0.98959      0.83256    0.03502
  1   609      0.06204    0.98774      0.84198    0.03198


Fermi level: 0.50096

No gap

Forces in eV/Ang:
  0 Cr    0.31605    0.21266   -0.30485
  1 Co    0.07315   -0.07698    0.18858
  2 Co   -0.33074   -0.38790    0.15148
  3 Cr    0.38317   -0.41011   -0.26161
  4 Ni   -0.06967   -0.05384   -0.20633
  5 Ni   -0.11324    0.04048   -0.19995
  6 Fe   -0.22312   -0.02940   -0.37529
  7 Cr    0.04623    0.28219   -0.12925
  8 Co    0.17611    0.07045    0.23316
  9 Fe    0.16295   -0.00669    0.08118
 10 Cr    0.09149    0.19253   -0.23190
 11 Co   -0.04712    0.42291    0.39928
 12 Fe   -0.22567    0.25318   -0.11969
 13 Cr   -0.27114   -0.08235   -0.15667
 14 Ni    0.36111   -0.25176   -0.00964
 15 Co    0.15889   -0.00088    0.30448
 16 Co   -0.10327   -0.10660    0.00069
 17 Co   -0.34841    0.05902    0.08288
 18 Cr    0.26541    0.32941   -0.48691
 19 Ni    0.23452    0.24557   -0.03821
 20 Cr   -0.41846   -0.44816    0.07474
 21 Ni    0.05391   -0.07703    0.00748
 22 Co   -0.07320    0.24083    0.18526
 23 Co   -0.22125    0.07080    0.32007
 24 Co   -0.04254   -0.29794    0.36339
 25 Fe    0.01069    0.07229   -0.18213
 26 Co    0.07792    0.01263   -0.19024
 27 Cr    0.20969   -0.08168   -0.45583
 28 Fe   -0.04841    0.09661   -0.10842
 29 Cr   -0.03343   -0.04535   -0.34519
 30 Fe   -0.19107    0.06635   -0.07955
 31 Fe    0.05000   -0.25172   -0.06307
 32 Ni    0.10203   -0.01203    0.41568
 33 Fe   -0.22006   -0.15915   -0.21442
 34 Cr   -0.04971    0.03580    0.43312
 35 Cr   -0.03232    0.20601   -0.14545
 36 Fe    0.34986    0.17677   -0.04985
 37 Ni    0.13960    0.17153   -0.15660
 38 Ni   -0.15504   -0.11259    0.12552
 39 Co   -0.24896   -0.15035   -0.09310
 40 Cr    0.52443    0.08940   -0.24469
 41 Co   -0.12310    0.16075   -0.11739
 42 Co   -0.15062    0.01955    0.02877
 43 Fe   -0.06815   -0.18115    0.29834
 44 Fe   -0.30181    0.00172   -0.05582
 45 Cr    0.08310   -0.44329   -0.28724
 46 Ni   -0.07215   -0.19155    0.02901
 47 Ni   -0.06628   -0.18559   -0.01354
 48 Cr    0.12517    0.17959   -0.25783
 49 Fe    0.10719    0.10353   -0.12275
 50 Cr   -0.06049    0.01522   -0.11068
 51 Ni    0.08909   -0.02938   -0.10231
 52 Co    0.01350    0.09729   -0.01169
 53 Cr   -0.09724   -0.14336   -0.16652
 54 Fe    0.22835    0.19834   -0.03044
 55 Cr   -0.00593    0.30432    0.10220
 56 Fe   -0.04991   -0.26385   -0.14485
 57 Cr    0.34997   -0.20430   -0.31901
 58 Ni    0.05259    0.03051   -0.13121
 59 Ni   -0.00408   -0.11514   -0.23015
 60 Co    0.04530    0.14850    0.03432
 61 Cr   -0.24196    0.09656   -0.25983
 62 Co    0.04239   -0.05351    0.01750
 63 Cr    0.14135   -0.00069   -0.29622
 64 Ni   -0.06996   -0.00018   -0.13279
 65 Fe    0.14163   -0.05133   -0.28720
 66 Co   -0.04644   -0.04972   -0.08519
 67 Fe    0.17836    0.24102   -0.22600
 68 Cr   -0.22707    0.02585    0.08650
 69 Cr    0.32346    0.06288   -0.11092
 70 Cr   -0.23479   -0.05121    0.25544
 71 Cr   -0.01439   -0.07028   -0.10750
 72 Cr    0.30787   -0.12435    0.16495
 73 Fe   -0.00392    0.01466   -0.18127
 74 Fe   -0.08143   -0.07972    0.01286
 75 Fe   -0.06790    0.18562   -0.41956
 76 Ni    0.06762   -0.10815    0.01753
 77 Co    0.09702    0.14940   -0.11724
 78 Ni   -0.22122    0.08746    0.06811
 79 Fe   -0.15695    0.00436   -0.01052
 80 Co   -0.11610   -0.12492    0.23553
 81 Fe   -0.01409   -0.06263    0.18685
 82 Fe    0.04186   -0.15770    0.46475
 83 Co   -0.10296   -0.04394    0.20965
 84 Ni    0.11206   -0.09826    0.07803
 85 Ni    0.00799    0.19993    0.06556
 86 Fe   -0.30071   -0.06441   -0.26544
 87 Ni    0.11174    0.10429   -0.31910
 88 Fe   -0.17374   -0.04909    0.07802
 89 Fe   -0.04976   -0.20541   -0.03739
 90 Fe    0.06735    0.04166    0.18665
 91 Ni    0.14773   -0.07001   -0.32313
 92 Co   -0.21094    0.25451   -0.07217
 93 Ni   -0.05559    0.16376   -0.10131
 94 Fe   -0.11774    0.22547   -0.05724
 95 Co   -0.20138   -0.06651    0.01400
 96 Fe    0.07940   -0.20183    0.20942
 97 Ni   -0.10693   -0.00531   -0.21347
 98 Ni    0.27727    0.03701   -0.00578
 99 Cr   -0.02423    0.00069   -0.03681
100 Ni    0.05226   -0.02767    0.22757
101 Co   -0.07005   -0.14848    0.13387
102 Fe    0.17294    0.14818    0.38466
103 Co    0.00923   -0.08183    0.03797
104 Ni   -0.03552    0.16168    0.32878
105 Fe   -0.03118   -0.03294    0.30882
106 Ni    0.22144   -0.02958    0.11979
107 Co   -0.10436    0.04053    0.06713
108 Co    0.06600    0.01671   -0.11119
109 Ni   -0.05935    0.17333    0.19653
110 Cr    0.13789   -0.02626    0.37909
111 Ni   -0.11103   -0.15044    0.20483
112 Cr   -0.24532   -0.87593    0.18320
113 Co    0.10086   -0.08875   -0.16267
114 Co   -0.36911    0.04932   -0.27948
115 Co    0.00383    0.12706   -0.27612
116 Cr    0.19558   -0.02435    0.62436
117 Cr    0.58148    0.57022    0.39569
118 Ni    0.08931   -0.11718    0.39944
119 Fe   -0.20512    0.06448    0.14798
120 Ni   -0.05764    0.09272    0.10257
121 Ni    0.03972    0.31597    0.17934
122 Fe   -0.19912   -0.02321    0.38964
123 Co    0.05579    0.11549   -0.05241
124 Cr    0.03785   -0.21317    0.43781

Timing:                              incl.     excl.
-----------------------------------------------------------
Forces:                             49.205    49.205   0.2% |
Hamiltonian:                         2.095     0.019   0.0% |
 Atomic:                             0.434     0.002   0.0% |
  XC Correction:                     0.432     0.432   0.0% |
 Calculate atomic Hamiltonians:      0.935     0.935   0.0% |
 Communicate:                        0.078     0.078   0.0% |
 Initialize Hamiltonian:             0.001     0.001   0.0% |
 Poisson:                            0.145     0.145   0.0% |
 XC 3D grid:                         0.482     0.482   0.0% |
LCAO initialization:               406.856     0.494   0.0% |
 LCAO eigensolver:                  29.526     0.035   0.0% |
  Calculate projections:             0.000     0.000   0.0% |
  DenseAtomicCorrection:             0.000     0.000   0.0% |
  Distribute overlap matrix:        14.557    14.557   0.0% |
  Orbital Layouts:                  14.862    14.862   0.0% |
  Potential matrix:                  0.008     0.008   0.0% |
  Sum over cells:                    0.064     0.064   0.0% |
 LCAO to grid:                     373.837   373.837   1.2% |
 Set positions (LCAO WFS):           2.999     2.606   0.0% |
  Basic WFS set positions:           0.004     0.004   0.0% |
  Basis functions set positions:     0.001     0.001   0.0% |
  P tci:                             0.001     0.001   0.0% |
  ST tci:                            0.161     0.161   0.0% |
  mktci:                             0.227     0.227   0.0% |
PWDescriptor:                        0.176     0.176   0.0% |
SCF-cycle:                       30459.237     1.634   0.0% |
 Davidson:                       29691.396  7509.256  24.3% |---------|
  Apply H:                         523.840   514.671   1.7% ||
   HMM T:                            9.168     9.168   0.0% |
  Subspace diag:                  2670.029     0.080   0.0% |
   calc_h_matrix:                 1139.780   682.294   2.2% ||
    Apply H:                       457.486   447.577   1.4% ||
     HMM T:                          9.909     9.909   0.0% |
   diagonalize:                    285.157   285.157   0.9% |
   rotate_psi:                    1245.011  1245.011   4.0% |-|
  calc. matrices:                 6181.530  5310.302  17.2% |------|
   Apply H:                        871.228   852.522   2.8% ||
    HMM T:                          18.706    18.706   0.1% |
  diagonalize:                   10088.295 10088.295  32.6% |------------|
  rotate_psi:                     2718.447  2718.447   8.8% |---|
 Density:                          436.176     0.006   0.0% |
  Atomic density matrices:           4.699     4.699   0.0% |
  Mix:                             212.316   212.316   0.7% |
  Multipole moments:                 0.119     0.119   0.0% |
  Pseudo density:                  219.036   219.028   0.7% |
   Symmetrize density:               0.008     0.008   0.0% |
 Hamiltonian:                      307.126     2.157   0.0% |
  Atomic:                           56.723     0.242   0.0% |
   XC Correction:                   56.481    56.481   0.2% |
  Calculate atomic Hamiltonians:   173.599   173.599   0.6% |
  Communicate:                       9.490     9.490   0.0% |
  Poisson:                           6.532     6.532   0.0% |
  XC 3D grid:                       58.625    58.625   0.2% |
 Orthonormalize:                    22.906     0.001   0.0% |
  calc_s_matrix:                     2.955     2.955   0.0% |
  inverse-cholesky:                  1.191     1.191   0.0% |
  projections:                      13.931    13.931   0.0% |
  rotate_psi_s:                      4.827     4.827   0.0% |
Set symmetry:                        0.001     0.001   0.0% |
Other:                               8.942     8.942   0.0% |
-----------------------------------------------------------
Total:                                     30926.512 100.0%

Date: Thu Apr 20 13:23:41 2023
