
  ___ ___ ___ _ _ _  
 |   |   |_  | | | | 
 | | | | | . | | | | 
 |__ |  _|___|_____|  22.8.0
 |___|_|             

User:   c.zeng@d0107
Date:   Thu Apr 20 14:23:48 2023
Arch:   x86_64
Pid:    219050
CWD:    /home/c.zeng/projects/hea-corrosion/hea-mlp/data-curation/surface-mcmc/dft-jobs/82
Python: 3.8.1
gpaw:   /home/c.zeng/usr/installs/gpaw/source/gpaw-22.8.0/gpaw
_gpaw:  /home/c.zeng/usr/installs/gpaw/source/gpaw-22.8.0/
        _gpaw.cpython-38-x86_64-linux-gnu.so
ase:    /home/c.zeng/.local/lib/python3.8/site-packages/ase-3.22.1-py3.8.egg/ase (version 3.22.1)
numpy:  /home/c.zeng/.local/lib/python3.8/site-packages/numpy (version 1.24.2)
scipy:  /home/c.zeng/.local/lib/python3.8/site-packages/scipy (version 1.10.1)
libxc:  4.2.3
units:  Angstrom and eV
cores: 30
OpenMP: False
OMP_NUM_THREADS: 1

Input parameters:
  convergence: {energy: 0.0001}
  kpts: [2 2 1]
  maxiter: 666
  mode: {ecut: 350.0,
         name: pw}
  occupations: {fixmagmom: False,
                name: fermi-dirac,
                width: 0.1}
  poissonsolver: {dipolelayer: xy}
  spinpol: True
  symmetry: {point_group: False}
  xc: PBE

System changes: positions, numbers, cell, pbc, initial_charges, initial_magmoms 

Initialize ...

species:
  Co:
    name: Cobalt
    id: 339d20d5b0b93d2de9531a1bee871d91
    Z: 27.0
    valence: 9
    core: 18
    charge: 0.0
    file: /home/c.zeng/usr/data/gpaw-setups-0.9.20000/Co.PBE.gz
    compensation charges: {type: gauss,
                           rc: 0.32,
                           lmax: 2}
    cutoffs: {filter: 1.87,
              core: 2.55}
    valence states:
      #              energy  rcut
      - 4s(2.00)    -5.469   1.005
      - 4p(0.00)    -1.277   1.058
      - 3d(7.00)    -8.205   1.005
      -  s          21.742   1.005
      -  p          25.934   1.058
      -  d          19.007   1.005
  
    # Using partial waves for Co as LCAO basis

  Cr:
    name: Chromium
    id: 33f258bda2ca9f93018e70263a35547b
    Z: 24.0
    valence: 6
    core: 18
    charge: 0.0
    file: /home/c.zeng/usr/data/gpaw-setups-0.9.20000/Cr.PBE.gz
    compensation charges: {type: gauss,
                           rc: 0.35,
                           lmax: 2}
    cutoffs: {filter: 2.14,
              core: 3.04}
    valence states:
      #              energy  rcut
      - 4s(1.00)    -4.007   1.164
      - 4p(0.00)    -0.989   1.217
      - 3d(5.00)    -2.913   1.111
      -  s          23.205   1.164
      -  p          26.223   1.217
      -  d          24.299   1.111
  
    # Using partial waves for Cr as LCAO basis

  Ni:
    name: Nickel
    id: 0d9f38a9d6e76a2886f07bb4381f212b
    Z: 28.0
    valence: 16
    core: 12
    charge: 0.0
    file: /home/c.zeng/usr/data/gpaw-setups-0.9.20000/Ni.PBE.gz
    compensation charges: {type: gauss,
                           rc: 0.36,
                           lmax: 2}
    cutoffs: {filter: 2.14,
              core: 1.98}
    valence states:
      #              energy  rcut
      - 4s(2.00)    -5.642   1.164
      - 3p(6.00)   -71.394   1.207
      - 4p(0.00)    -1.226   1.207
      - 3d(8.00)    -8.875   1.138
      -  s          21.570   1.164
      -  d          18.337   1.138
  
    # Using partial waves for Ni as LCAO basis

  Al:
    name: Aluminium
    id: 0292cae29f5d6237e50f6abdd43a7bdd
    Z: 13.0
    valence: 3
    core: 10
    charge: 0.0
    file: /home/c.zeng/usr/data/gpaw-setups-0.9.20000/Al.PBE.gz
    compensation charges: {type: gauss,
                           rc: 0.34,
                           lmax: 2}
    cutoffs: {filter: 1.91,
              core: 2.36}
    valence states:
      #              energy  rcut
      - 3s(2.00)    -7.753   1.085
      - 3p(1.00)    -2.712   1.085
      -  s          19.459   1.085
      -  p          24.499   1.085
      -  d           0.000   1.085
  
    # Using partial waves for Al as LCAO basis

  Fe:
    name: Iron
    id: 37abbd8d6c3c35915a9b583b742da910
    Z: 26.0
    valence: 8
    core: 18
    charge: 0.0
    file: /home/c.zeng/usr/data/gpaw-setups-0.9.20000/Fe.PBE.gz
    compensation charges: {type: gauss,
                           rc: 0.33,
                           lmax: 2}
    cutoffs: {filter: 2.06,
              core: 2.67}
    valence states:
      #              energy  rcut
      - 4s(2.00)    -5.291   1.164
      - 4p(0.00)    -1.326   1.058
      - 3d(6.00)    -7.505   1.058
      -  s          21.920   1.164
      -  p          25.885   1.058
      -  d          19.706   1.058
  
    # Using partial waves for Fe as LCAO basis

Reference energy: -4275894.041763  # eV

Spin-polarized calculation.
Magnetic moment: 165.900000

Convergence criteria:
 Maximum [total energy] change in last 3 cyles: 0.0001 eV / electron
 Maximum integral of absolute [dens]ity change: 0.0001 electrons / valence electron
 Maximum integral of absolute [eigenst]ate change: 4e-08 eV^2 / valence electron
 Maximum number of scf [iter]ations: 666
 (Square brackets indicate name in SCF output, whereas a 'c' in
 the SCF output indicates the quantity has converged.)

Symmetries present (total): 1

  ( 1  0  0)
  ( 0  1  0)
  ( 0  0  1)

4 k-points: 2 x 2 x 1 Monkhorst-Pack grid
2 k-points in the irreducible part of the Brillouin zone
       k-points in crystal coordinates                weights
   0:     0.25000000   -0.25000000    0.00000000          2/4
   1:     0.25000000    0.25000000    0.00000000          2/4

Wave functions: Plane wave expansion
  Cutoff energy: 350.000 eV
  Number of coefficients (min, max): 58901, 58943
  Pulay-stress correction: 0.000000 eV/Ang^3 (de/decut=0.000000)
  Using FFTW library
  ScaLapack parameters: grid=1x1, blocksize=None
  Wavefunction extrapolation:
    Improved wavefunction reuse through dual PAW basis 

Occupation numbers: Fermi-Dirac:
  width: 0.1000  # eV
 

Eigensolver
   Davidson(niter=2) 

Densities:
  Coarse grid: 54*54*128 grid
  Fine grid: 108*108*256 grid
  Total Charge: 0.000000 

Density mixing:
  Method: difference
  Backend: pulay
  Linear mixing parameter: 0.05
  old densities: 5
  Damping of long wavelength oscillations: 50 

Hamiltonian:
  XC and Coulomb potentials evaluated on a 108*108*256 grid
  Using the PBE Exchange-Correlation functional
  External potential:
    NoExternalPotential
 

XC parameters: PBE with 2 nearest neighbor stencil

Memory estimate:
  Process memory now: 368.84 MiB
  Calculator: 2335.53 MiB
    Density: 17.84 MiB
      Arrays: 6.75 MiB
      Localized functions: 8.39 MiB
      Mixer: 2.70 MiB
    Hamiltonian: 5.27 MiB
      Arrays: 5.01 MiB
      XC: 0.00 MiB
      Poisson: 0.00 MiB
      vbar: 0.25 MiB
    Wavefunctions: 2312.43 MiB
      Arrays psit_nG: 1458.82 MiB
      Eigensolver: 834.29 MiB
      Projections: 3.66 MiB
      Projectors: 1.14 MiB
      PW-descriptor: 14.51 MiB

Total number of cores used: 30
Parallelization over k-points: 2
Domain decomposition: 1 x 3 x 5

Number of atoms: 125
Number of atomic orbitals: 1185
Number of bands in calculation: 811
Number of valence electrons: 1179
Bands to converge: occupied

... initialized

Initializing position-dependent things.

Density initialized from atomic densities
Creating initial wave functions:
  811 bands from LCAO basis set

                                                                  
                                                                  
                                                                  
                                                                  
                             Cr                       Cr          
                               Ni    Co    Ni    Cr    Ni         
                          Co     Ni    Cr    Cr    Co             
                                Fe    Co    Fe    Al    Cr        
                Co    Cr   NCr   CCo    FAl   Cr    Ni            
           Ni     Co   FCo   FCo   FFe   Cr     Ni   Ni           
             Cr    Co     FeCo    Ni    Fe     Fe                 
                  Fe    NNi   FCr   FCo   CNi   ANi               
              Co   NNi   CNi   CCFe  FNCr  NNi   Fe               
               Fe    Co    Cr    Ni     Fe                        
                          Fe    NFe   CFe   CNi   FNi   Al        
           Fe    Cr   ACr  CCCo   FCr   CCo   CFe   Ni            
            Ni    Fe    Fe    Fe    Ni                            
                       Co    Cr    Al    Cr    Cr                 
       Ni    Cr   CCr    Co    NFe   Co    Ni                     
              Cr    Co    Cr     Cr    Co                         
                                                                  
                                                                  
                                                                  
                                                                  
                                                                  

Positions:
   0 Co    12.486468    1.462777   10.528605    ( 0.0000,  0.0000,  1.5000)
   1 Cr     2.491286    1.427324   10.624355    ( 0.0000,  0.0000,  2.0000)
   2 Co     4.996443    1.433664   10.615695    ( 0.0000,  0.0000,  2.1000)
   3 Cr     7.497692    1.450585   10.618513    ( 0.0000,  0.0000,  2.0000)
   4 Cr     9.980354    1.438381   10.617016    ( 0.0000,  0.0000,  2.1000)
   5 Ni    13.725570    3.599047   10.613993    ( 0.0000,  0.0000,  2.1000)
   6 Co     3.721032    3.570702   10.596763    ( 0.0000,  0.0000,  1.5000)
   7 Co     6.265421    3.568181   10.621801    ( 0.0000,  0.0000,  2.0000)
   8 Ni     8.741341    3.586865   10.615549    ( 0.0000,  0.0000,  2.0000)
   9 Co    11.233064    3.610428   10.573163    ( 0.0000,  0.0000,  0.0000)
  10 Cr    14.927431    5.761281   10.554435    ( 0.0000,  0.0000,  1.5000)
  11 Co     5.002416    5.751707   10.362584    ( 0.0000,  0.0000,  0.0000)
  12 Cr     7.528897    5.754942   10.601782    ( 0.0000,  0.0000,  1.5000)
  13 Al     9.984614    5.751426   10.596909    ( 0.0000,  0.0000,  2.1000)
  14 Cr    12.467830    5.774643   10.569993    ( 0.0000,  0.0000,  0.0000)
  15 Ni    16.185528    7.952943   10.517715    ( 0.0000,  0.0000,  0.0000)
  16 Co     6.281890    7.953062   10.585785    ( 0.0000,  0.0000,  2.0000)
  17 Cr     8.751632    7.929564   10.589659    ( 0.0000,  0.0000,  2.0000)
  18 Co    11.232798    7.933199   10.565472    ( 0.0000,  0.0000,  0.0000)
  19 Co    13.711755    7.928211   10.595530    ( 0.0000,  0.0000,  2.0000)
  20 Al    17.465073   10.103493   10.559367    ( 0.0000,  0.0000,  2.1000)
  21 Ni     7.524528   10.087482   10.585491    ( 0.0000,  0.0000,  2.1000)
  22 Cr     9.999339   10.092837   10.628699    ( 0.0000,  0.0000,  2.1000)
  23 Co    12.492524   10.103136   10.590364    ( 0.0000,  0.0000,  1.5000)
  24 Fe    14.967562   10.103591   10.598553    ( 0.0000,  0.0000,  1.5000)
  25 Ni     0.039549    0.061487   12.592509    ( 0.0000,  0.0000,  0.0000)
  26 Cr     2.543839    0.004196   12.633574    ( 0.0000,  0.0000,  2.1000)
  27 Cr     5.007959    0.016292   12.619485    ( 0.0000,  0.0000,  1.5000)
  28 Al    13.725047   10.821613   12.614847    ( 0.0000,  0.0000,  1.5000)
  29 Fe     9.941746    0.020015   12.634836    ( 0.0000,  0.0000,  2.1000)
  30 Ni     1.280557    2.197634   12.622449    ( 0.0000,  0.0000,  2.0000)
  31 Fe     3.757003    2.159238   12.617870    ( 0.0000,  0.0000,  0.0000)
  32 Fe     6.259391    2.150539   12.632283    ( 0.0000,  0.0000,  0.0000)
  33 Fe     8.729061    2.160536   12.640942    ( 0.0000,  0.0000,  1.5000)
  34 Ni    11.206426    2.199527   12.600112    ( 0.0000,  0.0000,  0.0000)
  35 Fe    14.980028    4.321894   12.623066    ( 0.0000,  0.0000,  1.5000)
  36 Al     5.000637    4.306532   12.605865    ( 0.0000,  0.0000,  0.0000)
  37 Cr     7.511972    4.316766   12.613115    ( 0.0000,  0.0000,  2.0000)
  38 Fe     9.977581    4.334444   12.603575    ( 0.0000,  0.0000,  2.0000)
  39 Co    12.466237    4.352219   12.609857    ( 0.0000,  0.0000,  0.0000)
  40 Ni    16.217374    6.438246   12.562775    ( 0.0000,  0.0000,  2.1000)
  41 Fe     6.249088    6.441384   12.586551    ( 0.0000,  0.0000,  2.1000)
  42 Fe     8.734867    6.480104   12.598380    ( 0.0000,  0.0000,  2.1000)
  43 Fe    11.217541    6.497393   12.580210    ( 0.0000,  0.0000,  1.5000)
  44 Ni    13.747589    6.470530   12.591629    ( 0.0000,  0.0000,  0.0000)
  45 Co     4.965631    8.600697   12.619661    ( 0.0000,  0.0000,  0.0000)
  46 Cr     7.527050    8.647229   12.603517    ( 0.0000,  0.0000,  2.0000)
  47 Fe     9.992787    8.639093   12.602137    ( 0.0000,  0.0000,  0.0000)
  48 Ni    12.461146    8.678950   12.599202    ( 0.0000,  0.0000,  2.1000)
  49 Fe    14.923147    8.662851   12.605102    ( 0.0000,  0.0000,  0.0000)
  50 Fe     1.264555    0.726556   14.701676    ( 0.0000,  0.0000,  2.1000)
  51 Cr     3.750060    0.743838   14.683888    ( 0.0000,  0.0000,  1.5000)
  52 Cr     6.237655    0.730758   14.677812    ( 0.0000,  0.0000,  2.1000)
  53 Co     8.726659    0.737641   14.712772    ( 0.0000,  0.0000,  2.0000)
  54 Cr    11.216460    0.725550   14.709367    ( 0.0000,  0.0000,  2.1000)
  55 Fe     2.513395    2.883675   14.691579    ( 0.0000,  0.0000,  1.5000)
  56 Co     4.990849    2.893120   14.684241    ( 0.0000,  0.0000,  2.0000)
  57 Cr     7.488486    2.893629   14.696334    ( 0.0000,  0.0000,  0.0000)
  58 Ni     9.972278    2.890664   14.692489    ( 0.0000,  0.0000,  2.0000)
  59 Fe    12.467576    2.877141   14.691667    ( 0.0000,  0.0000,  0.0000)
  60 Ni     3.758526    5.050346   14.670151    ( 0.0000,  0.0000,  2.0000)
  61 Fe     6.246120    5.038056   14.669564    ( 0.0000,  0.0000,  1.5000)
  62 Co     8.732126    5.049902   14.667773    ( 0.0000,  0.0000,  1.5000)
  63 Ni    11.205583    5.023028   14.695277    ( 0.0000,  0.0000,  1.5000)
  64 Ni    13.756582    5.017781   14.684505    ( 0.0000,  0.0000,  2.0000)
  65 Ni     5.010694    7.182699   14.702674    ( 0.0000,  0.0000,  1.5000)
  66 Fe     7.485228    7.189460   14.657588    ( 0.0000,  0.0000,  0.0000)
  67 Fe     9.946463    7.198159   14.653068    ( 0.0000,  0.0000,  2.1000)
  68 Co    12.473405    7.201264   14.677166    ( 0.0000,  0.0000,  0.0000)
  69 Ni    15.017763    7.213900   14.645054    ( 0.0000,  0.0000,  2.1000)
  70 Co     6.251064    9.372532   14.712302    ( 0.0000,  0.0000,  2.1000)
  71 Ni     8.729758    9.372705   14.658410    ( 0.0000,  0.0000,  0.0000)
  72 Fe    11.200962    9.406124   14.647901    ( 0.0000,  0.0000,  1.5000)
  73 Fe    13.749704    9.394894   14.665366    ( 0.0000,  0.0000,  2.0000)
  74 Ni    16.223386    9.399309   14.720785    ( 0.0000,  0.0000,  1.5000)
  75 Cr    12.479408    1.425961   16.738106    ( 0.0000,  0.0000,  1.5000)
  76 Co     2.490684    1.454436   16.739222    ( 0.0000,  0.0000,  1.5000)
  77 Ni     4.964072    1.458060   16.748615    ( 0.0000,  0.0000,  2.0000)
  78 Ni     7.493576    1.474137   16.738664    ( 0.0000,  0.0000,  1.5000)
  79 Fe     9.990724    1.450314   16.751932    ( 0.0000,  0.0000,  2.0000)
  80 Ni    13.736871    3.597619   16.749671    ( 0.0000,  0.0000,  2.1000)
  81 Fe     3.731782    3.620695   16.737637    ( 0.0000,  0.0000,  2.0000)
  82 Ni     6.217757    3.600962   16.741893    ( 0.0000,  0.0000,  0.0000)
  83 Cr     8.739843    3.608427   16.720025    ( 0.0000,  0.0000,  2.1000)
  84 Co    11.236517    3.591755   16.778291    ( 0.0000,  0.0000,  2.0000)
  85 Ni    14.987780    5.779273   16.714506    ( 0.0000,  0.0000,  0.0000)
  86 Fe     4.996827    5.757928   16.729565    ( 0.0000,  0.0000,  1.5000)
  87 Fe     7.493878    5.760427   16.738488    ( 0.0000,  0.0000,  2.0000)
  88 Fe     9.975457    5.766269   16.736932    ( 0.0000,  0.0000,  2.0000)
  89 Cr    12.478104    5.731140   16.775473    ( 0.0000,  0.0000,  1.5000)
  90 Ni    16.238159    7.937775   16.730328    ( 0.0000,  0.0000,  2.0000)
  91 Ni     6.231444    7.940404   16.765522    ( 0.0000,  0.0000,  0.0000)
  92 Cr     8.728840    7.936931   16.735611    ( 0.0000,  0.0000,  0.0000)
  93 Fe    11.192557    7.913866   16.746149    ( 0.0000,  0.0000,  0.0000)
  94 Cr    13.768802    7.904897   16.753722    ( 0.0000,  0.0000,  1.5000)
  95 Cr    17.466742   10.100767   16.763996    ( 0.0000,  0.0000,  2.0000)
  96 Fe     7.483726   10.114128   16.752695    ( 0.0000,  0.0000,  0.0000)
  97 Co     9.946168   10.127316   16.729242    ( 0.0000,  0.0000,  0.0000)
  98 Fe    12.492406   10.089342   16.764671    ( 0.0000,  0.0000,  0.0000)
  99 Al    15.005292   10.118575   16.753076    ( 0.0000,  0.0000,  2.0000)
 100 Cr     6.250979   10.817826   18.755486    ( 0.0000,  0.0000,  2.1000)
 101 Cr     2.491992    0.007607   18.757365    ( 0.0000,  0.0000,  2.0000)
 102 Co     4.959039    0.011376   18.813253    ( 0.0000,  0.0000,  1.5000)
 103 Fe     7.505721    0.033872   18.830425    ( 0.0000,  0.0000,  0.0000)
 104 Cr    16.226478   10.816744   18.766934    ( 0.0000,  0.0000,  1.5000)
 105 Ni     1.262456    2.149912   18.735438    ( 0.0000,  0.0000,  2.1000)
 106 Co     3.733330    2.172036   18.731769    ( 0.0000,  0.0000,  2.1000)
 107 Co     6.235561    2.176310   18.762208    ( 0.0000,  0.0000,  0.0000)
 108 Co     8.740232    2.176277   18.742160    ( 0.0000,  0.0000,  2.0000)
 109 Fe    11.216255    2.130427   18.758333    ( 0.0000,  0.0000,  1.5000)
 110 Co     2.521812    4.343315   18.747649    ( 0.0000,  0.0000,  2.1000)
 111 Cr     4.991012    4.329273   18.757688    ( 0.0000,  0.0000,  0.0000)
 112 Cr     7.490880    4.334898   18.725399    ( 0.0000,  0.0000,  2.1000)
 113 Co     9.943770    4.322230   18.730184    ( 0.0000,  0.0000,  2.0000)
 114 Al    12.464525    4.326265   18.943816    ( 0.0000,  0.0000,  0.0000)
 115 Co    16.224051    6.495359   18.723022    ( 0.0000,  0.0000,  2.0000)
 116 Co     6.226814    6.495348   18.761650    ( 0.0000,  0.0000,  0.0000)
 117 Ni     8.730619    6.495759   18.735203    ( 0.0000,  0.0000,  1.5000)
 118 Cr    11.207915    6.503819   18.742835    ( 0.0000,  0.0000,  2.1000)
 119 Cr    13.765796    6.524169   18.782109    ( 0.0000,  0.0000,  0.0000)
 120 Ni    17.450702    8.660601   18.763558    ( 0.0000,  0.0000,  0.0000)
 121 Ni     7.490686    8.670024   18.761621    ( 0.0000,  0.0000,  1.5000)
 122 Co     9.981419    8.673010   18.727630    ( 0.0000,  0.0000,  2.1000)
 123 Ni    12.489241    8.635804   18.838438    ( 0.0000,  0.0000,  0.0000)
 124 Cr    14.988874    8.667774   18.729832    ( 0.0000,  0.0000,  2.1000)

Unit cell:
           periodic     x           y           z      points  spacing
  1. axis:    yes   12.474800    0.000000    0.000000    54     0.2001
  2. axis:    yes    6.246240   10.818800    0.000000    54     0.2003
  3. axis:    no     0.000000    0.000000   29.353100   128     0.2293

  Lengths:  12.474800  12.492476  29.353100
  Angles:   90.000000  90.000000  59.999988

Effective grid spacing dv^(1/3) = 0.2198

     iter     time        total  log10-change:  magmom
                         energy  eigst   dens
iter:   1 14:30:50 -1056.394611                  +165.5126
iter:   2 14:33:11 -2145.624525  +0.41  -1.21    +130.6416
iter:   3 14:35:33 -1367.576726  +0.42  -0.79    +103.0398
iter:   4 14:37:54 -1075.305357  -0.74  -1.01    +69.4640
iter:   5 14:40:16 -1008.353477  -1.33  -1.23    +55.2936
iter:   6 14:42:37  -996.399023  -1.79  -1.33    +48.2797
iter:   7 14:44:58  -993.853270  -1.89  -1.36    +44.8289
iter:   8 14:47:19 -1655.677269  -0.61  -1.37    +45.1053
iter:   9 14:49:41  -993.515909  -0.75  -0.87    +42.8402
iter:  10 14:52:02  -980.081197  -1.65  -1.38    +41.3256
iter:  11 14:54:24  -968.470690  -1.70  -1.44    +41.5449
iter:  12 14:56:45 -1004.028594  -1.51  -1.57    +41.5059
iter:  13 14:59:06 -1000.674162  -1.51  -1.39    +42.7978
iter:  14 15:01:27  -970.131694  -1.61  -1.42    +41.7589
iter:  15 15:03:49  -972.268774  -1.81  -1.71    +40.9762
iter:  16 15:06:10 -1000.379267  -1.74  -1.62    +41.6917
iter:  17 15:08:31  -963.936173  -2.11  -1.43    +41.9878
iter:  18 15:10:52  -979.285577  -2.15  -1.78    +44.0937
iter:  19 15:13:14  -967.300858  -2.24  -1.58    +44.0278
iter:  20 15:15:35  -965.566706  -2.45  -1.73    +45.1608
iter:  21 15:17:57  -965.712298  -2.40  -1.78    +47.3562
iter:  22 15:20:18  -967.698757  -2.47  -1.82    +48.6754
iter:  23 15:22:40  -963.761237  -2.72  -1.75    +51.0302
iter:  24 15:25:01  -964.814585  -2.72  -1.87    +52.7972
iter:  25 15:27:22  -968.433502  -2.32  -1.90    +54.2172
iter:  26 15:29:43  -975.603331  -2.31  -1.81    +54.7584
iter:  27 15:32:05  -966.221544  -2.45  -1.67    +55.6479
iter:  28 15:34:26  -977.148704  -2.25  -1.93    +57.8482
iter:  29 15:36:47  -965.869695  -2.37  -1.66    +57.7038
iter:  30 15:39:08  -964.906717  -2.98  -1.95    +58.6916
iter:  31 15:41:30  -965.097218  -3.30  -2.02    +60.2885
iter:  32 15:43:55  -964.851791  -3.45  -2.02    +61.6268
iter:  33 15:46:20  -965.589379  -3.16  -2.09    +63.2457
iter:  34 15:48:45  -965.920260  -3.02  -2.09    +63.6644
iter:  35 15:51:26  -968.453965  -2.60  -2.15    +65.0593
iter:  36 15:54:05  -967.171029  -2.63  -2.03    +65.5770
iter:  37 15:56:42 -1006.789210  -2.02  -2.18    +66.9582
iter:  38 15:59:12  -966.318980  -2.34  -1.43    +66.3329
iter:  39 16:01:34  -966.246760  -3.16  -2.30    +66.9770
iter:  40 16:03:56  -966.281883c -3.57  -2.41    +68.4513
iter:  41 16:06:18  -966.515767  -3.60  -2.50    +69.7951
iter:  42 16:08:53  -967.288690  -2.72  -2.52    +74.1641
iter:  43 16:11:35  -967.075932  -3.94  -2.42    +73.1307
iter:  44 16:14:13  -967.993343  -3.55  -2.51    +73.3062
iter:  45 16:16:52  -967.358278  -3.53  -2.22    +73.6285
iter:  46 16:19:26  -967.285456  -3.61  -2.45    +74.0775
iter:  47 16:21:47  -967.347934c -3.75  -2.59    +74.6201
iter:  48 16:24:08  -967.502231  -3.37  -2.57    +74.8420
iter:  49 16:26:30  -967.394082  -3.67  -2.60    +74.8721
iter:  50 16:28:52  -967.815541  -3.69  -2.70    +75.1305
iter:  51 16:31:13  -967.647148  -3.68  -2.40    +75.4040
iter:  52 16:33:35  -967.450349  -4.04  -2.50    +75.4841
iter:  53 16:35:57  -967.522401  -4.02  -2.88    +75.6571
iter:  54 16:38:19  -967.511977c -4.40  -2.80    +75.8488
iter:  55 16:40:40  -967.571135c -4.25  -2.95    +76.0805
iter:  56 16:43:01  -967.632947  -4.28  -2.92    +76.1533
iter:  57 16:45:23  -967.621554c -4.35  -2.79    +76.2259
iter:  58 16:47:44  -967.637877c -4.44  -2.92    +76.4167
iter:  59 16:50:06  -967.645760c -4.59  -2.93    +76.4896
iter:  60 16:52:28  -967.660864c -4.50  -3.03    +76.5402
iter:  61 16:54:49  -967.690731c -4.37  -3.06    +76.6693
iter:  62 16:57:11  -967.683191c -4.45  -3.00    +76.7406
iter:  63 16:59:32  -967.694918c -4.60  -3.24    +76.8357
iter:  64 17:01:54  -967.700408c -4.88  -3.22    +76.8950
iter:  65 17:04:16  -967.717628c -4.81  -3.36    +77.0173
iter:  66 17:06:37  -967.737036c -4.76  -3.34    +77.1323
iter:  67 17:08:58  -967.736319c -5.57  -3.28    +77.1144
iter:  68 17:11:20  -967.790785c -4.60  -3.27    +77.2764
iter:  69 17:13:41  -967.754566c -5.43  -2.97    +77.2316
iter:  70 17:16:02  -967.769598c -5.16  -3.24    +77.3055
iter:  71 17:18:24  -967.743979c -4.83  -3.21    +77.1780
iter:  72 17:20:46  -967.776871c -4.64  -3.29    +77.3780
iter:  73 17:23:07  -967.783476c -5.29  -3.22    +77.4003
iter:  74 17:25:29  -967.808558c -4.88  -3.20    +77.5112
iter:  75 17:27:51  -967.810624c -4.99  -3.07    +77.5272
iter:  76 17:30:12  -967.843282c -4.88  -3.06    +77.6852
iter:  77 17:32:34  -967.825443c -4.90  -2.95    +77.6382
iter:  78 17:34:55  -967.837354c -4.58  -3.06    +77.7957
iter:  79 17:37:17  -967.852008c -4.61  -3.07    +77.8805
iter:  80 17:39:38  -967.896825c -4.72  -3.07    +77.8970
iter:  81 17:41:57  -967.870051c -4.55  -2.89    +77.8951
iter:  82 17:44:17  -967.886613c -4.74  -3.06    +78.0339
iter:  83 17:46:36  -967.910879c -4.58  -3.05    +78.1409
iter:  84 17:48:55  -967.904533c -4.78  -3.01    +78.2042
iter:  85 17:51:15  -967.927938c -4.52  -3.05    +78.3905
iter:  86 17:53:34  -967.942011c -4.84  -3.01    +78.4096
iter:  87 17:55:58  -967.955723c -4.50  -3.00    +78.4820
iter:  88 17:58:48  -967.958308c -4.93  -3.01    +78.5644
iter:  89 18:01:42  -967.977554c -4.74  -3.06    +78.6684
iter:  90 18:04:35  -967.981260c -5.06  -3.08    +78.7095
iter:  91 18:07:30  -968.077883c -4.41  -3.08    +78.7805
iter:  92 18:10:25  -968.014821c -4.46  -2.74    +78.8673
iter:  93 18:13:19  -968.022674c -4.72  -3.02    +78.9818
iter:  94 18:16:13  -968.064700c -4.68  -3.10    +79.0759
iter:  95 18:19:09  -968.079968c -4.96  -2.94    +79.1311
iter:  96 18:22:04  -968.098100c -4.84  -2.92    +79.2153
iter:  97 18:24:58  -968.097280c -4.58  -2.91    +79.3408
iter:  98 18:27:51  -968.127616c -4.82  -2.98    +79.3409
iter:  99 18:30:41  -968.194137c -4.15  -2.90    +79.4132
iter: 100 18:33:30  -968.177567c -4.39  -2.72    +79.4641
iter: 101 18:36:20  -968.189270c -4.56  -2.80    +79.5719
iter: 102 18:39:11  -968.145991c -4.35  -2.80    +79.5902
iter: 103 18:42:01  -968.187793c -4.67  -2.90    +79.6913
iter: 104 18:44:50  -968.266712  -3.89  -2.81    +79.8281
iter: 105 18:47:39  -968.158606c -4.29  -2.68    +79.8028
iter: 106 18:50:27  -968.169483c -4.34  -2.90    +79.7993
iter: 107 18:53:16  -968.158871c -4.74  -2.93    +79.8676
iter: 108 18:56:06  -968.147477c -4.64  -3.00    +79.9199
iter: 109 18:58:56  -968.163297c -4.55  -3.10    +79.8934
iter: 110 19:01:49  -968.265236c -4.34  -2.97    +79.8903
iter: 111 19:04:44  -968.185568c -4.41  -2.71    +80.0078
iter: 112 19:07:39  -968.148300c -4.53  -2.96    +80.0045
iter: 113 19:10:32  -968.157853c -4.51  -3.25    +80.0082
iter: 114 19:13:28  -968.144291c -5.00  -3.11    +80.0338
iter: 115 19:16:22  -968.149202c -5.13  -3.41    +80.0759
iter: 116 19:19:17  -968.152416c -5.25  -3.33    +80.0687
iter: 117 19:22:08  -968.144866c -5.38  -3.17    +80.0569
iter: 118 19:25:03  -968.147055c -5.53  -3.43    +80.1018
iter: 119 19:27:54  -968.148940c -5.41  -3.43    +80.1116
iter: 120 19:30:43  -968.145121c -5.68  -3.45    +80.1054
iter: 121 19:33:33  -968.145629c -5.72  -3.48    +80.0958
iter: 122 19:36:25  -968.148647c -5.70  -3.46    +80.1102
iter: 123 19:39:15  -968.146144c -5.87  -3.45    +80.1316
iter: 124 19:42:04  -968.147391c -5.80  -3.53    +80.1261
iter: 125 19:44:53  -968.145408c -6.05  -3.42    +80.1206
iter: 126 19:47:42  -968.148432c -5.61  -3.54    +80.1323
iter: 127 19:50:32  -968.148751c -5.74  -3.56    +80.1385
iter: 128 19:53:21  -968.153859c -5.47  -3.56    +80.1395
iter: 129 19:56:11  -968.147033c -5.65  -3.23    +80.1276
iter: 130 19:59:02  -968.148108c -5.56  -3.60    +80.1621
iter: 131 20:01:57  -968.147295c -6.14  -3.57    +80.1680
iter: 132 20:04:52  -968.146854c -5.83  -3.75    +80.1596
iter: 133 20:07:47  -968.146347c -6.36  -3.50    +80.1587
iter: 134 20:10:40  -968.155763c -5.51  -3.71    +80.1708
iter: 135 20:13:36  -968.146752c -5.73  -3.33    +80.1732
iter: 136 20:16:30  -968.148550c -5.74  -3.68    +80.1685
iter: 137 20:19:23  -968.146190c -6.06  -3.54    +80.1662
iter: 138 20:22:19  -968.150049c -5.81  -3.74    +80.1753
iter: 139 20:25:10  -968.147021c -6.31  -3.62    +80.1802
iter: 140 20:28:00  -968.146736c -6.61  -3.93    +80.1736
iter: 141 20:30:52  -968.148245c -6.33  -3.85    +80.1792
iter: 142 20:33:42  -968.147220c -6.61  -3.77    +80.1835
iter: 143 20:36:30  -968.147768c -6.82  -4.00    +80.1866
iter: 144 20:39:21  -968.147216c -6.28  -3.99    +80.1888
iter: 145 20:42:10  -968.147498c -6.27  -3.71    +80.1901
iter: 146 20:44:58  -968.148234c -6.47  -3.97    +80.2037
iter: 147 20:47:47  -968.147751c -6.18  -3.95    +80.2111
iter: 148 20:50:36  -968.147397c -6.32  -3.70    +80.2039
iter: 149 20:53:24  -968.147134c -6.77  -4.07c   +80.2094
iter: 150 20:56:17  -968.147741c -7.00  -4.16c   +80.2144
iter: 151 20:59:12  -968.147349c -7.31  -4.19c   +80.2172
iter: 152 21:02:08  -968.147365c -7.56c -4.30c   +80.2176

Converged after 152 iterations.

Dipole moment: (46.202431, 23.359385, 0.012338) |e|*Ang

Total magnetic moment: (0.000000, 0.000000, 80.217623)
Local magnetic moments:
   0 Co ( 0.000000,  0.000000,  1.291587)
   1 Cr ( 0.000000,  0.000000,  1.095348)
   2 Co ( 0.000000,  0.000000,  0.814532)
   3 Cr ( 0.000000,  0.000000,  1.294162)
   4 Cr ( 0.000000,  0.000000, -2.352034)
   5 Ni ( 0.000000,  0.000000,  0.360491)
   6 Co ( 0.000000,  0.000000,  1.328979)
   7 Co ( 0.000000,  0.000000,  0.764142)
   8 Ni ( 0.000000,  0.000000,  0.157124)
   9 Co ( 0.000000,  0.000000,  1.266175)
  10 Cr ( 0.000000,  0.000000,  2.091363)
  11 Co ( 0.000000,  0.000000,  1.612506)
  12 Cr ( 0.000000,  0.000000, -2.039758)
  13 Al ( 0.000000,  0.000000, -0.025249)
  14 Cr ( 0.000000,  0.000000, -2.370690)
  15 Ni ( 0.000000,  0.000000,  0.484040)
  16 Co ( 0.000000,  0.000000,  1.076017)
  17 Cr ( 0.000000,  0.000000,  1.564573)
  18 Co ( 0.000000,  0.000000,  1.166057)
  19 Co ( 0.000000,  0.000000,  1.416350)
  20 Al ( 0.000000,  0.000000, -0.036666)
  21 Ni ( 0.000000,  0.000000,  0.091914)
  22 Cr ( 0.000000,  0.000000, -1.791234)
  23 Co ( 0.000000,  0.000000,  1.091074)
  24 Fe ( 0.000000,  0.000000,  2.252726)
  25 Ni ( 0.000000,  0.000000,  0.336929)
  26 Cr ( 0.000000,  0.000000, -0.083069)
  27 Cr ( 0.000000,  0.000000, -0.157624)
  28 Al ( 0.000000,  0.000000, -0.050022)
  29 Fe ( 0.000000,  0.000000,  2.144405)
  30 Ni ( 0.000000,  0.000000,  0.451292)
  31 Fe ( 0.000000,  0.000000,  1.529858)
  32 Fe ( 0.000000,  0.000000,  1.253665)
  33 Fe ( 0.000000,  0.000000,  1.715505)
  34 Ni ( 0.000000,  0.000000,  0.342332)
  35 Fe ( 0.000000,  0.000000,  2.385360)
  36 Al ( 0.000000,  0.000000, -0.048252)
  37 Cr ( 0.000000,  0.000000, -0.882555)
  38 Fe ( 0.000000,  0.000000,  2.227148)
  39 Co ( 0.000000,  0.000000,  1.530182)
  40 Ni ( 0.000000,  0.000000,  0.481939)
  41 Fe ( 0.000000,  0.000000,  2.029811)
  42 Fe ( 0.000000,  0.000000,  1.409589)
  43 Fe ( 0.000000,  0.000000,  2.227929)
  44 Ni ( 0.000000,  0.000000,  0.485789)
  45 Co ( 0.000000,  0.000000,  1.508842)
  46 Cr ( 0.000000,  0.000000, -1.249727)
  47 Fe ( 0.000000,  0.000000,  1.386025)
  48 Ni ( 0.000000,  0.000000,  0.438874)
  49 Fe ( 0.000000,  0.000000,  2.516872)
  50 Fe ( 0.000000,  0.000000,  1.807552)
  51 Cr ( 0.000000,  0.000000, -0.848107)
  52 Cr ( 0.000000,  0.000000, -0.766811)
  53 Co ( 0.000000,  0.000000,  0.817806)
  54 Cr ( 0.000000,  0.000000, -1.531414)
  55 Fe ( 0.000000,  0.000000,  2.296686)
  56 Co ( 0.000000,  0.000000,  0.979166)
  57 Cr ( 0.000000,  0.000000, -0.856665)
  58 Ni ( 0.000000,  0.000000,  0.286276)
  59 Fe ( 0.000000,  0.000000,  2.396097)
  60 Ni ( 0.000000,  0.000000,  0.469133)
  61 Fe ( 0.000000,  0.000000,  1.959043)
  62 Co ( 0.000000,  0.000000,  0.958016)
  63 Ni ( 0.000000,  0.000000,  0.479683)
  64 Ni ( 0.000000,  0.000000,  0.572777)
  65 Ni ( 0.000000,  0.000000,  0.567094)
  66 Fe ( 0.000000,  0.000000,  2.226412)
  67 Fe ( 0.000000,  0.000000,  2.113207)
  68 Co ( 0.000000,  0.000000,  1.398893)
  69 Ni ( 0.000000,  0.000000,  0.524731)
  70 Co ( 0.000000,  0.000000,  1.255384)
  71 Ni ( 0.000000,  0.000000,  0.251445)
  72 Fe ( 0.000000,  0.000000,  2.028480)
  73 Fe ( 0.000000,  0.000000,  1.978893)
  74 Ni ( 0.000000,  0.000000,  0.283114)
  75 Cr ( 0.000000,  0.000000, -0.604262)
  76 Co ( 0.000000,  0.000000,  1.214733)
  77 Ni ( 0.000000,  0.000000,  0.486924)
  78 Ni ( 0.000000,  0.000000,  0.275392)
  79 Fe ( 0.000000,  0.000000,  1.792316)
  80 Ni ( 0.000000,  0.000000,  0.407044)
  81 Fe ( 0.000000,  0.000000,  2.400224)
  82 Ni ( 0.000000,  0.000000,  0.235030)
  83 Cr ( 0.000000,  0.000000,  0.007015)
  84 Co ( 0.000000,  0.000000,  1.064138)
  85 Ni ( 0.000000,  0.000000,  0.393628)
  86 Fe ( 0.000000,  0.000000,  2.415633)
  87 Fe ( 0.000000,  0.000000,  2.098179)
  88 Fe ( 0.000000,  0.000000,  1.950858)
  89 Cr ( 0.000000,  0.000000,  1.247280)
  90 Ni ( 0.000000,  0.000000,  0.279147)
  91 Ni ( 0.000000,  0.000000,  0.364900)
  92 Cr ( 0.000000,  0.000000, -1.777871)
  93 Fe ( 0.000000,  0.000000,  2.065283)
  94 Cr ( 0.000000,  0.000000, -1.508855)
  95 Cr ( 0.000000,  0.000000,  0.758826)
  96 Fe ( 0.000000,  0.000000,  1.829676)
  97 Co ( 0.000000,  0.000000,  1.318140)
  98 Fe ( 0.000000,  0.000000,  2.356674)
  99 Al ( 0.000000,  0.000000, -0.035346)
 100 Cr ( 0.000000,  0.000000, -1.440020)
 101 Cr ( 0.000000,  0.000000, -2.264166)
 102 Co ( 0.000000,  0.000000,  1.577332)
 103 Fe ( 0.000000,  0.000000,  2.436746)
 104 Cr ( 0.000000,  0.000000, -1.958014)
 105 Ni ( 0.000000,  0.000000,  0.219289)
 106 Co ( 0.000000,  0.000000,  1.467559)
 107 Co ( 0.000000,  0.000000,  1.380028)
 108 Co ( 0.000000,  0.000000,  1.193639)
 109 Fe ( 0.000000,  0.000000,  2.112848)
 110 Co ( 0.000000,  0.000000,  1.363402)
 111 Cr ( 0.000000,  0.000000, -2.493287)
 112 Cr ( 0.000000,  0.000000, -2.060330)
 113 Co ( 0.000000,  0.000000,  1.161411)
 114 Al ( 0.000000,  0.000000, -0.013951)
 115 Co ( 0.000000,  0.000000,  1.294473)
 116 Co ( 0.000000,  0.000000,  1.304952)
 117 Ni ( 0.000000,  0.000000,  0.327448)
 118 Cr ( 0.000000,  0.000000, -1.941480)
 119 Cr ( 0.000000,  0.000000, -1.862181)
 120 Ni ( 0.000000,  0.000000,  0.133357)
 121 Ni ( 0.000000,  0.000000,  0.214762)
 122 Co ( 0.000000,  0.000000,  1.411011)
 123 Ni ( 0.000000,  0.000000,  0.190964)
 124 Cr ( 0.000000,  0.000000,  1.716114)

Energy contributions relative to reference atoms: (reference = -4275894.041763)

Kinetic:       +289.637893
Potential:     -322.570570
External:        +0.000000
XC:            -975.194317
Entropy (-ST):   -5.601793
Local:          +42.780525
--------------------------
Free energy:   -970.948261
Extrapolated:  -968.147365

Dipole-layer corrected work functions: 4.943266, 4.926724 eV

Spin contamination: 39.931144 electrons
Showing all kpts
                      Up                     Down
 Kpt  Band  Eigenvalues  Occupancy  Eigenvalues  Occupancy
  0   587     -0.07515    0.99659      0.84548    0.02852
  0   588     -0.06519    0.99624      0.85611    0.02571
  0   589     -0.06005    0.99604      0.86072    0.02458
  0   590     -0.04570    0.99543      0.87597    0.02118

  1   587     -0.04678    0.99548      0.85100    0.02703
  1   588     -0.04420    0.99536      0.86303    0.02404
  1   589     -0.02529    0.99440      0.86500    0.02358
  1   590     -0.01153    0.99358      0.87795    0.02077


Fermi level: 0.49264

No gap

Forces in eV/Ang:
  0 Co   -0.05480    0.27888    0.69044
  1 Cr    0.35191    0.01221    0.08680
  2 Co   -0.17027    0.02983    0.41655
  3 Cr   -0.67242    0.73673   -0.64634
  4 Cr   -0.35358    0.46999   -0.28291
  5 Ni   -0.18569   -0.16713   -0.09517
  6 Co    0.40154    0.10155   -0.14867
  7 Co   -0.03146    0.23126    0.02942
  8 Ni   -0.16247    0.00856   -0.32506
  9 Co    0.47075   -0.24207    0.35399
 10 Cr    0.22044    0.08765   -0.40754
 11 Co    0.21301    0.08563    0.91264
 12 Cr   -1.37335    0.31105   -0.21208
 13 Al    0.12602   -0.34295   -1.63457
 14 Cr    0.94092   -0.02717   -0.05374
 15 Ni    0.34489   -0.29054    0.40981
 16 Co   -0.44610   -0.43950    0.38030
 17 Cr   -0.68076    0.50760   -0.18054
 18 Co    0.41974    0.28357    0.30029
 19 Co   -0.24096    0.49171    0.15298
 20 Al    1.02476   -0.84748   -0.64145
 21 Ni   -0.21582    0.06670   -0.11300
 22 Cr    0.24748    0.12341   -0.32249
 23 Co   -0.04190   -0.30550    0.01165
 24 Fe   -0.05709   -0.37198   -0.69962
 25 Ni   -0.34020   -0.35125    0.36721
 26 Cr   -0.07945    0.40222   -0.27674
 27 Cr   -0.79614    0.05203   -0.44678
 28 Al    0.34657   -0.22952    0.28708
 29 Fe    0.58247   -0.20947    0.47412
 30 Ni   -0.34318   -0.27881    0.04548
 31 Fe    0.07824   -0.56952   -0.27785
 32 Fe   -0.10792    0.11347   -0.10120
 33 Fe    0.13847    0.35210    0.28422
 34 Ni    0.32723   -0.09607    0.05096
 35 Fe   -0.69266   -0.23701   -0.03413
 36 Al   -0.54093    0.22393   -0.23096
 37 Cr    0.76682   -0.19372   -0.12465
 38 Fe    0.07692   -0.61936    0.71508
 39 Co    0.04265   -0.18889   -0.06550
 40 Ni    0.34732    0.43174   -0.11714
 41 Fe   -0.10537    0.70006   -0.51414
 42 Fe   -0.30165   -0.00409    0.60629
 43 Fe    0.62541    0.33419    0.57832
 44 Ni   -0.24257    0.13612    0.46225
 45 Co    0.24086    0.38472    0.22774
 46 Cr   -0.25182   -0.23953   -0.31879
 47 Fe   -0.05354    0.17587    0.16676
 48 Ni    0.00300   -0.42121   -0.12243
 49 Fe    0.73543   -0.87748   -0.02439
 50 Fe   -0.28062   -0.24809   -0.34863
 51 Cr   -0.08693    0.05225    0.30363
 52 Cr   -0.46885    0.02523    0.72749
 53 Co   -0.09546    0.10846   -0.24599
 54 Cr    0.10645   -0.13280   -0.53250
 55 Fe   -0.03896    0.04546   -0.22303
 56 Co    0.05551   -0.23607    0.10413
 57 Cr   -0.03252    0.03213   -0.27636
 58 Ni    0.14865    0.01935   -0.05195
 59 Fe   -0.15476    0.24227   -0.03572
 60 Ni   -0.03184    0.05637   -0.00598
 61 Fe    0.15467   -0.10392    0.09803
 62 Co   -0.00447   -0.03542   -0.01145
 63 Ni    0.27029    0.15463   -0.17572
 64 Ni   -0.37650    0.33213   -0.18998
 65 Ni    0.12781    0.45311   -0.43135
 66 Fe   -0.20913    0.31091    0.13426
 67 Fe    0.33736   -0.04913    0.26700
 68 Co   -0.06048    0.09899   -0.08949
 69 Ni   -0.44137    0.01198    0.05500
 70 Co   -0.16607    0.20398   -0.58188
 71 Ni    0.07060    0.03279    0.22583
 72 Fe    0.12406   -0.32659    0.06429
 73 Fe   -0.38951   -0.34980    0.17902
 74 Ni    0.10107   -0.31625   -0.52234
 75 Cr    0.20694    0.42473    0.58411
 76 Co    0.12871   -0.25070    0.12898
 77 Ni    0.28484   -0.25721   -0.01386
 78 Ni   -0.26832   -0.13796    0.23896
 79 Fe   -0.04939    0.79188   -0.04177
 80 Ni   -0.17058    0.22376   -0.12084
 81 Fe    0.10172   -0.25573    0.21284
 82 Ni    0.00905    0.02181   -0.15934
 83 Cr    0.39113    0.03812    0.16591
 84 Co   -0.15648   -0.14930   -0.36064
 85 Ni    0.11690   -0.14177    0.34268
 86 Fe    0.16116    0.26339    0.36842
 87 Fe    0.01351   -0.09632    0.22124
 88 Fe   -0.23439   -0.12793    0.10057
 89 Cr    0.24248    0.51039   -0.16164
 90 Ni   -0.10780   -0.23491   -0.05345
 91 Ni    0.11549   -0.09058   -0.35504
 92 Cr    0.10011    0.03275    0.20474
 93 Fe    0.31278    0.46602    0.21403
 94 Cr   -0.69445    0.24926   -0.46293
 95 Cr    1.20694   -0.32521    0.43417
 96 Fe    0.20847   -0.05564   -0.11106
 97 Co    0.49096   -0.10792    0.23555
 98 Fe   -0.54010   -0.03935    0.28337
 99 Al   -0.80695    0.46902   -1.22694
100 Cr   -0.32080   -0.09795    0.05911
101 Cr    0.24210    0.15964   -0.03466
102 Co    0.34305    0.03531   -0.62375
103 Fe   -0.65773    0.38068    0.22489
104 Cr    0.27951    0.38083    0.65883
105 Ni   -0.08548    0.20749    0.20405
106 Co    0.17013   -0.10261    0.11966
107 Co    0.01347   -0.30861   -0.26067
108 Co   -0.24201    0.20419   -0.06626
109 Fe   -0.30945   -0.05245   -0.09434
110 Co    0.16948    0.02723   -0.14854
111 Cr   -0.96428    0.13538    0.32232
112 Cr    0.87424   -0.00548    0.19222
113 Co    0.05636   -0.03448   -0.16046
114 Al    0.20054   -0.97260    0.60119
115 Co    0.13356   -0.16665   -0.17019
116 Co    0.01941   -0.05091   -0.30809
117 Ni   -0.07476    0.20883    0.24044
118 Cr   -0.42425    0.50543   -0.08922
119 Cr    0.31770   -0.38935    0.12700
120 Ni    0.33201   -0.22210    0.05195
121 Ni    0.01655   -0.37180    0.13167
122 Co    0.00595   -0.11409   -0.08154
123 Ni   -0.21469    0.22890   -0.40327
124 Cr   -0.12932   -0.77415    0.74809

Timing:                              incl.     excl.
-----------------------------------------------------------
Forces:                             45.558    45.558   0.2% |
Hamiltonian:                         1.224     0.010   0.0% |
 Atomic:                             0.334     0.001   0.0% |
  XC Correction:                     0.333     0.333   0.0% |
 Calculate atomic Hamiltonians:      0.430     0.430   0.0% |
 Communicate:                        0.075     0.075   0.0% |
 Initialize Hamiltonian:             0.001     0.001   0.0% |
 Poisson:                            0.083     0.083   0.0% |
 XC 3D grid:                         0.290     0.290   0.0% |
LCAO initialization:               261.808     0.465   0.0% |
 LCAO eigensolver:                  13.443     0.014   0.0% |
  Calculate projections:             0.000     0.000   0.0% |
  DenseAtomicCorrection:             0.000     0.000   0.0% |
  Distribute overlap matrix:         8.791     8.791   0.0% |
  Orbital Layouts:                   4.607     4.607   0.0% |
  Potential matrix:                  0.003     0.003   0.0% |
  Sum over cells:                    0.028     0.028   0.0% |
 LCAO to grid:                     245.796   245.796   1.0% |
 Set positions (LCAO WFS):           2.105     1.839   0.0% |
  Basic WFS set positions:           0.003     0.003   0.0% |
  Basis functions set positions:     0.001     0.001   0.0% |
  P tci:                             0.000     0.000   0.0% |
  ST tci:                            0.103     0.103   0.0% |
  mktci:                             0.159     0.159   0.0% |
PWDescriptor:                        0.108     0.108   0.0% |
SCF-cycle:                       23633.999     4.493   0.0% |
 Davidson:                       23032.850  7409.717  30.9% |-----------|
  Apply H:                         391.729   385.068   1.6% ||
   HMM T:                            6.661     6.661   0.0% |
  Subspace diag:                  2494.418     0.055   0.0% |
   calc_h_matrix:                  992.093   665.391   2.8% ||
    Apply H:                       326.702   320.015   1.3% ||
     HMM T:                          6.687     6.687   0.0% |
   diagonalize:                    228.710   228.710   1.0% |
   rotate_psi:                    1273.560  1273.560   5.3% |-|
  calc. matrices:                 5931.733  5304.152  22.1% |--------|
   Apply H:                        627.581   614.252   2.6% ||
    HMM T:                          13.328    13.328   0.1% |
  diagonalize:                    4083.417  4083.417  17.0% |------|
  rotate_psi:                     2721.836  2721.836  11.4% |----|
 Density:                          323.335     0.004   0.0% |
  Atomic density matrices:           3.752     3.752   0.0% |
  Mix:                             149.406   149.406   0.6% |
  Multipole moments:                 0.110     0.110   0.0% |
  Pseudo density:                  170.063   170.057   0.7% |
   Symmetrize density:               0.006     0.006   0.0% |
 Hamiltonian:                      255.739     1.702   0.0% |
  Atomic:                           56.671     0.173   0.0% |
   XC Correction:                   56.498    56.498   0.2% |
  Calculate atomic Hamiltonians:   128.434   128.434   0.5% |
  Communicate:                      14.922    14.922   0.1% |
  Poisson:                           5.498     5.498   0.0% |
  XC 3D grid:                       48.512    48.512   0.2% |
 Orthonormalize:                    17.582     0.001   0.0% |
  calc_s_matrix:                     2.189     2.189   0.0% |
  inverse-cholesky:                  0.885     0.885   0.0% |
  projections:                      10.675    10.675   0.0% |
  rotate_psi_s:                      3.832     3.832   0.0% |
Set symmetry:                        0.001     0.001   0.0% |
Other:                               7.461     7.461   0.0% |
-----------------------------------------------------------
Total:                                     23950.159 100.0%

Date: Thu Apr 20 21:02:58 2023
