
  ___ ___ ___ _ _ _  
 |   |   |_  | | | | 
 | | | | | . | | | | 
 |__ |  _|___|_____|  22.8.0
 |___|_|             

User:   c.zeng@d0143
Date:   Fri Apr  7 22:55:10 2023
Arch:   x86_64
Pid:    108161
CWD:    /home/c.zeng/projects/hea-corrosion/hea-mlp/data-curation/volume/dft-jobs/103
Python: 3.8.1
gpaw:   /home/c.zeng/usr/installs/gpaw/source/gpaw-22.8.0/gpaw
_gpaw:  /home/c.zeng/usr/installs/gpaw/source/gpaw-22.8.0/
        _gpaw.cpython-38-x86_64-linux-gnu.so
ase:    /home/c.zeng/.local/lib/python3.8/site-packages/ase-3.22.1-py3.8.egg/ase (version 3.22.1)
numpy:  /shared/centos7/python/3.8.1/lib/python3.8/site-packages/numpy (version 1.17.4)
scipy:  /shared/centos7/python/3.8.1/lib/python3.8/site-packages/scipy (version 1.4.1)
libxc:  4.2.3
units:  Angstrom and eV
cores: 64
OpenMP: False
OMP_NUM_THREADS: 1

Input parameters:
  convergence: {energy: 0.0001}
  kpts: [2 2 2]
  maxiter: 666
  mode: {ecut: 350.0,
         name: pw}
  occupations: {fixmagmom: False,
                name: fermi-dirac,
                width: 0.1}
  spinpol: True
  xc: PBE

System changes: positions, numbers, cell, pbc, initial_charges, initial_magmoms 

Initialize ...

species:
  Fe:
    name: Iron
    id: 37abbd8d6c3c35915a9b583b742da910
    Z: 26.0
    valence: 8
    core: 18
    charge: 0.0
    file: /home/c.zeng/usr/data/gpaw-setups-0.9.20000/Fe.PBE.gz
    compensation charges: {type: gauss,
                           rc: 0.33,
                           lmax: 2}
    cutoffs: {filter: 2.06,
              core: 2.67}
    valence states:
      #              energy  rcut
      - 4s(2.00)    -5.291   1.164
      - 4p(0.00)    -1.326   1.058
      - 3d(6.00)    -7.505   1.058
      -  s          21.920   1.164
      -  p          25.885   1.058
      -  d          19.706   1.058
  
    # Using partial waves for Fe as LCAO basis

  Cr:
    name: Chromium
    id: 33f258bda2ca9f93018e70263a35547b
    Z: 24.0
    valence: 6
    core: 18
    charge: 0.0
    file: /home/c.zeng/usr/data/gpaw-setups-0.9.20000/Cr.PBE.gz
    compensation charges: {type: gauss,
                           rc: 0.35,
                           lmax: 2}
    cutoffs: {filter: 2.14,
              core: 3.04}
    valence states:
      #              energy  rcut
      - 4s(1.00)    -4.007   1.164
      - 4p(0.00)    -0.989   1.217
      - 3d(5.00)    -2.913   1.111
      -  s          23.205   1.164
      -  p          26.223   1.217
      -  d          24.299   1.111
  
    # Using partial waves for Cr as LCAO basis

  Ni:
    name: Nickel
    id: 0d9f38a9d6e76a2886f07bb4381f212b
    Z: 28.0
    valence: 16
    core: 12
    charge: 0.0
    file: /home/c.zeng/usr/data/gpaw-setups-0.9.20000/Ni.PBE.gz
    compensation charges: {type: gauss,
                           rc: 0.36,
                           lmax: 2}
    cutoffs: {filter: 2.14,
              core: 1.98}
    valence states:
      #              energy  rcut
      - 4s(2.00)    -5.642   1.164
      - 3p(6.00)   -71.394   1.207
      - 4p(0.00)    -1.226   1.207
      - 3d(8.00)    -8.875   1.138
      -  s          21.570   1.164
      -  d          18.337   1.138
  
    # Using partial waves for Ni as LCAO basis

  Al:
    name: Aluminium
    id: 0292cae29f5d6237e50f6abdd43a7bdd
    Z: 13.0
    valence: 3
    core: 10
    charge: 0.0
    file: /home/c.zeng/usr/data/gpaw-setups-0.9.20000/Al.PBE.gz
    compensation charges: {type: gauss,
                           rc: 0.34,
                           lmax: 2}
    cutoffs: {filter: 1.91,
              core: 2.36}
    valence states:
      #              energy  rcut
      - 3s(2.00)    -7.753   1.085
      - 3p(1.00)    -2.712   1.085
      -  s          19.459   1.085
      -  p          24.499   1.085
      -  d           0.000   1.085
  
    # Using partial waves for Al as LCAO basis

  Co:
    name: Cobalt
    id: 339d20d5b0b93d2de9531a1bee871d91
    Z: 27.0
    valence: 9
    core: 18
    charge: 0.0
    file: /home/c.zeng/usr/data/gpaw-setups-0.9.20000/Co.PBE.gz
    compensation charges: {type: gauss,
                           rc: 0.32,
                           lmax: 2}
    cutoffs: {filter: 1.87,
              core: 2.55}
    valence states:
      #              energy  rcut
      - 4s(2.00)    -5.469   1.005
      - 4p(0.00)    -1.277   1.058
      - 3d(7.00)    -8.205   1.005
      -  s          21.742   1.005
      -  p          25.934   1.058
      -  d          19.007   1.005
  
    # Using partial waves for Co as LCAO basis

Reference energy: -3382523.201499  # eV

Spin-polarized calculation.
Magnetic moment: 128.800000

Convergence criteria:
 Maximum [total energy] change in last 3 cyles: 0.0001 eV / electron
 Maximum integral of absolute [dens]ity change: 0.0001 electrons / valence electron
 Maximum integral of absolute [eigenst]ate change: 4e-08 eV^2 / valence electron
 Maximum number of scf [iter]ations: 666
 (Square brackets indicate name in SCF output, whereas a 'c' in
 the SCF output indicates the quantity has converged.)

Symmetries present (total): 1

  ( 1  0  0)
  ( 0  1  0)
  ( 0  0  1)

8 k-points: 2 x 2 x 2 Monkhorst-Pack grid
4 k-points in the irreducible part of the Brillouin zone
       k-points in crystal coordinates                weights
   0:     0.25000000   -0.25000000   -0.25000000          2/8
   1:     0.25000000   -0.25000000    0.25000000          2/8
   2:     0.25000000    0.25000000   -0.25000000          2/8
   3:     0.25000000    0.25000000    0.25000000          2/8

Wave functions: Plane wave expansion
  Cutoff energy: 350.000 eV
  Number of coefficients (min, max): 18865, 18865
  Pulay-stress correction: 0.000000 eV/Ang^3 (de/decut=0.000000)
  Using FFTW library
  ScaLapack parameters: grid=1x1, blocksize=None
  Wavefunction extrapolation:
    Improved wavefunction reuse through dual PAW basis 

Occupation numbers: Fermi-Dirac:
  width: 0.1000  # eV
 

Eigensolver
   Davidson(niter=2) 

Densities:
  Coarse grid: 48*48*48 grid
  Fine grid: 96*96*96 grid
  Total Charge: 0.000000 

Density mixing:
  Method: difference
  Backend: pulay
  Linear mixing parameter: 0.05
  old densities: 5
  Damping of long wavelength oscillations: 50 

Hamiltonian:
  XC and Coulomb potentials evaluated on a 96*96*96 grid
  Using the PBE Exchange-Correlation functional
  External potential:
    NoExternalPotential
 

XC parameters: PBE with 2 nearest neighbor stencil

Memory estimate:
  Process memory now: 178.03 MiB
  Calculator: 639.69 MiB
    Density: 5.10 MiB
      Arrays: 1.85 MiB
      Localized functions: 2.51 MiB
      Mixer: 0.74 MiB
    Hamiltonian: 1.45 MiB
      Arrays: 1.37 MiB
      XC: 0.00 MiB
      Poisson: 0.00 MiB
      vbar: 0.08 MiB
    Wavefunctions: 633.14 MiB
      Arrays psit_nG: 373.64 MiB
      Eigensolver: 252.55 MiB
      Projections: 2.31 MiB
      Projectors: 0.34 MiB
      PW-descriptor: 4.30 MiB

Total number of cores used: 64
Parallelization over k-points: 4
Domain decomposition: 4 x 2 x 2

Number of atoms: 108
Number of atomic orbitals: 961
Number of bands in calculation: 649
Number of valence electrons: 945
Bands to converge: occupied

... initialized

Initializing position-dependent things.

Density initialized from atomic densities
Creating initial wave functions:
  649 bands from LCAO basis set

        .--------------------------.  
       /|                     Ni   |  
      / |            Cr Ni     NiNi|  
     /  |       Al       Ni       Fe  
    /   |Cr       Fer     CAlo     |  
   /i   | Coi        Co      Fe    |  
  /  FeCr   CFe       Cr           |  
 *      Co     CrNi   FeAlFeFe   Ni|  
 |      |CrFe   CrCoAl   FeCrCo   Co  
 | NiCo | AlNi   FeAlAl     Cr     |  
 |     Co  NiFe Fe  Ni NiNi  CrCr  |  
 |      CoFe   AlFe   NiAlCoFe  Fe |  
 |Co    |AlAl   CrFeCo   CrCo     Cr  
 |      .-CrAl-----FeNi-CoAlCoNi---.  
 |     /   Al Cr    Fe FeNi    Cr /   
 |    Cr       CNio       Co     /    
 |   /  Fe         Cr       Ni  /     
 |  /      Fe       Co       Cr/      
 | / Ni     Co       Cr Ni    /       
 |/             Al       Co  /        
 *--------Al----------------*         

Positions:
   0 Fe    10.765956   10.858403   10.805601    ( 0.0000,  0.0000,  2.0000)
   1 Cr    10.786969    1.792133    1.812637    ( 0.0000,  0.0000,  0.0000)
   2 Ni     1.745347    0.036082    1.851254    ( 0.0000,  0.0000,  1.5000)
   3 Cr     1.736269    1.831194   10.797410    ( 0.0000,  0.0000,  0.0000)
   4 Al     3.572581    0.054806    0.058955    ( 0.0000,  0.0000,  0.0000)
   5 Fe     3.593723    1.818145    1.843496    ( 0.0000,  0.0000,  2.0000)
   6 Ni     5.428163   10.816973    1.864368    ( 0.0000,  0.0000,  1.5000)
   7 Al     5.429526    1.928672    0.053854    ( 0.0000,  0.0000,  0.0000)
   8 Al     7.315957   10.720793    0.086775    ( 0.0000,  0.0000,  0.0000)
   9 Co     7.261975    1.824702    1.866013    ( 0.0000,  0.0000,  2.1000)
  10 Ni     9.063597    0.023638    1.862680    ( 0.0000,  0.0000,  1.5000)
  11 Co     9.050895    1.827948    0.034171    ( 0.0000,  0.0000,  2.1000)
  12 Ni     0.005098    3.560440   10.795711    ( 0.0000,  0.0000,  1.5000)
  13 Cr    10.760741    5.391385    1.778500    ( 0.0000,  0.0000,  0.0000)
  14 Fe     1.735468    3.562312    1.759716    ( 0.0000,  0.0000,  2.0000)
  15 Cr     1.778327    5.394101   10.795409    ( 0.0000,  0.0000,  0.0000)
  16 Co     3.565255    3.620481   10.829730    ( 0.0000,  0.0000,  2.1000)
  17 Cr     3.633281    5.394242    1.720201    ( 0.0000,  0.0000,  0.0000)
  18 Co     5.469864    3.657930    1.833076    ( 0.0000,  0.0000,  2.1000)
  19 Fe     5.438107    5.375350   -0.004091    ( 0.0000,  0.0000,  2.0000)
  20 Cr     7.257301    3.609239    0.030730    ( 0.0000,  0.0000,  0.0000)
  21 Fe     7.265448    5.378888    1.784851    ( 0.0000,  0.0000,  2.0000)
  22 Co     9.029590    3.577634    1.832362    ( 0.0000,  0.0000,  2.1000)
  23 Al     9.039490    5.374820   10.803188    ( 0.0000,  0.0000,  0.0000)
  24 Ni    10.791383    7.195594   10.794197    ( 0.0000,  0.0000,  1.5000)
  25 Cr    10.760232    9.039155    1.848895    ( 0.0000,  0.0000,  0.0000)
  26 Cr     1.693887    7.201967    1.787957    ( 0.0000,  0.0000,  0.0000)
  27 Al     1.655908    8.979504    0.027166    ( 0.0000,  0.0000,  0.0000)
  28 Cr     3.630717    7.165103    0.033815    ( 0.0000,  0.0000,  0.0000)
  29 Cr     3.625372    9.065112    1.804804    ( 0.0000,  0.0000,  0.0000)
  30 Fe     5.487695    7.187565    1.747349    ( 0.0000,  0.0000,  2.0000)
  31 Fe     5.423759    8.988993    0.008817    ( 0.0000,  0.0000,  2.0000)
  32 Ni     7.227113    7.238669   -0.007071    ( 0.0000,  0.0000,  1.5000)
  33 Cr     7.245139    8.996415    1.812410    ( 0.0000,  0.0000,  0.0000)
  34 Co     9.050321    7.205267    1.766197    ( 0.0000,  0.0000,  2.1000)
  35 Ni     9.092660    8.988354   10.809605    ( 0.0000,  0.0000,  1.5000)
  36 Ni    -0.000844   10.825726    3.638843    ( 0.0000,  0.0000,  1.5000)
  37 Co    10.820641    1.772386    5.420935    ( 0.0000,  0.0000,  2.1000)
  38 Co     1.753202   10.803307    5.429061    ( 0.0000,  0.0000,  2.1000)
  39 Cr     1.741647    1.775719    3.610613    ( 0.0000,  0.0000,  0.0000)
  40 Fe     3.591332   10.799066    3.614725    ( 0.0000,  0.0000,  2.0000)
  41 Al     3.593279    1.739331    5.458427    ( 0.0000,  0.0000,  0.0000)
  42 Fe     5.438983   10.797583    5.403298    ( 0.0000,  0.0000,  2.0000)
  43 Ni     5.452357    1.783629    3.601330    ( 0.0000,  0.0000,  1.5000)
  44 Cr     7.225966    0.008690    3.625577    ( 0.0000,  0.0000,  0.0000)
  45 Co     7.238214    1.767279    5.382524    ( 0.0000,  0.0000,  2.1000)
  46 Co     9.034729   10.848232    5.402682    ( 0.0000,  0.0000,  2.1000)
  47 Ni     9.030780    1.804695    3.614260    ( 0.0000,  0.0000,  1.5000)
  48 Ni    10.772795    3.544383    3.615536    ( 0.0000,  0.0000,  1.5000)
  49 Cr    10.770685    5.357800    5.451837    ( 0.0000,  0.0000,  0.0000)
  50 Co     1.755669    3.574734    5.429559    ( 0.0000,  0.0000,  2.1000)
  51 Al     1.623556    5.384980    3.572624    ( 0.0000,  0.0000,  0.0000)
  52 Al     3.635326    3.629397    3.541300    ( 0.0000,  0.0000,  0.0000)
  53 Fe     3.551536    5.393733    5.406447    ( 0.0000,  0.0000,  2.0000)
  54 Fe     5.404651    3.608081    5.372483    ( 0.0000,  0.0000,  2.0000)
  55 Fe     5.459173    5.430900    3.576378    ( 0.0000,  0.0000,  2.0000)
  56 Ni     7.248915    3.613546    3.620687    ( 0.0000,  0.0000,  1.5000)
  57 Ni     7.248417    5.408459    5.361208    ( 0.0000,  0.0000,  1.5000)
  58 Co     9.056986    3.565407    5.378250    ( 0.0000,  0.0000,  2.1000)
  59 Co     9.071810    5.365514    3.586279    ( 0.0000,  0.0000,  2.1000)
  60 Fe    10.733907    7.266011    3.613578    ( 0.0000,  0.0000,  2.0000)
  61 Co    10.775543    9.093331    5.424646    ( 0.0000,  0.0000,  2.1000)
  62 Al     1.687146    7.277837    5.495778    ( 0.0000,  0.0000,  0.0000)
  63 Ni     1.736150    9.055536    3.597240    ( 0.0000,  0.0000,  1.5000)
  64 Al     3.593031    7.266747    3.473414    ( 0.0000,  0.0000,  0.0000)
  65 Cr     3.587242    9.095181    5.439719    ( 0.0000,  0.0000,  0.0000)
  66 Al     5.383227    7.227329    5.441948    ( 0.0000,  0.0000,  0.0000)
  67 Ni     5.436289    9.047367    3.593074    ( 0.0000,  0.0000,  1.5000)
  68 Al     7.322135    7.204261    3.545411    ( 0.0000,  0.0000,  0.0000)
  69 Fe     7.279428    9.072546    5.412452    ( 0.0000,  0.0000,  2.0000)
  70 Cr     9.091102    7.236256    5.433724    ( 0.0000,  0.0000,  0.0000)
  71 Cr     9.065091    9.064755    3.634775    ( 0.0000,  0.0000,  0.0000)
  72 Fe    10.807808   10.838278    7.207041    ( 0.0000,  0.0000,  2.0000)
  73 Co    10.804941    1.798441    8.997811    ( 0.0000,  0.0000,  2.1000)
  74 Co     1.742112    0.023720    8.996069    ( 0.0000,  0.0000,  2.1000)
  75 Co     1.764499    1.793529    7.239805    ( 0.0000,  0.0000,  2.1000)
  76 Fe     3.586052    0.006175    7.225760    ( 0.0000,  0.0000,  2.0000)
  77 Fe     3.551471    1.854857    8.997075    ( 0.0000,  0.0000,  2.0000)
  78 Cr     5.409974   10.814809    8.970426    ( 0.0000,  0.0000,  0.0000)
  79 Fe     5.423640    1.784797    7.192088    ( 0.0000,  0.0000,  2.0000)
  80 Co     7.248612   10.799412    7.161121    ( 0.0000,  0.0000,  2.1000)
  81 Al     7.324017    1.764239    8.951447    ( 0.0000,  0.0000,  0.0000)
  82 Ni     9.092065   10.804389    8.994230    ( 0.0000,  0.0000,  1.5000)
  83 Ni     9.076582    1.782157    7.163761    ( 0.0000,  0.0000,  1.5000)
  84 Ni    10.823887    3.562886    7.207950    ( 0.0000,  0.0000,  1.5000)
  85 Fe     0.036085    5.384969    8.998244    ( 0.0000,  0.0000,  2.0000)
  86 Co     1.769865    3.604781    9.016519    ( 0.0000,  0.0000,  2.1000)
  87 Cr     1.799859    5.346406    7.249597    ( 0.0000,  0.0000,  0.0000)
  88 Ni     3.592825    3.619864    7.232231    ( 0.0000,  0.0000,  1.5000)
  89 Fe     3.559651    5.393690    9.049737    ( 0.0000,  0.0000,  2.0000)
  90 Ni     5.377222    3.650658    8.987467    ( 0.0000,  0.0000,  1.5000)
  91 Co     5.355885    5.394144    7.215936    ( 0.0000,  0.0000,  2.1000)
  92 Al     7.223488    3.645930    7.101351    ( 0.0000,  0.0000,  0.0000)
  93 Cr     7.211348    5.390228    9.041470    ( 0.0000,  0.0000,  0.0000)
  94 Fe     9.095517    3.599836    8.983842    ( 0.0000,  0.0000,  2.0000)
  95 Cr     9.078572    5.402487    7.227675    ( 0.0000,  0.0000,  0.0000)
  96 Ni    10.761855    7.243094    7.258448    ( 0.0000,  0.0000,  1.5000)
  97 Fe    10.794803    9.032078    8.976928    ( 0.0000,  0.0000,  2.0000)
  98 Co     1.739602    7.178985    8.982436    ( 0.0000,  0.0000,  2.1000)
  99 Ni     1.733348    9.079395    7.234221    ( 0.0000,  0.0000,  1.5000)
 100 Cr     3.580176    7.153309    7.245161    ( 0.0000,  0.0000,  0.0000)
 101 Al     3.611868    8.970642    8.954780    ( 0.0000,  0.0000,  0.0000)
 102 Cr     5.411121    7.157053    9.064171    ( 0.0000,  0.0000,  0.0000)
 103 Co     5.468262    9.064495    7.219517    ( 0.0000,  0.0000,  2.1000)
 104 Al     7.308296    7.270263    7.287770    ( 0.0000,  0.0000,  0.0000)
 105 Ni     7.271280    9.043007    9.027155    ( 0.0000,  0.0000,  1.5000)
 106 Co     9.081645    7.219582    9.042087    ( 0.0000,  0.0000,  2.1000)
 107 Fe     9.064539    9.081364    7.212625    ( 0.0000,  0.0000,  2.0000)

Unit cell:
           periodic     x           y           z      points  spacing
  1. axis:    yes   10.820100    0.000000    0.000000    48     0.2254
  2. axis:    yes    0.000000   10.820100    0.000000    48     0.2254
  3. axis:    yes    0.000000    0.000000   10.820100    48     0.2254

  Lengths:  10.820100  10.820100  10.820100
  Angles:   90.000000  90.000000  90.000000

Effective grid spacing dv^(1/3) = 0.2254

     iter     time        total  log10-change:  magmom
                         energy  eigst   dens
iter:   1 22:57:19  -996.852974                  +129.0863
iter:   2 22:58:13  -888.888320  -0.19  -1.18    +70.8622
iter:   3 22:59:07  -876.046160  -0.82  -1.19    +61.2252
iter:   4 23:00:02  -851.805172  -1.23  -1.26    +57.0230
iter:   5 23:00:57  -843.655466  -1.55  -1.30    +54.8546
iter:   6 23:01:54  -844.600816  -1.33  -1.35    +55.5188
iter:   7 23:02:49  -834.941638  -1.30  -1.39    +54.2075
iter:   8 23:03:46  -828.000187  -1.64  -1.53    +54.0941
iter:   9 23:04:43  -827.459621  -1.86  -1.66    +55.6027
iter:  10 23:05:37  -825.004611  -2.41  -1.72    +56.4546
iter:  11 23:06:32  -825.463094  -2.49  -1.80    +59.0620
iter:  12 23:07:29  -827.082859  -2.41  -1.86    +60.3921
iter:  13 23:08:27  -826.483657  -2.43  -1.86    +61.1482
iter:  14 23:09:23  -826.775836  -2.49  -1.93    +62.4608
iter:  15 23:10:19  -826.597167  -2.65  -1.96    +62.8936
iter:  16 23:11:18  -826.207618  -2.90  -2.02    +63.0769
iter:  17 23:12:15  -826.744696  -2.94  -2.08    +64.0519
iter:  18 23:13:10  -826.216002  -3.06  -2.06    +64.0740
iter:  19 23:14:10  -826.329077  -3.03  -2.19    +64.2609
iter:  20 23:15:07  -826.519977  -2.99  -2.24    +64.4671
iter:  21 23:16:05  -826.244423  -3.20  -2.25    +64.7540
iter:  22 23:17:04  -826.309257  -3.36  -2.37    +64.9087
iter:  23 23:18:04  -826.239189c -3.52  -2.39    +64.9956
iter:  24 23:19:04  -826.282341c -3.62  -2.48    +65.1636
iter:  25 23:20:03  -826.330340c -3.67  -2.51    +65.1908
iter:  26 23:20:58  -826.347703c -3.82  -2.55    +65.3281
iter:  27 23:21:58  -826.359827c -3.96  -2.54    +65.3439
iter:  28 23:22:57  -826.399839c -3.93  -2.60    +65.2626
iter:  29 23:23:56  -826.421798c -4.18  -2.63    +65.3483
iter:  30 23:24:59  -826.454027c -4.04  -2.66    +65.3166
iter:  31 23:25:58  -826.479409c -4.10  -2.69    +65.2903
iter:  32 23:26:59  -826.499904c -4.27  -2.74    +65.4212
iter:  33 23:27:56  -826.511285c -4.23  -2.75    +65.4041
iter:  34 23:28:56  -826.528562c -4.43  -2.80    +65.3184
iter:  35 23:29:55  -826.553324c -4.38  -2.85    +65.3712
iter:  36 23:30:51  -826.562994c -4.50  -2.86    +65.3319
iter:  37 23:31:48  -826.590237c -4.40  -2.91    +65.2668
iter:  38 23:32:48  -826.602419c -4.44  -2.94    +65.3056
iter:  39 23:33:49  -826.609222c -4.62  -2.95    +65.2551
iter:  40 23:34:47  -826.620615c -4.55  -3.00    +65.1923
iter:  41 23:35:42  -826.628482c -4.83  -3.06    +65.1995
iter:  42 23:36:32  -826.636944c -4.75  -3.08    +65.1666
iter:  43 23:37:20  -826.655169c -4.60  -3.13    +65.1574
iter:  44 23:38:09  -826.664819c -4.58  -3.14    +65.1496
iter:  45 23:39:02  -826.666578c -4.93  -3.18    +65.1317
iter:  46 23:39:53  -826.669426c -5.11  -3.21    +65.1193
iter:  47 23:40:47  -826.675344c -5.08  -3.26    +65.0867
iter:  48 23:41:40  -826.673002c -5.13  -3.27    +65.0911
iter:  49 23:42:30  -826.675432c -5.30  -3.32    +65.0757
iter:  50 23:43:20  -826.677416c -5.36  -3.36    +65.0622
iter:  51 23:44:11  -826.677534c -5.59  -3.37    +65.0570
iter:  52 23:45:01  -826.679164c -5.52  -3.41    +65.0551
iter:  53 23:45:51  -826.680964c -5.48  -3.45    +65.0375
iter:  54 23:46:41  -826.681404c -5.64  -3.48    +65.0281
iter:  55 23:47:33  -826.683113c -5.72  -3.52    +65.0174
iter:  56 23:48:24  -826.684816c -5.63  -3.55    +65.0065
iter:  57 23:49:17  -826.685456c -5.74  -3.56    +64.9925
iter:  58 23:50:08  -826.686842c -5.67  -3.58    +64.9787
iter:  59 23:51:03  -826.687623c -5.83  -3.65    +64.9698
iter:  60 23:51:53  -826.688756c -5.90  -3.73    +64.9461
iter:  61 23:52:43  -826.690012c -6.03  -3.75    +64.9321
iter:  62 23:53:32  -826.691492c -5.82  -3.78    +64.9022
iter:  63 23:54:21  -826.692936c -5.77  -3.80    +64.8800
iter:  64 23:55:11  -826.693532c -6.18  -3.81    +64.8702
iter:  65 23:56:03  -826.694847c -5.96  -3.87    +64.8333
iter:  66 23:56:55  -826.695891c -5.97  -3.91    +64.8115
iter:  67 23:57:49  -826.698586c -5.52  -3.94    +64.7487
iter:  68 23:58:40  -826.705252c -4.82  -3.94    +64.6052
iter:  69 23:59:31  -826.710226c -4.79  -3.71    +64.4909
iter:  70 00:00:22  -826.714731c -4.59  -3.63    +64.3609
iter:  71 00:01:13  -826.715819c -5.23  -3.51    +64.3443
iter:  72 00:02:03  -826.716277c -5.90  -3.48    +64.3596
iter:  73 00:02:54  -826.718156c -5.82  -3.47    +64.3491
iter:  74 00:03:45  -826.716848c -6.18  -3.42    +64.3613
iter:  75 00:04:35  -826.720008c -4.96  -3.43    +64.3460
iter:  76 00:05:29  -826.719331c -4.77  -3.32    +64.3510
iter:  77 00:06:19  -826.712020c -5.32  -3.23    +64.3438
iter:  78 00:07:09  -826.712171c -5.02  -3.56    +64.3085
iter:  79 00:07:59  -826.709965c -5.49  -3.40    +64.3105
iter:  80 00:08:47  -826.710388c -5.68  -3.65    +64.2992
iter:  81 00:09:37  -826.709594c -6.12  -3.63    +64.2989
iter:  82 00:10:27  -826.709890c -6.31  -3.74    +64.3012
iter:  83 00:11:18  -826.709566c -6.54  -3.76    +64.3091
iter:  84 00:12:07  -826.710369c -6.31  -3.78    +64.3109
iter:  85 00:12:57  -826.709861c -6.62  -3.80    +64.3189
iter:  86 00:13:47  -826.710319c -6.50  -3.86    +64.3318
iter:  87 00:14:38  -826.710092c -6.48  -3.89    +64.3360
iter:  88 00:15:29  -826.710207c -6.67  -3.93    +64.3421
iter:  89 00:16:21  -826.709978c -6.43  -3.99    +64.3534
iter:  90 00:17:13  -826.710383c -6.70  -4.02c   +64.3525
iter:  91 00:18:06  -826.710245c -6.63  -4.03c   +64.3597
iter:  92 00:18:55  -826.710189c -6.56  -4.14c   +64.3630
iter:  93 00:19:46  -826.710375c -6.89  -4.21c   +64.3650
iter:  94 00:20:35  -826.710324c -6.66  -4.27c   +64.3661
iter:  95 00:21:25  -826.710284c -7.11  -4.29c   +64.3674
iter:  96 00:22:14  -826.710619c -6.75  -4.31c   +64.3666
iter:  97 00:23:04  -826.710505c -7.15  -4.30c   +64.3693
iter:  98 00:23:53  -826.710626c -6.91  -4.42c   +64.3699
iter:  99 00:24:43  -826.710647c -7.38  -4.44c   +64.3723
iter: 100 00:25:33  -826.710801c -6.96  -4.45c   +64.3741
iter: 101 00:26:23  -826.710744c -7.46c -4.44c   +64.3740

Converged after 101 iterations.

Dipole moment: (27.521871, -2.544829, -8.519955) |e|*Ang

Total magnetic moment: (0.000000, 0.000000, 64.374043)
Local magnetic moments:
   0 Fe ( 0.000000,  0.000000,  2.163382)
   1 Cr ( 0.000000,  0.000000,  1.395119)
   2 Ni ( 0.000000,  0.000000, -0.008903)
   3 Cr ( 0.000000,  0.000000, -1.883871)
   4 Al ( 0.000000,  0.000000, -0.013349)
   5 Fe ( 0.000000,  0.000000,  2.198821)
   6 Ni ( 0.000000,  0.000000,  0.174219)
   7 Al ( 0.000000,  0.000000, -0.017782)
   8 Al ( 0.000000,  0.000000, -0.014761)
   9 Co ( 0.000000,  0.000000,  1.418849)
  10 Ni ( 0.000000,  0.000000,  0.200278)
  11 Co ( 0.000000,  0.000000,  1.111553)
  12 Ni ( 0.000000,  0.000000,  0.247855)
  13 Cr ( 0.000000,  0.000000,  1.229453)
  14 Fe ( 0.000000,  0.000000,  1.476653)
  15 Cr ( 0.000000,  0.000000, -1.573519)
  16 Co ( 0.000000,  0.000000,  0.750786)
  17 Cr ( 0.000000,  0.000000,  0.391079)
  18 Co ( 0.000000,  0.000000,  1.065987)
  19 Fe ( 0.000000,  0.000000,  1.828439)
  20 Cr ( 0.000000,  0.000000, -1.986354)
  21 Fe ( 0.000000,  0.000000,  2.341635)
  22 Co ( 0.000000,  0.000000,  1.047408)
  23 Al ( 0.000000,  0.000000, -0.028490)
  24 Ni ( 0.000000,  0.000000,  0.197951)
  25 Cr ( 0.000000,  0.000000,  0.317864)
  26 Cr ( 0.000000,  0.000000, -0.385322)
  27 Al ( 0.000000,  0.000000, -0.017613)
  28 Cr ( 0.000000,  0.000000, -0.619108)
  29 Cr ( 0.000000,  0.000000, -1.847722)
  30 Fe ( 0.000000,  0.000000,  1.730520)
  31 Fe ( 0.000000,  0.000000,  1.592487)
  32 Ni ( 0.000000,  0.000000,  0.259847)
  33 Cr ( 0.000000,  0.000000,  1.557139)
  34 Co ( 0.000000,  0.000000,  0.901601)
  35 Ni ( 0.000000,  0.000000,  0.340350)
  36 Ni ( 0.000000,  0.000000,  0.172580)
  37 Co ( 0.000000,  0.000000,  1.560764)
  38 Co ( 0.000000,  0.000000,  1.258578)
  39 Cr ( 0.000000,  0.000000, -1.888712)
  40 Fe ( 0.000000,  0.000000,  2.186931)
  41 Al ( 0.000000,  0.000000, -0.039371)
  42 Fe ( 0.000000,  0.000000,  2.244890)
  43 Ni ( 0.000000,  0.000000,  0.394075)
  44 Cr ( 0.000000,  0.000000, -1.692258)
  45 Co ( 0.000000,  0.000000,  1.497232)
  46 Co ( 0.000000,  0.000000,  1.299648)
  47 Ni ( 0.000000,  0.000000,  0.419653)
  48 Ni ( 0.000000,  0.000000,  0.292728)
  49 Cr ( 0.000000,  0.000000,  1.525768)
  50 Co ( 0.000000,  0.000000,  0.979475)
  51 Al ( 0.000000,  0.000000, -0.027493)
  52 Al ( 0.000000,  0.000000, -0.039395)
  53 Fe ( 0.000000,  0.000000,  2.069354)
  54 Fe ( 0.000000,  0.000000,  2.384153)
  55 Fe ( 0.000000,  0.000000,  2.211503)
  56 Ni ( 0.000000,  0.000000,  0.550426)
  57 Ni ( 0.000000,  0.000000,  0.180340)
  58 Co ( 0.000000,  0.000000,  1.211201)
  59 Co ( 0.000000,  0.000000,  0.855545)
  60 Fe ( 0.000000,  0.000000,  1.390141)
  61 Co ( 0.000000,  0.000000,  1.232887)
  62 Al ( 0.000000,  0.000000, -0.014819)
  63 Ni ( 0.000000,  0.000000, -0.009942)
  64 Al ( 0.000000,  0.000000, -0.012659)
  65 Cr ( 0.000000,  0.000000, -1.933432)
  66 Al ( 0.000000,  0.000000, -0.022936)
  67 Ni ( 0.000000,  0.000000,  0.062192)
  68 Al ( 0.000000,  0.000000, -0.033739)
  69 Fe ( 0.000000,  0.000000,  2.019131)
  70 Cr ( 0.000000,  0.000000, -0.851388)
  71 Cr ( 0.000000,  0.000000, -1.040475)
  72 Fe ( 0.000000,  0.000000,  2.451536)
  73 Co ( 0.000000,  0.000000,  1.503519)
  74 Co ( 0.000000,  0.000000,  1.073002)
  75 Co ( 0.000000,  0.000000,  1.579657)
  76 Fe ( 0.000000,  0.000000,  2.283085)
  77 Fe ( 0.000000,  0.000000,  2.361402)
  78 Cr ( 0.000000,  0.000000, -1.975801)
  79 Fe ( 0.000000,  0.000000,  2.283304)
  80 Co ( 0.000000,  0.000000,  1.308673)
  81 Al ( 0.000000,  0.000000, -0.018194)
  82 Ni ( 0.000000,  0.000000,  0.403917)
  83 Ni ( 0.000000,  0.000000,  0.508841)
  84 Ni ( 0.000000,  0.000000,  0.368503)
  85 Fe ( 0.000000,  0.000000,  2.190351)
  86 Co ( 0.000000,  0.000000,  1.216988)
  87 Cr ( 0.000000,  0.000000, -1.776856)
  88 Ni ( 0.000000,  0.000000,  0.435333)
  89 Fe ( 0.000000,  0.000000,  2.116292)
  90 Ni ( 0.000000,  0.000000,  0.193363)
  91 Co ( 0.000000,  0.000000,  0.837404)
  92 Al ( 0.000000,  0.000000, -0.041964)
  93 Cr ( 0.000000,  0.000000,  1.696149)
  94 Fe ( 0.000000,  0.000000,  2.122034)
  95 Cr ( 0.000000,  0.000000, -1.439627)
  96 Ni ( 0.000000,  0.000000,  0.224156)
  97 Fe ( 0.000000,  0.000000,  2.425005)
  98 Co ( 0.000000,  0.000000,  0.514711)
  99 Ni ( 0.000000,  0.000000,  0.380026)
 100 Cr ( 0.000000,  0.000000,  1.530437)
 101 Al ( 0.000000,  0.000000, -0.009806)
 102 Cr ( 0.000000,  0.000000, -1.488070)
 103 Co ( 0.000000,  0.000000,  0.766616)
 104 Al ( 0.000000,  0.000000, -0.019921)
 105 Ni ( 0.000000,  0.000000,  0.276641)
 106 Co ( 0.000000,  0.000000,  1.110528)
 107 Fe ( 0.000000,  0.000000,  2.192633)

Energy contributions relative to reference atoms: (reference = -3382523.201499)

Kinetic:       +216.077453
Potential:     -226.734612
External:        +0.000000
XC:            -847.475267
Entropy (-ST):   -4.178358
Local:          +33.510861
--------------------------
Free energy:   -828.799923
Extrapolated:  -826.710744

Spin contamination: 27.576927 electrons
Showing only first 2 kpts
                      Up                     Down
 Kpt  Band  Eigenvalues  Occupancy  Eigenvalues  Occupancy
  0   470      9.12342    0.99653     10.08019    0.01972
  0   471      9.12921    0.99633     10.09607    0.01687
  0   472      9.13981    0.99592     10.10702    0.01514
  0   473      9.15253    0.99537     10.11543    0.01394

  1   470      9.12240    0.99657     10.08547    0.01872
  1   471      9.14049    0.99589     10.09642    0.01681
  1   472      9.16088    0.99497     10.09822    0.01651
  1   473      9.17440    0.99424     10.12452    0.01274


Fermi level: 9.68954

No gap

Forces in eV/Ang:
  0 Fe   -0.03182    0.13095   -0.16410
  1 Cr    0.04965    0.21008    0.02105
  2 Ni    0.11894   -0.34970   -0.39016
  3 Cr   -0.17873    0.40048    0.19193
  4 Al    0.11823   -0.14171   -0.19035
  5 Fe   -0.26335    0.33275    0.00345
  6 Ni    0.01380    0.40929   -0.42489
  7 Al   -0.45480   -0.16428    0.13427
  8 Al    0.29096    0.65311   -0.38569
  9 Co    0.09634    0.25893   -0.15117
 10 Ni   -0.14773   -0.06621   -0.26253
 11 Co   -0.18312    0.01524   -0.00490
 12 Ni   -0.08802    0.13222    0.04932
 13 Cr    0.04301   -0.06908    0.18776
 14 Fe    0.51055    0.09175   -0.03844
 15 Cr   -0.20994   -0.32296   -0.21071
 16 Co   -0.15264    0.25730    0.10347
 17 Cr   -0.29086    0.23181   -0.75364
 18 Co    0.01976   -0.28507    0.11702
 19 Fe   -0.36363   -0.06302    0.32087
 20 Cr    0.30716    0.44242    0.06528
 21 Fe    0.01217   -0.15645   -0.01787
 22 Co   -0.10255   -0.15696   -0.12000
 23 Al    0.25170    0.66568   -0.10682
 24 Ni    0.03840   -0.07714    0.06255
 25 Cr   -0.44340   -0.36546    0.29860
 26 Cr   -0.20674    0.09886    0.10526
 27 Al    0.19692    0.26032   -0.52688
 28 Cr   -0.14864   -0.15602    0.43615
 29 Cr    0.23158   -0.01986    0.17056
 30 Fe   -0.36768    0.18483   -0.02181
 31 Fe   -0.32073    0.01943   -0.07565
 32 Ni    0.14018    0.05520   -0.18675
 33 Cr    0.10114   -0.20344    0.31112
 34 Co    0.28613    0.28381    0.12756
 35 Ni   -0.13381    0.01303    0.29747
 36 Ni   -0.10846    0.03725   -0.03591
 37 Co    0.20756    0.36124   -0.07613
 38 Co    0.12933   -0.10695   -0.06904
 39 Cr   -0.41424    0.17721   -0.42000
 40 Fe   -0.01799   -0.25020   -0.31075
 41 Al   -0.14400    0.44567    0.05825
 42 Fe    0.16427   -0.14388   -0.01275
 43 Ni   -0.20687    0.28357   -0.01616
 44 Cr   -0.11298    0.09870    0.04230
 45 Co   -0.21827    0.01060    0.17894
 46 Co   -0.16659   -0.07384   -0.27009
 47 Ni   -0.14016   -0.13577    0.07163
 48 Ni    0.32869    0.19632    0.02093
 49 Cr   -0.72928   -0.31851    0.33205
 50 Co    0.27464   -0.13342   -0.17848
 51 Al    0.55969   -0.55569    0.28196
 52 Al    0.01545   -0.13478    0.32721
 53 Fe   -0.00354   -0.02956   -0.44700
 54 Fe    0.12884    0.18613    0.06117
 55 Fe   -0.24453   -0.21371   -0.15545
 56 Ni    0.03629   -0.20444   -0.09144
 57 Ni   -0.00129    0.40326    0.16110
 58 Co    0.05344    0.19792    0.05056
 59 Co    0.04078    0.00068    0.16572
 60 Fe   -0.12703   -0.12741   -0.14924
 61 Co   -0.30525   -0.03556   -0.12692
 62 Al   -0.30382    0.43627   -0.18499
 63 Ni    0.30702   -0.31844    0.10370
 64 Al    0.32417   -0.22765    0.67056
 65 Cr   -0.02541    0.65961    0.38645
 66 Al    0.43112   -0.18728   -0.00557
 67 Ni   -0.06583   -0.56783    0.19284
 68 Al   -0.23153   -0.34596    0.38643
 69 Fe    0.05964    0.06682    0.06542
 70 Cr    0.51314   -0.12269    0.03548
 71 Cr    0.70821    0.11575   -0.27248
 72 Fe    0.30921    0.37792   -0.07941
 73 Co    0.12489   -0.01208    0.18124
 74 Co    0.25760   -0.13055    0.26964
 75 Co   -0.05449    0.17555    0.00588
 76 Fe   -0.22528   -0.47509    0.15240
 77 Fe   -0.02533   -0.12871    0.01556
 78 Cr    0.26317   -0.21904   -0.23132
 79 Fe    0.12048   -0.02154    0.07438
 80 Co   -0.09158   -0.07760    0.04372
 81 Al    0.30856   -0.05041    0.02141
 82 Ni   -0.30342    0.31933    0.19664
 83 Ni   -0.47802    0.18231    0.19447
 84 Ni    0.04169   -0.06142   -0.11382
 85 Fe    0.03407    0.21879   -0.33667
 86 Co    0.01424   -0.20075    0.02175
 87 Cr   -0.27816    0.01959    0.20624
 88 Ni    0.03203   -0.08646   -0.13387
 89 Fe    0.11382   -0.40767    0.25726
 90 Ni    0.28694   -0.37202    0.05536
 91 Co   -0.08029   -0.00953   -0.18204
 92 Al   -0.10900   -0.08306   -0.02922
 93 Cr   -0.20027    0.12337   -0.28806
 94 Fe    0.06587   -0.47945   -0.10460
 95 Cr    0.62910    0.02439    0.02713
 96 Ni    0.18517   -0.19453   -0.05232
 97 Fe    0.11913   -0.24181    0.01547
 98 Co    0.27112    0.02689    0.28711
 99 Ni    0.41432   -0.27199    0.04767
100 Cr    0.04343    0.07331   -0.01862
101 Al   -0.59948    0.12282   -0.02679
102 Cr    0.34329    0.15052    0.11132
103 Co    0.04799   -0.01543    0.07267
104 Al   -0.49990   -0.02652   -0.10169
105 Ni   -0.19639   -0.06455   -0.05478
106 Co   -0.28271    0.01066   -0.06849
107 Fe   -0.05519   -0.18217   -0.18388

Timing:                              incl.     excl.
-----------------------------------------------------------
Forces:                             12.132    12.132   0.2% |
Hamiltonian:                         0.584     0.072   0.0% |
 Atomic:                             0.186     0.094   0.0% |
  XC Correction:                     0.093     0.093   0.0% |
 Calculate atomic Hamiltonians:      0.216     0.216   0.0% |
 Communicate:                        0.010     0.010   0.0% |
 Initialize Hamiltonian:             0.000     0.000   0.0% |
 Poisson:                            0.000     0.000   0.0% |
 XC 3D grid:                         0.099     0.099   0.0% |
LCAO initialization:                61.426     1.119   0.0% |
 LCAO eigensolver:                   5.733     0.005   0.0% |
  Calculate projections:             0.112     0.112   0.0% |
  DenseAtomicCorrection:             0.117     0.117   0.0% |
  Distribute overlap matrix:         0.702     0.702   0.0% |
  Orbital Layouts:                   2.790     2.790   0.1% |
  Potential matrix:                  1.723     1.723   0.0% |
  Sum over cells:                    0.284     0.284   0.0% |
 LCAO to grid:                      52.929    52.929   1.0% |
 Set positions (LCAO WFS):           1.646     0.894   0.0% |
  Basic WFS set positions:           0.004     0.004   0.0% |
  Basis functions set positions:     0.001     0.001   0.0% |
  P tci:                             0.205     0.205   0.0% |
  ST tci:                            0.184     0.184   0.0% |
  mktci:                             0.359     0.359   0.0% |
PWDescriptor:                        0.077     0.077   0.0% |
SCF-cycle:                        5408.923    40.113   0.7% |
 Davidson:                        5251.461  1662.652  30.3% |-----------|
  Apply H:                          48.092    46.432   0.8% |
   HMM T:                            1.660     1.660   0.0% |
  Subspace diag:                   453.611     0.042   0.0% |
   calc_h_matrix:                  167.448   113.391   2.1% ||
    Apply H:                        54.057    52.546   1.0% |
     HMM T:                          1.511     1.511   0.0% |
   diagonalize:                     79.418    79.418   1.4% ||
   rotate_psi:                     206.703   206.703   3.8% |-|
  calc. matrices:                 1029.054   902.340  16.4% |------|
   Apply H:                        126.714   123.489   2.3% ||
    HMM T:                           3.224     3.224   0.1% |
  diagonalize:                    1607.615  1607.615  29.3% |-----------|
  rotate_psi:                      450.437   450.437   8.2% |--|
 Density:                           53.618     0.003   0.0% |
  Atomic density matrices:           1.583     1.583   0.0% |
  Mix:                              27.691    27.691   0.5% |
  Multipole moments:                 0.077     0.077   0.0% |
  Pseudo density:                   24.265    24.260   0.4% |
   Symmetrize density:               0.005     0.005   0.0% |
 Hamiltonian:                       57.940     1.449   0.0% |
  Atomic:                           20.142    10.900   0.2% |
   XC Correction:                    9.243     9.243   0.2% |
  Calculate atomic Hamiltonians:    22.599    22.599   0.4% |
  Communicate:                       2.325     2.325   0.0% |
  Poisson:                           0.071     0.071   0.0% |
  XC 3D grid:                       11.353    11.353   0.2% |
 Orthonormalize:                     5.791     0.001   0.0% |
  calc_s_matrix:                     0.793     0.793   0.0% |
  inverse-cholesky:                  0.324     0.324   0.0% |
  projections:                       3.625     3.625   0.1% |
  rotate_psi_s:                      1.048     1.048   0.0% |
Set symmetry:                        0.001     0.001   0.0% |
Other:                               3.653     3.653   0.1% |
-----------------------------------------------------------
Total:                                      5486.797 100.0%

Date: Sat Apr  8 00:26:37 2023
