
  ___ ___ ___ _ _ _  
 |   |   |_  | | | | 
 | | | | | . | | | | 
 |__ |  _|___|_____|  22.8.0
 |___|_|             

User:   c.zeng@d0021
Date:   Mon Apr 17 18:01:30 2023
Arch:   x86_64
Pid:    183525
CWD:    /home/c.zeng/projects/hea-corrosion/hea-mlp/data-curation/surface-md/dft-jobs/70
Python: 3.8.1
gpaw:   /home/c.zeng/usr/installs/gpaw/source/gpaw-22.8.0/gpaw
_gpaw:  /home/c.zeng/usr/installs/gpaw/source/gpaw-22.8.0/
        _gpaw.cpython-38-x86_64-linux-gnu.so
ase:    /home/c.zeng/.local/lib/python3.8/site-packages/ase-3.22.1-py3.8.egg/ase (version 3.22.1)
numpy:  /home/c.zeng/.local/lib/python3.8/site-packages/numpy (version 1.24.2)
scipy:  /home/c.zeng/.local/lib/python3.8/site-packages/scipy (version 1.10.1)
libxc:  4.2.3
units:  Angstrom and eV
cores: 30
OpenMP: False
OMP_NUM_THREADS: 1

Input parameters:
  convergence: {energy: 0.0001}
  kpts: [2 2 1]
  maxiter: 666
  mode: {ecut: 350.0,
         name: pw}
  occupations: {fixmagmom: False,
                name: fermi-dirac,
                width: 0.1}
  poissonsolver: {dipolelayer: xy}
  spinpol: True
  symmetry: {point_group: False}
  xc: PBE

System changes: positions, numbers, cell, pbc, initial_charges, initial_magmoms 

Initialize ...

species:
  Cr:
    name: Chromium
    id: 33f258bda2ca9f93018e70263a35547b
    Z: 24.0
    valence: 6
    core: 18
    charge: 0.0
    file: /home/c.zeng/usr/data/gpaw-setups-0.9.20000/Cr.PBE.gz
    compensation charges: {type: gauss,
                           rc: 0.35,
                           lmax: 2}
    cutoffs: {filter: 2.14,
              core: 3.04}
    valence states:
      #              energy  rcut
      - 4s(1.00)    -4.007   1.164
      - 4p(0.00)    -0.989   1.217
      - 3d(5.00)    -2.913   1.111
      -  s          23.205   1.164
      -  p          26.223   1.217
      -  d          24.299   1.111
  
    # Using partial waves for Cr as LCAO basis

  Al:
    name: Aluminium
    id: 0292cae29f5d6237e50f6abdd43a7bdd
    Z: 13.0
    valence: 3
    core: 10
    charge: 0.0
    file: /home/c.zeng/usr/data/gpaw-setups-0.9.20000/Al.PBE.gz
    compensation charges: {type: gauss,
                           rc: 0.34,
                           lmax: 2}
    cutoffs: {filter: 1.91,
              core: 2.36}
    valence states:
      #              energy  rcut
      - 3s(2.00)    -7.753   1.085
      - 3p(1.00)    -2.712   1.085
      -  s          19.459   1.085
      -  p          24.499   1.085
      -  d           0.000   1.085
  
    # Using partial waves for Al as LCAO basis

  Fe:
    name: Iron
    id: 37abbd8d6c3c35915a9b583b742da910
    Z: 26.0
    valence: 8
    core: 18
    charge: 0.0
    file: /home/c.zeng/usr/data/gpaw-setups-0.9.20000/Fe.PBE.gz
    compensation charges: {type: gauss,
                           rc: 0.33,
                           lmax: 2}
    cutoffs: {filter: 2.06,
              core: 2.67}
    valence states:
      #              energy  rcut
      - 4s(2.00)    -5.291   1.164
      - 4p(0.00)    -1.326   1.058
      - 3d(6.00)    -7.505   1.058
      -  s          21.920   1.164
      -  p          25.885   1.058
      -  d          19.706   1.058
  
    # Using partial waves for Fe as LCAO basis

  Co:
    name: Cobalt
    id: 339d20d5b0b93d2de9531a1bee871d91
    Z: 27.0
    valence: 9
    core: 18
    charge: 0.0
    file: /home/c.zeng/usr/data/gpaw-setups-0.9.20000/Co.PBE.gz
    compensation charges: {type: gauss,
                           rc: 0.32,
                           lmax: 2}
    cutoffs: {filter: 1.87,
              core: 2.55}
    valence states:
      #              energy  rcut
      - 4s(2.00)    -5.469   1.005
      - 4p(0.00)    -1.277   1.058
      - 3d(7.00)    -8.205   1.005
      -  s          21.742   1.005
      -  p          25.934   1.058
      -  d          19.007   1.005
  
    # Using partial waves for Co as LCAO basis

  Ni:
    name: Nickel
    id: 0d9f38a9d6e76a2886f07bb4381f212b
    Z: 28.0
    valence: 16
    core: 12
    charge: 0.0
    file: /home/c.zeng/usr/data/gpaw-setups-0.9.20000/Ni.PBE.gz
    compensation charges: {type: gauss,
                           rc: 0.36,
                           lmax: 2}
    cutoffs: {filter: 2.14,
              core: 1.98}
    valence states:
      #              energy  rcut
      - 4s(2.00)    -5.642   1.164
      - 3p(6.00)   -71.394   1.207
      - 4p(0.00)    -1.226   1.207
      - 3d(8.00)    -8.875   1.138
      -  s          21.570   1.164
      -  d          18.337   1.138
  
    # Using partial waves for Ni as LCAO basis

Reference energy: -3927717.499734  # eV

Spin-polarized calculation.
Magnetic moment: 149.100000

Convergence criteria:
 Maximum [total energy] change in last 3 cyles: 0.0001 eV / electron
 Maximum integral of absolute [dens]ity change: 0.0001 electrons / valence electron
 Maximum integral of absolute [eigenst]ate change: 4e-08 eV^2 / valence electron
 Maximum number of scf [iter]ations: 666
 (Square brackets indicate name in SCF output, whereas a 'c' in
 the SCF output indicates the quantity has converged.)

Symmetries present (total): 1

  ( 1  0  0)
  ( 0  1  0)
  ( 0  0  1)

4 k-points: 2 x 2 x 1 Monkhorst-Pack grid
2 k-points in the irreducible part of the Brillouin zone
       k-points in crystal coordinates                weights
   0:     0.25000000   -0.25000000    0.00000000          2/4
   1:     0.25000000    0.25000000    0.00000000          2/4

Wave functions: Plane wave expansion
  Cutoff energy: 350.000 eV
  Number of coefficients (min, max): 60143, 60161
  Pulay-stress correction: 0.000000 eV/Ang^3 (de/decut=0.000000)
  Using FFTW library
  ScaLapack parameters: grid=1x1, blocksize=None
  Wavefunction extrapolation:
    Improved wavefunction reuse through dual PAW basis 

Occupation numbers: Fermi-Dirac:
  width: 0.1000  # eV
 

Eigensolver
   Davidson(niter=2) 

Densities:
  Coarse grid: 56*56*128 grid
  Fine grid: 112*112*256 grid
  Total Charge: 0.000000 

Density mixing:
  Method: difference
  Backend: pulay
  Linear mixing parameter: 0.05
  old densities: 5
  Damping of long wavelength oscillations: 50 

Hamiltonian:
  XC and Coulomb potentials evaluated on a 112*112*256 grid
  Using the PBE Exchange-Correlation functional
  External potential:
    NoExternalPotential
 

XC parameters: PBE with 2 nearest neighbor stencil

Memory estimate:
  Process memory now: 379.58 MiB
  Calculator: 2209.57 MiB
    Density: 18.91 MiB
      Arrays: 7.39 MiB
      Localized functions: 8.57 MiB
      Mixer: 2.95 MiB
    Hamiltonian: 5.75 MiB
      Arrays: 5.49 MiB
      XC: 0.00 MiB
      Poisson: 0.00 MiB
      vbar: 0.26 MiB
    Wavefunctions: 2184.92 MiB
      Arrays psit_nG: 1382.48 MiB
      Eigensolver: 782.37 MiB
      Projections: 3.31 MiB
      Projectors: 1.16 MiB
      PW-descriptor: 15.59 MiB

Total number of cores used: 30
Parallelization over k-points: 2
Domain decomposition: 1 x 3 x 5

Number of atoms: 125
Number of atomic orbitals: 1116
Number of bands in calculation: 753
Number of valence electrons: 1098
Bands to converge: occupied

... initialized

Initializing position-dependent things.

Density initialized from atomic densities
Creating initial wave functions:
  753 bands from LCAO basis set

                                                                      
                                                                      
                                                                      
                                                                      
                                                                      
                                                                      
                                                                      
                           Co         Fe           Fe                 
                         Co Cr Fe            Ni   Cr                  
                                   CoNi    CAl       Ni               
                    Al    Cr  Cr     Cr Fe     Ni      Ni             
                       Fe    Ni Al    Co  Co   NiCo                   
         Cr    Fe    Ni   CNi   NCrCo    Ni                           
                 Co     Fe  Cr    Fe  Cr   Ali     AlNi               
          Cr       Fe     Al  Ni     CrAl      Fe     Cr              
             Co     Co Fe     AlCoi  Crr     CoCr                     
               Cr    Fe   Ni       Ni  FeAloCo     Cr    Cr           
                  Ni       Co    CoiNi             Ni                 
          Co    Fe  Cr  Co CrNie   Coe    Fe  Alo    Al    Al         
             Al    Co Fe      Fe     AlFe                             
                        Cr    CrFe        Co    Fe    Fe              
                     Co    Ni       Fe Ni     Co  Ni                  
                 Cr       Al     Fe      CrCr                         
                      Al          CrCr                                
                              Al      Fe                              
                                                                      
                                                                      
                                                                      
                                                                      
                                                                      
                                                                      
                                                                      

Positions:
   0 Cr    13.406481    1.735406   10.890648    ( 0.0000,  0.0000,  0.0000)
   1 Cr     3.464076    2.220354   10.986170    ( 0.0000,  0.0000,  0.0000)
   2 Al     5.837217    2.287386    9.877584    ( 0.0000,  0.0000,  0.0000)
   3 Fe    11.885703    3.644990    8.712100    ( 0.0000,  0.0000,  2.0000)
   4 Cr    10.825054    1.515523   10.457501    ( 0.0000,  0.0000,  0.0000)
   5 Co    14.711787    4.281937   10.872944    ( 0.0000,  0.0000,  2.1000)
   6 Co     4.800487    4.309599   10.708884    ( 0.0000,  0.0000,  2.1000)
   7 Ni     7.065731    4.170635   10.999677    ( 0.0000,  0.0000,  1.5000)
   8 Fe     9.613099    3.759707   10.445512    ( 0.0000,  0.0000,  2.0000)
   9 Ni    11.900761    4.380239   11.000263    ( 0.0000,  0.0000,  1.5000)
  10 Ni    15.888037    6.015766    9.560137    ( 0.0000,  0.0000,  1.5000)
  11 Ni     6.249465    5.872304    9.312905    ( 0.0000,  0.0000,  1.5000)
  12 Al     8.131698    4.520071    8.323107    ( 0.0000,  0.0000,  0.0000)
  13 Cr    10.356591    5.356440    8.969793    ( 0.0000,  0.0000,  0.0000)
  14 Cr    13.328456    5.873110    9.285920    ( 0.0000,  0.0000,  0.0000)
  15 Fe    17.005116    7.981504   10.056482    ( 0.0000,  0.0000,  2.0000)
  16 Fe     7.514214    8.183871   10.530838    ( 0.0000,  0.0000,  2.0000)
  17 Fe     9.926776    7.660913    8.999491    ( 0.0000,  0.0000,  2.0000)
  18 Co    12.102950    8.579888    9.477658    ( 0.0000,  0.0000,  2.1000)
  19 Fe    14.696809    8.279502    9.866523    ( 0.0000,  0.0000,  2.0000)
  20 Al    18.678239    9.926513    9.952085    ( 0.0000,  0.0000,  0.0000)
  21 Ni     8.348930   10.543417   10.906042    ( 0.0000,  0.0000,  1.5000)
  22 Co    11.304105   11.049228   11.124533    ( 0.0000,  0.0000,  2.1000)
  23 Co    13.464872   10.603181    9.573117    ( 0.0000,  0.0000,  2.1000)
  24 Al    16.002758   10.201216   10.128301    ( 0.0000,  0.0000,  0.0000)
  25 Al     6.540817   11.386807   12.826843    ( 0.0000,  0.0000,  0.0000)
  26 Fe     9.350306   11.252143   12.998612    ( 0.0000,  0.0000,  2.0000)
  27 Al     7.701770    0.219844   12.159871    ( 0.0000,  0.0000,  0.0000)
  28 Ni    14.755632   12.602635   10.060347    ( 0.0000,  0.0000,  1.5000)
  29 Cr    16.402739   11.506469   12.467951    ( 0.0000,  0.0000,  0.0000)
  30 Al     1.906820    2.867062   13.036793    ( 0.0000,  0.0000,  0.0000)
  31 Co     4.301098    2.678514   13.216996    ( 0.0000,  0.0000,  2.1000)
  32 Cr     6.477276    2.570714   12.566710    ( 0.0000,  0.0000,  0.0000)
  33 Cr     8.983265    2.659007   12.318991    ( 0.0000,  0.0000,  0.0000)
  34 Al    11.420404    2.683286   12.818497    ( 0.0000,  0.0000,  0.0000)
  35 Ni     3.403269    4.895349   13.549693    ( 0.0000,  0.0000,  1.5000)
  36 Co     5.674007    4.632576   13.388750    ( 0.0000,  0.0000,  2.1000)
  37 Fe     8.256563    5.037345   12.901641    ( 0.0000,  0.0000,  2.0000)
  38 Fe    10.483971    5.020675   12.660740    ( 0.0000,  0.0000,  2.0000)
  39 Fe    13.223471    4.969511   13.113778    ( 0.0000,  0.0000,  2.0000)
  40 Cr     3.780554    6.489460   12.031457    ( 0.0000,  0.0000,  0.0000)
  41 Cr     6.629328    6.415265   12.000817    ( 0.0000,  0.0000,  0.0000)
  42 Fe     8.781099    5.968075   10.577742    ( 0.0000,  0.0000,  2.0000)
  43 Fe    11.348362    6.653064   10.908112    ( 0.0000,  0.0000,  2.0000)
  44 Al    14.050157    6.586688   11.646170    ( 0.0000,  0.0000,  0.0000)
  45 Cr    18.007606    8.997391   12.272921    ( 0.0000,  0.0000,  0.0000)
  46 Ni     7.417372    9.405326   12.814962    ( 0.0000,  0.0000,  1.5000)
  47 Ni     9.739196    8.733118   11.539196    ( 0.0000,  0.0000,  1.5000)
  48 Co    12.773204    8.755174   12.154123    ( 0.0000,  0.0000,  2.1000)
  49 Cr    15.634238    8.916821   12.079782    ( 0.0000,  0.0000,  0.0000)
  50 Co     1.164338    0.669701   15.222951    ( 0.0000,  0.0000,  2.1000)
  51 Fe     3.736486    0.565014   15.170472    ( 0.0000,  0.0000,  2.0000)
  52 Fe     5.985875    0.793989   14.083698    ( 0.0000,  0.0000,  2.0000)
  53 Ni     8.697691    1.506663   14.527000    ( 0.0000,  0.0000,  1.5000)
  54 Co    11.090322    1.044883   14.909904    ( 0.0000,  0.0000,  2.1000)
  55 Cr     2.861914    2.902535   15.329632    ( 0.0000,  0.0000,  0.0000)
  56 Fe     5.113193    2.909378   15.419017    ( 0.0000,  0.0000,  2.0000)
  57 Co     7.384845    3.271728   14.503923    ( 0.0000,  0.0000,  2.1000)
  58 Co     9.955643    3.400477   14.730584    ( 0.0000,  0.0000,  2.1000)
  59 Fe    12.502537    2.889197   15.377322    ( 0.0000,  0.0000,  2.0000)
  60 Fe     3.748425    5.229418   16.152951    ( 0.0000,  0.0000,  2.0000)
  61 Al     6.401009    5.467730   15.643766    ( 0.0000,  0.0000,  0.0000)
  62 Ni     9.126128    5.502009   15.122578    ( 0.0000,  0.0000,  1.5000)
  63 Cr    11.526119    5.189718   15.123602    ( 0.0000,  0.0000,  0.0000)
  64 Co    14.068333    5.084874   15.462689    ( 0.0000,  0.0000,  2.1000)
  65 Fe     5.051304    6.998052   14.024438    ( 0.0000,  0.0000,  2.0000)
  66 Al     7.408797    7.391238   14.113821    ( 0.0000,  0.0000,  0.0000)
  67 Ni     9.709299    7.114364   13.056621    ( 0.0000,  0.0000,  1.5000)
  68 Al    12.138004    7.040628   13.481097    ( 0.0000,  0.0000,  0.0000)
  69 Cr    14.527305    7.299459   13.982780    ( 0.0000,  0.0000,  0.0000)
  70 Cr     6.100676    9.586308   14.740530    ( 0.0000,  0.0000,  0.0000)
  71 Fe     8.767743    9.406029   14.981668    ( 0.0000,  0.0000,  2.0000)
  72 Al    10.788084    9.395565   13.721805    ( 0.0000,  0.0000,  0.0000)
  73 Fe    13.736049    9.644482   14.082264    ( 0.0000,  0.0000,  2.0000)
  74 Ni    16.051061   10.213826   14.470431    ( 0.0000,  0.0000,  1.5000)
  75 Cr    12.027453    1.160065   17.353852    ( 0.0000,  0.0000,  0.0000)
  76 Co     2.356999    0.796222   17.487093    ( 0.0000,  0.0000,  2.1000)
  77 Co     5.002269    0.909086   17.436855    ( 0.0000,  0.0000,  2.1000)
  78 Ni     7.400615    1.199689   16.345527    ( 0.0000,  0.0000,  1.5000)
  79 Co     9.784430    1.697160   16.904895    ( 0.0000,  0.0000,  2.1000)
  80 Al    13.709326    3.469278   17.549161    ( 0.0000,  0.0000,  0.0000)
  81 Co     3.489229    3.150998   17.731850    ( 0.0000,  0.0000,  2.1000)
  82 Fe     6.081547    3.596182   17.418388    ( 0.0000,  0.0000,  2.0000)
  83 Ni     8.416007    3.895767   16.698511    ( 0.0000,  0.0000,  1.5000)
  84 Cr    11.137044    3.741948   16.983346    ( 0.0000,  0.0000,  0.0000)
  85 Ni    14.996779    5.508412   18.146438    ( 0.0000,  0.0000,  1.5000)
  86 Fe     5.140409    6.091957   18.143243    ( 0.0000,  0.0000,  2.0000)
  87 Ni     7.471185    5.678697   18.091864    ( 0.0000,  0.0000,  1.5000)
  88 Co     9.837595    5.926305   17.401733    ( 0.0000,  0.0000,  2.1000)
  89 Ni    12.299144    5.668120   17.456464    ( 0.0000,  0.0000,  1.5000)
  90 Al    15.941608    7.639069   15.896306    ( 0.0000,  0.0000,  0.0000)
  91 Co     5.911351    7.927860   16.410154    ( 0.0000,  0.0000,  2.1000)
  92 Ni     8.197485    7.514460   16.592215    ( 0.0000,  0.0000,  1.5000)
  93 Cr    10.695713    7.405449   15.601853    ( 0.0000,  0.0000,  0.0000)
  94 Ni    13.130375    7.522414   15.926210    ( 0.0000,  0.0000,  1.5000)
  95 Ni    17.182427   10.057567   16.460563    ( 0.0000,  0.0000,  1.5000)
  96 Cr     7.104270   10.039345   16.984055    ( 0.0000,  0.0000,  0.0000)
  97 Cr    10.000343    9.716080   17.112752    ( 0.0000,  0.0000,  0.0000)
  98 Co    11.929709    9.617247   15.971603    ( 0.0000,  0.0000,  2.1000)
  99 Co    14.735133    9.770897   16.390050    ( 0.0000,  0.0000,  2.1000)
 100 Co     5.455915   10.310891   19.011914    ( 0.0000,  0.0000,  2.1000)
 101 Cr     1.585877   -0.866545   19.424496    ( 0.0000,  0.0000,  0.0000)
 102 Fe    10.379146    9.760933   19.463003    ( 0.0000,  0.0000,  2.0000)
 103 Ni    12.963823   10.197518   18.382920    ( 0.0000,  0.0000,  1.5000)
 104 Fe    15.311979   10.403236   18.592394    ( 0.0000,  0.0000,  2.0000)
 105 Cr     0.485328    1.462351   19.393766    ( 0.0000,  0.0000,  0.0000)
 106 Fe     2.896466    1.275244   19.707364    ( 0.0000,  0.0000,  2.0000)
 107 Ni     5.226261    1.953624   19.594210    ( 0.0000,  0.0000,  1.5000)
 108 Ni     7.648235    1.742524   18.971929    ( 0.0000,  0.0000,  1.5000)
 109 Cr    10.450160    1.597605   19.298840    ( 0.0000,  0.0000,  0.0000)
 110 Al    14.299281    3.767181   20.375218    ( 0.0000,  0.0000,  0.0000)
 111 Al     4.407688    4.420733   19.817775    ( 0.0000,  0.0000,  0.0000)
 112 Cr     6.652729    4.061792   19.948997    ( 0.0000,  0.0000,  0.0000)
 113 Al     9.201496    3.713608   19.137017    ( 0.0000,  0.0000,  0.0000)
 114 Co    11.937924    3.523543   19.568245    ( 0.0000,  0.0000,  2.1000)
 115 Cr    16.033251    6.635058   19.981783    ( 0.0000,  0.0000,  0.0000)
 116 Co     5.799404    6.245150   20.470445    ( 0.0000,  0.0000,  2.1000)
 117 Fe     8.279085    5.901094   20.378551    ( 0.0000,  0.0000,  2.0000)
 118 Ni    10.805960    5.675412   19.548038    ( 0.0000,  0.0000,  1.5000)
 119 Co    13.259732    6.172365   19.571028    ( 0.0000,  0.0000,  2.1000)
 120 Ni    16.779014    8.413082   18.277148    ( 0.0000,  0.0000,  1.5000)
 121 Cr     6.476590    8.179893   18.906893    ( 0.0000,  0.0000,  0.0000)
 122 Co     9.385317    7.698392   18.914856    ( 0.0000,  0.0000,  2.1000)
 123 Fe    11.557989    7.776123   17.965510    ( 0.0000,  0.0000,  2.0000)
 124 Ni    14.243350    7.812724   18.130055    ( 0.0000,  0.0000,  1.5000)

Unit cell:
           periodic     x           y           z      points  spacing
  1. axis:    yes   12.614700    0.000000    0.000000    56     0.1951
  2. axis:    yes    6.308550   10.926700    0.000000    56     0.1951
  3. axis:    no     0.000000    0.000000   29.353100   128     0.2293

  Lengths:  12.614700  12.617075  29.353100
  Angles:   90.000000  90.000000  59.999934

Effective grid spacing dv^(1/3) = 0.2160

     iter     time        total  log10-change:  magmom
                         energy  eigst   dens
iter:   1 18:07:33 -1139.773450                  +149.4302
iter:   2 18:09:35 -1577.238265  +0.40  -1.08    +79.6754
iter:   3 18:11:37 -3452.625945  +1.57  -0.83    +49.6749
iter:   4 18:13:40  -999.239448  +0.42  -0.50    +27.0017
iter:   5 18:15:42  -954.051891  +0.01  -1.14    +24.5017
iter:   6 18:17:44  -946.262093  -0.40  -1.19    +24.0543
iter:   7 18:19:46  -929.399956  -0.90  -1.21    +24.9523
iter:   8 18:21:49  -953.003013  -0.74  -1.23    +26.9168
iter:   9 18:23:51 -1861.727947  +0.13  -1.17    +28.7799
iter:  10 18:25:53  -922.436844  -0.61  -0.76    +25.8819
iter:  11 18:27:55  -926.510399  -1.29  -1.28    +26.0838
iter:  12 18:29:58  -906.972831  -1.53  -1.25    +29.1774
iter:  13 18:32:00  -918.310903  -1.42  -1.36    +29.5789
iter:  14 18:34:02  -905.845456  -1.68  -1.30    +34.1715
iter:  15 18:36:05  -899.175275  -1.36  -1.38    +36.7445
iter:  16 18:38:07  -910.813364  -1.38  -1.45    +41.2158
iter:  17 18:40:09  -933.662873  -1.53  -1.38    +43.0073
iter:  18 18:42:11  -927.852612  -1.45  -1.30    +42.6039
iter:  19 18:44:13  -895.799309  -1.64  -1.33    +44.7971
iter:  20 18:46:16  -885.476432  -1.99  -1.53    +47.8248
iter:  21 18:48:18  -886.603880  -2.46  -1.62    +52.6922
iter:  22 18:50:20  -887.344810  -2.57  -1.64    +56.1724
iter:  23 18:52:22  -945.444527  -1.64  -1.64    +61.9416
iter:  24 18:54:25  -895.090238  -1.80  -1.28    +60.9309
iter:  25 18:56:27  -890.339005  -2.24  -1.57    +64.1702
iter:  26 18:58:30  -904.175277  -2.17  -1.69    +66.6878
iter:  27 19:00:32  -891.203432  -2.35  -1.50    +68.4608
iter:  28 19:02:34  -895.352390  -2.40  -1.72    +71.1807
iter:  29 19:04:37  -933.462881  -1.66  -1.65    +72.6005
iter:  30 19:06:39  -894.585136  -1.86  -1.35    +71.8117
iter:  31 19:08:42  -895.117696  -2.53  -1.69    +72.0551
iter:  32 19:10:44  -892.068726  -2.60  -1.71    +74.7583
iter:  33 19:12:46  -902.854653  -2.41  -1.87    +74.9955
iter:  34 19:14:48  -891.394936  -2.27  -1.61    +75.5931
iter:  35 19:16:51  -902.921610  -2.08  -1.96    +75.1686
iter:  36 19:18:53  -891.472568  -2.25  -1.66    +73.0612
iter:  37 19:20:55  -892.692761  -2.74  -2.08    +72.9032
iter:  38 19:22:58  -892.529431  -2.98  -2.07    +72.4548
iter:  39 19:25:14  -895.768199  -2.78  -2.13    +71.8226
iter:  40 19:27:32  -892.878882  -2.95  -1.91    +72.0656
iter:  41 19:29:49  -894.206151  -2.79  -2.15    +71.7392
iter:  42 19:32:06  -893.132882  -3.06  -2.10    +71.1562
iter:  43 19:34:23  -893.249814  -3.08  -2.21    +70.8766
iter:  44 19:36:38  -893.551297  -3.13  -2.25    +71.1236
iter:  45 19:38:53  -959.228170  -1.75  -2.26    +71.0674
iter:  46 19:41:07  -893.812590  -2.04  -1.28    +71.4137
iter:  47 19:43:21  -894.079229  -2.93  -2.28    +71.7923
iter:  48 19:45:35  -894.338571  -3.40  -2.27    +72.1574
iter:  49 19:47:42  -894.422559  -3.27  -2.22    +72.7544
iter:  50 19:50:31  -894.839529  -3.26  -2.22    +73.5006
iter:  51 19:53:33  -915.930414  -2.10  -2.18    +72.4632
iter:  52 19:56:36  -894.946644  -2.35  -1.51    +73.8693
iter:  53 19:59:39  -895.262382  -3.11  -2.19    +74.3163
iter:  54 20:02:42  -895.011911  -3.45  -2.15    +74.6390
iter:  55 20:05:42  -895.743896  -3.09  -2.19    +75.1868
iter:  56 20:08:27  -896.327640  -3.31  -2.10    +75.1481
iter:  57 20:11:12  -965.558721  -1.61  -2.02    +75.0522
iter:  58 20:13:58  -895.535103  -1.90  -1.26    +74.5654
iter:  59 20:16:44  -897.997307  -2.45  -2.06    +74.0632
iter:  60 20:19:31  -894.815792  -3.04  -1.89    +73.9496
iter:  61 20:22:18  -894.798511  -3.47  -2.16    +74.0260
iter:  62 20:25:06  -894.662994  -3.59  -2.15    +74.1926
iter:  63 20:27:53  -903.541259  -2.24  -2.18    +74.1703
iter:  64 20:30:41  -894.241638  -2.60  -1.69    +74.1706
iter:  65 20:33:29  -894.300183  -3.44  -2.25    +74.6178
iter:  66 20:36:16  -894.231319c -3.88  -2.24    +74.5156
iter:  67 20:39:04  -893.972647  -3.92  -2.28    +74.5388
iter:  68 20:41:52  -893.856260  -3.93  -2.38    +74.5570
iter:  69 20:44:39  -893.985306  -3.33  -2.46    +74.5667
iter:  70 20:47:27  -893.859501  -3.68  -2.42    +74.7597
iter:  71 20:50:14  -893.670304  -4.11  -2.48    +74.9460
iter:  72 20:53:01  -893.682014  -4.50  -2.76    +74.7684
iter:  73 20:55:49  -893.956139  -3.75  -2.85    +74.6891
iter:  74 20:58:37  -893.499076  -3.49  -2.64    +74.5546
iter:  75 21:01:25  -893.574306  -4.02  -2.84    +74.6639
iter:  76 21:04:12  -893.666216  -4.03  -2.72    +74.7053
iter:  77 21:07:00  -893.736546  -3.97  -2.72    +74.8220
iter:  78 21:09:48  -893.766743c -4.61  -2.85    +74.8166
iter:  79 21:12:35  -893.730060c -4.05  -2.68    +74.6865
iter:  80 21:15:22  -894.010413  -3.87  -2.83    +74.8287
iter:  81 21:18:09  -893.980494  -3.77  -2.48    +74.3064
iter:  82 21:20:56  -894.047207c -3.39  -2.58    +74.9661
iter:  83 21:23:42  -894.249201  -3.34  -2.70    +75.4049
iter:  84 21:26:27  -894.225983  -3.96  -2.60    +75.0906
iter:  85 21:29:12  -894.436378  -3.60  -2.59    +74.9515
iter:  86 21:31:58  -894.638781  -3.65  -2.42    +74.7473
iter:  87 21:34:44  -894.568142  -3.87  -2.46    +74.6818
iter:  88 21:37:29  -894.826239  -3.40  -2.51    +74.7952
iter:  89 21:40:16  -896.566086  -3.27  -2.42    +74.7928
iter:  90 21:43:02  -895.591430  -2.89  -2.09    +74.8019
iter:  91 21:45:49  -895.979909  -2.51  -2.15    +75.3479
iter:  92 21:48:34  -894.642420  -2.77  -2.03    +74.9828
iter:  93 21:51:20  -894.306583  -3.13  -2.33    +75.0121
iter:  94 21:54:07  -894.001578  -3.51  -2.47    +75.3201
iter:  95 21:56:53  -894.157648  -3.70  -2.63    +75.2102
iter:  96 21:59:40  -894.066350  -3.78  -2.61    +75.3634
iter:  97 22:02:26  -894.302796  -3.76  -2.81    +75.4148
iter:  98 22:05:12  -894.114531  -4.52  -2.53    +75.4059
iter:  99 22:07:59  -894.186763  -4.09  -2.79    +75.3445
iter: 100 22:10:45  -894.264210  -4.18  -2.65    +75.3609
iter: 101 22:13:32  -894.104767  -4.17  -2.56    +75.5074
iter: 102 22:16:18  -894.266486  -4.22  -2.88    +75.5024
iter: 103 22:19:04  -894.456759  -3.57  -2.55    +75.5178
iter: 104 22:21:51  -894.167866  -3.85  -2.45    +75.6128
iter: 105 22:24:37  -894.115169  -4.26  -2.70    +75.7308
iter: 106 22:27:24  -894.135014c -4.15  -2.91    +75.7291
iter: 107 22:30:08  -894.120485c -4.36  -2.84    +75.6651
iter: 108 22:32:55  -894.152984c -4.24  -2.93    +75.7046
iter: 109 22:35:42  -894.100503c -4.72  -2.85    +75.7258
iter: 110 22:38:28  -894.105168c -5.05  -3.18    +75.8403
iter: 111 22:41:15  -894.107307c -5.28  -3.28    +75.7806
iter: 112 22:44:03  -894.113411c -5.06  -3.25    +75.7705
iter: 113 22:46:50  -894.113775c -5.53  -3.31    +75.7632
iter: 114 22:49:38  -894.121167c -5.20  -3.32    +75.7234
iter: 115 22:52:24  -894.116002c -5.53  -3.28    +75.7479
iter: 116 22:55:12  -894.118579c -5.23  -3.35    +75.7614
iter: 117 22:58:00  -894.125894c -5.16  -3.37    +75.7511
iter: 118 23:00:47  -894.124977c -4.92  -3.23    +75.7501
iter: 119 23:03:34  -894.126310c -5.06  -3.18    +75.7313
iter: 120 23:06:20  -894.122514c -5.21  -3.24    +75.7243
iter: 121 23:09:06  -894.123753c -5.24  -3.33    +75.7550
iter: 122 23:11:54  -894.120495c -5.30  -3.33    +75.7468
iter: 123 23:14:41  -894.121485c -5.51  -3.49    +75.7451
iter: 124 23:17:29  -894.127731c -5.56  -3.49    +75.7376
iter: 125 23:20:16  -894.121248c -6.00  -3.27    +75.7280
iter: 126 23:23:03  -894.122392c -5.68  -3.53    +75.7126
iter: 127 23:25:51  -894.124329c -5.26  -3.49    +75.7144
iter: 128 23:28:38  -894.125187c -5.19  -3.36    +75.7401
iter: 129 23:31:26  -894.123474c -5.77  -3.36    +75.7760
iter: 130 23:34:13  -894.122261c -5.37  -3.46    +75.7685
iter: 131 23:37:01  -894.120815c -5.76  -3.45    +75.7718
iter: 132 23:39:48  -894.120677c -6.18  -3.72    +75.7940
iter: 133 23:42:35  -894.120020c -6.20  -3.75    +75.7968
iter: 134 23:45:21  -894.120906c -6.07  -3.80    +75.8043
iter: 135 23:48:07  -894.123117c -6.03  -3.75    +75.8188
iter: 136 23:50:55  -894.120569c -6.03  -3.48    +75.8133
iter: 137 23:53:43  -894.121559c -6.12  -3.79    +75.8023
iter: 138 23:56:31  -894.120596c -6.37  -3.66    +75.8020
iter: 139 23:59:18  -894.120203c -6.43  -3.81    +75.8138
iter: 140 00:02:06  -894.119777c -6.67  -4.22c   +75.8258
iter: 141 00:04:54  -894.120025c -6.51  -4.25c   +75.8366
iter: 142 00:07:41  -894.120118c -6.64  -4.30c   +75.8522
iter: 143 00:10:29  -894.120242c -6.58  -4.28c   +75.8676
iter: 144 00:13:15  -894.120160c -6.92  -4.17c   +75.8722
iter: 145 00:16:01  -894.120331c -7.38  -4.16c   +75.8723
iter: 146 00:18:47  -894.120122c -6.78  -4.18c   +75.8844
iter: 147 00:21:33  -894.120130c -6.86  -4.08c   +75.8863
iter: 148 00:24:19  -894.120783c -6.29  -4.12c   +75.8912
iter: 149 00:27:06  -894.119899c -6.31  -3.69    +75.8965
iter: 150 00:29:53  -894.119984c -6.55  -4.00c   +75.9159
iter: 151 00:32:40  -894.120720c -6.34  -4.13c   +75.9226
iter: 152 00:35:27  -894.121743c -6.02  -3.83    +75.9285
iter: 153 00:38:14  -894.120487c -6.44  -3.67    +75.9467
iter: 154 00:41:00  -894.120562c -6.61  -4.19c   +75.9582
iter: 155 00:43:46  -894.120301c -7.03  -3.96    +75.9595
iter: 156 00:46:32  -894.120302c -6.77  -4.14c   +75.9768
iter: 157 00:49:19  -894.120324c -7.21  -4.15c   +75.9813
iter: 158 00:52:05  -894.120479c -6.85  -4.08c   +75.9867
iter: 159 00:54:50  -894.120620c -6.54  -3.84    +75.9883
iter: 160 00:57:35  -894.120733c -6.52  -4.00    +75.9866
iter: 161 01:00:23  -894.120274c -6.73  -3.74    +75.9864
iter: 162 01:03:09  -894.120079c -6.40  -3.89    +76.0023
iter: 163 01:05:55  -894.122077c -5.84  -4.14c   +76.0027
iter: 164 01:08:40  -894.120234c -6.19  -3.68    +76.0090
iter: 165 01:11:25  -894.120548c -6.49  -3.92    +76.0170
iter: 166 01:14:11  -894.126737c -5.62  -4.04c   +76.0224
iter: 167 01:16:56  -894.120217c -5.89  -3.34    +76.0308
iter: 168 01:19:42  -894.120357c -6.67  -3.89    +76.0385
iter: 169 01:22:27  -894.120178c -6.82  -4.07c   +76.0468
iter: 170 01:25:13  -894.120342c -7.24  -4.45c   +76.0467
iter: 171 01:27:59  -894.120253c -7.04  -4.32c   +76.0536
iter: 172 01:30:44  -894.120303c -7.10  -4.40c   +76.0548
iter: 173 01:33:29  -894.120770c -6.77  -4.55c   +76.0575
iter: 174 01:36:15  -894.120371c -7.14  -4.16c   +76.0576
iter: 175 01:39:00  -894.120364c -7.30  -4.26c   +76.0616
iter: 176 01:41:46  -894.120367c -7.65c -4.55c   +76.0640

Converged after 176 iterations.

Dipole moment: (45.698102, 1.541916, -0.074587) |e|*Ang

Total magnetic moment: (0.000000, 0.000000, 76.064019)
Local magnetic moments:
   0 Cr ( 0.000000,  0.000000,  2.902578)
   1 Cr ( 0.000000,  0.000000, -2.850983)
   2 Al ( 0.000000,  0.000000, -0.011028)
   3 Fe ( 0.000000,  0.000000,  2.857398)
   4 Cr ( 0.000000,  0.000000, -2.391373)
   5 Co ( 0.000000,  0.000000,  1.306318)
   6 Co ( 0.000000,  0.000000,  1.309933)
   7 Ni ( 0.000000,  0.000000,  0.259179)
   8 Fe ( 0.000000,  0.000000,  2.072988)
   9 Ni ( 0.000000,  0.000000,  0.545252)
  10 Ni ( 0.000000,  0.000000,  0.577064)
  11 Ni ( 0.000000,  0.000000,  0.463907)
  12 Al ( 0.000000,  0.000000,  0.005632)
  13 Cr ( 0.000000,  0.000000, -2.452738)
  14 Cr ( 0.000000,  0.000000, -3.356913)
  15 Fe ( 0.000000,  0.000000,  2.301781)
  16 Fe ( 0.000000,  0.000000,  2.581298)
  17 Fe ( 0.000000,  0.000000,  2.803774)
  18 Co ( 0.000000,  0.000000,  1.875110)
  19 Fe ( 0.000000,  0.000000,  2.370344)
  20 Al ( 0.000000,  0.000000, -0.040033)
  21 Ni ( 0.000000,  0.000000,  0.419097)
  22 Co ( 0.000000,  0.000000,  1.708386)
  23 Co ( 0.000000,  0.000000,  1.686642)
  24 Al ( 0.000000,  0.000000, -0.035962)
  25 Al ( 0.000000,  0.000000, -0.011806)
  26 Fe ( 0.000000,  0.000000,  2.573936)
  27 Al ( 0.000000,  0.000000, -0.019972)
  28 Ni ( 0.000000,  0.000000,  0.139368)
  29 Cr ( 0.000000,  0.000000,  1.662733)
  30 Al ( 0.000000,  0.000000, -0.023279)
  31 Co ( 0.000000,  0.000000,  0.999163)
  32 Cr ( 0.000000,  0.000000,  0.394660)
  33 Cr ( 0.000000,  0.000000, -1.487784)
  34 Al ( 0.000000,  0.000000, -0.026004)
  35 Ni ( 0.000000,  0.000000,  0.276675)
  36 Co ( 0.000000,  0.000000,  1.145236)
  37 Fe ( 0.000000,  0.000000,  2.117373)
  38 Fe ( 0.000000,  0.000000,  2.214200)
  39 Fe ( 0.000000,  0.000000,  2.095093)
  40 Cr ( 0.000000,  0.000000,  1.419634)
  41 Cr ( 0.000000,  0.000000, -2.388380)
  42 Fe ( 0.000000,  0.000000,  2.241195)
  43 Fe ( 0.000000,  0.000000,  2.490477)
  44 Al ( 0.000000,  0.000000, -0.025172)
  45 Cr ( 0.000000,  0.000000,  2.016683)
  46 Ni ( 0.000000,  0.000000,  0.121438)
  47 Ni ( 0.000000,  0.000000,  0.511783)
  48 Co ( 0.000000,  0.000000,  1.180319)
  49 Cr ( 0.000000,  0.000000, -1.908666)
  50 Co ( 0.000000,  0.000000,  1.000425)
  51 Fe ( 0.000000,  0.000000,  2.302809)
  52 Fe ( 0.000000,  0.000000,  2.546461)
  53 Ni ( 0.000000,  0.000000,  0.459476)
  54 Co ( 0.000000,  0.000000,  1.298024)
  55 Cr ( 0.000000,  0.000000, -2.366887)
  56 Fe ( 0.000000,  0.000000,  2.419931)
  57 Co ( 0.000000,  0.000000,  1.400288)
  58 Co ( 0.000000,  0.000000,  1.159235)
  59 Fe ( 0.000000,  0.000000,  2.165101)
  60 Fe ( 0.000000,  0.000000,  2.582354)
  61 Al ( 0.000000,  0.000000, -0.048236)
  62 Ni ( 0.000000,  0.000000,  0.355805)
  63 Cr ( 0.000000,  0.000000,  1.310607)
  64 Co ( 0.000000,  0.000000,  1.448818)
  65 Fe ( 0.000000,  0.000000,  1.978211)
  66 Al ( 0.000000,  0.000000, -0.023415)
  67 Ni ( 0.000000,  0.000000,  0.296275)
  68 Al ( 0.000000,  0.000000, -0.038075)
  69 Cr ( 0.000000,  0.000000,  2.151746)
  70 Cr ( 0.000000,  0.000000, -2.031837)
  71 Fe ( 0.000000,  0.000000,  2.162355)
  72 Al ( 0.000000,  0.000000, -0.048740)
  73 Fe ( 0.000000,  0.000000,  2.447948)
  74 Ni ( 0.000000,  0.000000,  0.480990)
  75 Cr ( 0.000000,  0.000000,  1.372764)
  76 Co ( 0.000000,  0.000000,  1.264724)
  77 Co ( 0.000000,  0.000000,  1.746562)
  78 Ni ( 0.000000,  0.000000,  0.721710)
  79 Co ( 0.000000,  0.000000,  1.280554)
  80 Al ( 0.000000,  0.000000, -0.001419)
  81 Co ( 0.000000,  0.000000,  1.282018)
  82 Fe ( 0.000000,  0.000000,  2.764408)
  83 Ni ( 0.000000,  0.000000,  0.480135)
  84 Cr ( 0.000000,  0.000000, -1.767212)
  85 Ni ( 0.000000,  0.000000,  0.300293)
  86 Fe ( 0.000000,  0.000000,  2.443527)
  87 Ni ( 0.000000,  0.000000,  0.467356)
  88 Co ( 0.000000,  0.000000,  1.367041)
  89 Ni ( 0.000000,  0.000000,  0.316018)
  90 Al ( 0.000000,  0.000000, -0.030944)
  91 Co ( 0.000000,  0.000000,  1.122066)
  92 Ni ( 0.000000,  0.000000,  0.364470)
  93 Cr ( 0.000000,  0.000000, -2.088515)
  94 Ni ( 0.000000,  0.000000,  0.295526)
  95 Ni ( 0.000000,  0.000000,  0.294521)
  96 Cr ( 0.000000,  0.000000,  1.462764)
  97 Cr ( 0.000000,  0.000000, -2.031287)
  98 Co ( 0.000000,  0.000000,  1.058289)
  99 Co ( 0.000000,  0.000000,  1.632503)
 100 Co ( 0.000000,  0.000000,  0.372711)
 101 Cr ( 0.000000,  0.000000, -2.525227)
 102 Fe ( 0.000000,  0.000000,  2.794650)
 103 Ni ( 0.000000,  0.000000,  0.689895)
 104 Fe ( 0.000000,  0.000000,  2.994429)
 105 Cr ( 0.000000,  0.000000, -1.993423)
 106 Fe ( 0.000000,  0.000000,  2.660873)
 107 Ni ( 0.000000,  0.000000,  0.450172)
 108 Ni ( 0.000000,  0.000000,  0.298626)
 109 Cr ( 0.000000,  0.000000, -2.716720)
 110 Al ( 0.000000,  0.000000,  0.005076)
 111 Al ( 0.000000,  0.000000, -0.010519)
 112 Cr ( 0.000000,  0.000000, -2.920465)
 113 Al ( 0.000000,  0.000000, -0.003786)
 114 Co ( 0.000000,  0.000000, -0.852413)
 115 Cr ( 0.000000,  0.000000, -3.200993)
 116 Co ( 0.000000,  0.000000,  1.169924)
 117 Fe ( 0.000000,  0.000000,  2.942472)
 118 Ni ( 0.000000,  0.000000,  0.483791)
 119 Co ( 0.000000,  0.000000,  1.806805)
 120 Ni ( 0.000000,  0.000000,  0.213852)
 121 Cr ( 0.000000,  0.000000, -2.433644)
 122 Co ( 0.000000,  0.000000,  1.572009)
 123 Fe ( 0.000000,  0.000000,  2.663811)
 124 Ni ( 0.000000,  0.000000,  0.535342)

Energy contributions relative to reference atoms: (reference = -3927717.499734)

Kinetic:       +273.097425
Potential:     -284.647461
External:        +0.000000
XC:            -916.360466
Entropy (-ST):   -5.286139
Local:          +36.433204
--------------------------
Free energy:   -896.763437
Extrapolated:  -894.120367

Dipole-layer corrected work functions: 4.343555, 4.441472 eV

Spin contamination: 53.147286 electrons
Showing all kpts
                      Up                     Down
 Kpt  Band  Eigenvalues  Occupancy  Eigenvalues  Occupancy
  0   547      0.19447    0.99846      1.18240    0.03222
  0   548      0.20353    0.99832      1.18903    0.03022
  0   549      0.21044    0.99820      1.19541    0.02840
  0   550      0.22809    0.99785      1.20264    0.02647

  1   547      0.19391    0.99847      1.16889    0.03671
  1   548      0.20434    0.99830      1.17732    0.03385
  1   549      0.21955    0.99803      1.18259    0.03216
  1   550      0.23491    0.99770      1.19636    0.02814


Fermi level: 0.84216

Gap: 0.001 eV
Transition (v -> c):
  (s=0, k=0, n=586, [0.25, -0.25, 0.00]) -> (s=0, k=1, n=587, [0.25, 0.25, 0.00])

Forces in eV/Ang:
  0 Cr    0.27068    1.28620   -1.58581
  1 Cr   -0.33204   -0.70196   -0.06243
  2 Al    0.97820   -0.74352    0.03559
  3 Fe    0.21605   -0.29641    0.89033
  4 Cr    1.21736    0.71892    0.21058
  5 Co   -0.03335    0.21887    0.49044
  6 Co   -1.26134    0.77613    0.71191
  7 Ni    1.28013   -0.13493   -1.08188
  8 Fe    0.25867   -0.33114    0.03841
  9 Ni    1.80213   -1.05756   -0.98372
 10 Ni    0.01202   -0.29272    0.75449
 11 Ni   -0.01998    0.08487    1.24265
 12 Al   -1.01792   -0.18912    0.94657
 13 Cr    1.46380    0.57374   -0.43638
 14 Cr   -0.46757   -0.09746   -0.27188
 15 Fe    1.51092   -0.63165    0.23766
 16 Fe    0.44067   -1.08485    0.28332
 17 Fe   -0.18750    0.31980    1.07819
 18 Co    0.21611   -0.30228    1.31324
 19 Fe   -1.39993   -0.34650    0.14123
 20 Al   -0.11095    1.77950   -0.30194
 21 Ni   -0.24187    0.54725   -0.45599
 22 Co    0.29277   -0.35755    0.45046
 23 Co   -0.68009   -0.43210    1.15986
 24 Al    0.10081    2.00166   -1.43442
 25 Al   -0.74965    0.97252    1.06975
 26 Fe   -0.51257    0.64173   -0.85003
 27 Al   -1.24915    0.12624   -0.89501
 28 Ni   -0.93218   -0.15174    0.40183
 29 Cr    0.95959   -0.34406   -0.10576
 30 Al   -1.06148   -0.35955   -0.28256
 31 Co   -0.31182   -0.99385   -0.47469
 32 Cr    0.11182   -0.68907   -0.72386
 33 Cr   -1.18450    0.02475    0.64933
 34 Al    1.37058    0.93601    0.53069
 35 Ni   -1.73282   -0.15559    1.08561
 36 Co    0.42919    0.46949   -0.15660
 37 Fe   -1.10939   -0.55062    0.54190
 38 Fe    0.43252   -0.55661    0.70825
 39 Fe   -0.20200   -1.64519    0.67761
 40 Cr    1.91822    0.47490   -1.31209
 41 Cr   -1.44194    0.52910   -1.75407
 42 Fe   -0.35156    1.24661    0.45357
 43 Fe   -0.04231    1.34338   -0.09232
 44 Al   -0.99654    0.72344   -1.03236
 45 Cr   -2.69989   -1.30442    0.15939
 46 Ni    4.13840   -1.33214   -0.74316
 47 Ni    0.90075    0.58066   -1.34453
 48 Co    0.20909    1.19275   -1.83919
 49 Cr   -0.93865   -1.55586    2.07927
 50 Co    0.23400    0.72354   -0.12224
 51 Fe    0.56554    0.35953    1.12469
 52 Fe   -0.13400   -0.26131    0.41998
 53 Ni    0.62446   -2.41109   -1.05014
 54 Co    1.09350    0.51433   -0.28035
 55 Cr   -0.99464   -0.36228    1.22253
 56 Fe    0.56809   -0.26386    0.17691
 57 Co   -0.20824    1.18381    0.75571
 58 Co    0.44765   -0.49769   -0.23785
 59 Fe    0.82638    0.00453   -0.98207
 60 Fe    1.09145   -0.97954   -0.53052
 61 Al    0.20474   -0.34761    0.64945
 62 Ni   -0.89713    1.28851   -0.58669
 63 Cr    0.41325    0.55952   -0.05584
 64 Co   -0.47843    0.27494   -0.05031
 65 Fe   -1.35545    0.01448    0.22149
 66 Al    1.43819    0.03579    1.22875
 67 Ni   -0.72383    0.14657    1.30860
 68 Al   -1.04407   -0.05296    0.40716
 69 Cr    1.21511   -0.65044   -0.70556
 70 Cr   -0.97144    0.35099    0.29247
 71 Fe   -0.72902    0.09734    0.48146
 72 Al    1.45572    0.20200   -0.61276
 73 Fe   -0.71710   -0.21737    0.97409
 74 Ni   -0.32963   -2.30707   -1.17193
 75 Cr    0.97929    0.47000   -0.14469
 76 Co    0.24907    0.96785   -0.36064
 77 Co   -0.06505    0.28330   -0.11666
 78 Ni   -1.51769   -0.05991    1.16469
 79 Co   -0.86941   -0.22026   -0.21879
 80 Al   -0.13299   -0.37697    0.24579
 81 Co    1.16098   -0.15009    0.28268
 82 Fe   -0.09630   -0.46779    1.20436
 83 Ni    0.26076   -0.73768    0.33327
 84 Cr   -1.09465   -0.92322    0.60374
 85 Ni    0.49938   -0.63044   -0.65753
 86 Fe   -0.62076   -0.00273   -0.84730
 87 Ni    0.31879    0.17750    0.37979
 88 Co    0.25998   -0.35862   -0.19301
 89 Ni    1.56777   -0.08665   -0.11916
 90 Al    0.58390    0.87338    1.54234
 91 Co   -0.94269   -0.86407   -0.04379
 92 Ni    0.54490    0.42317   -0.09933
 93 Cr   -1.05184    0.35641    0.68753
 94 Ni    0.42284    0.04182   -0.15823
 95 Ni   -0.13988    0.38374    1.77914
 96 Cr    0.00616   -0.97629    0.64151
 97 Cr   -0.86207   -0.34545    0.45232
 98 Co    0.82361    0.88925    0.07683
 99 Co   -1.24353   -0.04693    0.51102
100 Co    0.09121    0.29873   -0.71231
101 Cr    1.09440    0.29484   -0.54745
102 Fe    0.35877    0.53900   -0.53343
103 Ni   -0.62650    0.02737   -0.91646
104 Fe    0.58777    0.42185   -0.16757
105 Cr    0.13185    0.27491   -0.11785
106 Fe    0.33299    0.57359   -0.42319
107 Ni    0.02710    0.46992   -0.83528
108 Ni    0.15030   -0.00860   -1.01084
109 Cr   -0.00956   -1.06464   -0.27670
110 Al    0.08724    0.27303   -0.81767
111 Al   -2.68252   -1.94744   -0.28258
112 Cr    2.42028   -0.89481   -0.29416
113 Al   -0.11961    0.98646   -0.40880
114 Co    0.09797    0.31382   -1.26952
115 Cr   -0.86423    1.49959    0.05217
116 Co    0.54932    0.47932   -0.62839
117 Fe    0.31603    0.60302   -0.68636
118 Ni   -0.31573    0.29996   -0.26081
119 Co   -0.31958   -0.36394    0.25929
120 Ni   -0.60595   -0.29133   -0.35940
121 Cr    0.17552   -1.61274   -0.35542
122 Co   -1.02569    0.07981    0.06230
123 Fe    0.23072    1.04706    0.61242
124 Ni    0.03477    0.75630   -0.01002

Timing:                              incl.     excl.
-----------------------------------------------------------
Forces:                             43.208    43.208   0.2% |
Hamiltonian:                         1.609     0.010   0.0% |
 Atomic:                             0.300     0.001   0.0% |
  XC Correction:                     0.299     0.299   0.0% |
 Calculate atomic Hamiltonians:      0.762     0.762   0.0% |
 Communicate:                        0.155     0.155   0.0% |
 Initialize Hamiltonian:             0.000     0.000   0.0% |
 Poisson:                            0.078     0.078   0.0% |
 XC 3D grid:                         0.303     0.303   0.0% |
LCAO initialization:               225.419     0.463   0.0% |
 LCAO eigensolver:                  10.614     0.009   0.0% |
  Calculate projections:             0.000     0.000   0.0% |
  DenseAtomicCorrection:             0.000     0.000   0.0% |
  Distribute overlap matrix:         6.490     6.490   0.0% |
  Orbital Layouts:                   4.016     4.016   0.0% |
  Potential matrix:                  0.003     0.003   0.0% |
  Sum over cells:                    0.095     0.095   0.0% |
 LCAO to grid:                     212.609   212.609   0.8% |
 Set positions (LCAO WFS):           1.734     1.495   0.0% |
  Basic WFS set positions:           0.003     0.003   0.0% |
  Basis functions set positions:     0.000     0.000   0.0% |
  P tci:                             0.000     0.000   0.0% |
  ST tci:                            0.091     0.091   0.0% |
  mktci:                             0.145     0.145   0.0% |
PWDescriptor:                        0.189     0.189   0.0% |
SCF-cycle:                       27385.693   107.168   0.4% |
 Davidson:                       26223.749  8172.533  29.5% |-----------|
  Apply H:                         531.922   522.688   1.9% ||
   HMM T:                            9.235     9.235   0.0% |
  Subspace diag:                  2698.079     0.072   0.0% |
   calc_h_matrix:                 1171.955   681.175   2.5% ||
    Apply H:                       490.781   481.213   1.7% ||
     HMM T:                          9.568     9.568   0.0% |
   diagonalize:                    227.087   227.087   0.8% |
   rotate_psi:                    1298.963  1298.963   4.7% |-|
  calc. matrices:                 6276.659  5344.624  19.3% |-------|
   Apply H:                        932.035   913.475   3.3% ||
    HMM T:                          18.560    18.560   0.1% |
  diagonalize:                    5790.018  5790.018  20.9% |-------|
  rotate_psi:                     2754.538  2754.538  10.0% |---|
 Density:                          595.311     0.006   0.0% |
  Atomic density matrices:           4.374     4.374   0.0% |
  Mix:                             314.384   314.384   1.1% |
  Multipole moments:                 0.125     0.125   0.0% |
  Pseudo density:                  276.423   276.415   1.0% |
   Symmetrize density:               0.008     0.008   0.0% |
 Hamiltonian:                      444.105     2.454   0.0% |
  Atomic:                           66.371     0.277   0.0% |
   XC Correction:                   66.094    66.094   0.2% |
  Calculate atomic Hamiltonians:   275.145   275.145   1.0% |
  Communicate:                      23.639    23.639   0.1% |
  Poisson:                           7.469     7.469   0.0% |
  XC 3D grid:                       69.027    69.027   0.2% |
 Orthonormalize:                    15.360     0.000   0.0% |
  calc_s_matrix:                     1.803     1.803   0.0% |
  inverse-cholesky:                  0.692     0.692   0.0% |
  projections:                       9.666     9.666   0.0% |
  rotate_psi_s:                      3.199     3.199   0.0% |
Set symmetry:                        0.001     0.001   0.0% |
Other:                               7.191     7.191   0.0% |
-----------------------------------------------------------
Total:                                     27663.311 100.0%

Date: Tue Apr 18 01:42:33 2023
