
  ___ ___ ___ _ _ _  
 |   |   |_  | | | | 
 | | | | | . | | | | 
 |__ |  _|___|_____|  22.8.0
 |___|_|             

User:   c.zeng@d0031
Date:   Thu Apr 20 15:55:19 2023
Arch:   x86_64
Pid:    5785
CWD:    /home/c.zeng/projects/hea-corrosion/hea-mlp/data-curation/surface-mcmc/dft-jobs/85
Python: 3.8.1
gpaw:   /home/c.zeng/usr/installs/gpaw/source/gpaw-22.8.0/gpaw
_gpaw:  /home/c.zeng/usr/installs/gpaw/source/gpaw-22.8.0/
        _gpaw.cpython-38-x86_64-linux-gnu.so
ase:    /home/c.zeng/.local/lib/python3.8/site-packages/ase-3.22.1-py3.8.egg/ase (version 3.22.1)
numpy:  /home/c.zeng/.local/lib/python3.8/site-packages/numpy (version 1.24.2)
scipy:  /home/c.zeng/.local/lib/python3.8/site-packages/scipy (version 1.10.1)
libxc:  4.2.3
units:  Angstrom and eV
cores: 30
OpenMP: False
OMP_NUM_THREADS: 1

Input parameters:
  convergence: {energy: 0.0001}
  kpts: [2 2 1]
  maxiter: 666
  mode: {ecut: 350.0,
         name: pw}
  occupations: {fixmagmom: False,
                name: fermi-dirac,
                width: 0.1}
  poissonsolver: {dipolelayer: xy}
  spinpol: True
  symmetry: {point_group: False}
  xc: PBE

System changes: positions, numbers, cell, pbc, initial_charges, initial_magmoms 

Initialize ...

species:
  Co:
    name: Cobalt
    id: 339d20d5b0b93d2de9531a1bee871d91
    Z: 27.0
    valence: 9
    core: 18
    charge: 0.0
    file: /home/c.zeng/usr/data/gpaw-setups-0.9.20000/Co.PBE.gz
    compensation charges: {type: gauss,
                           rc: 0.32,
                           lmax: 2}
    cutoffs: {filter: 1.87,
              core: 2.55}
    valence states:
      #              energy  rcut
      - 4s(2.00)    -5.469   1.005
      - 4p(0.00)    -1.277   1.058
      - 3d(7.00)    -8.205   1.005
      -  s          21.742   1.005
      -  p          25.934   1.058
      -  d          19.007   1.005
  
    # Using partial waves for Co as LCAO basis

  Cr:
    name: Chromium
    id: 33f258bda2ca9f93018e70263a35547b
    Z: 24.0
    valence: 6
    core: 18
    charge: 0.0
    file: /home/c.zeng/usr/data/gpaw-setups-0.9.20000/Cr.PBE.gz
    compensation charges: {type: gauss,
                           rc: 0.35,
                           lmax: 2}
    cutoffs: {filter: 2.14,
              core: 3.04}
    valence states:
      #              energy  rcut
      - 4s(1.00)    -4.007   1.164
      - 4p(0.00)    -0.989   1.217
      - 3d(5.00)    -2.913   1.111
      -  s          23.205   1.164
      -  p          26.223   1.217
      -  d          24.299   1.111
  
    # Using partial waves for Cr as LCAO basis

  Ni:
    name: Nickel
    id: 0d9f38a9d6e76a2886f07bb4381f212b
    Z: 28.0
    valence: 16
    core: 12
    charge: 0.0
    file: /home/c.zeng/usr/data/gpaw-setups-0.9.20000/Ni.PBE.gz
    compensation charges: {type: gauss,
                           rc: 0.36,
                           lmax: 2}
    cutoffs: {filter: 2.14,
              core: 1.98}
    valence states:
      #              energy  rcut
      - 4s(2.00)    -5.642   1.164
      - 3p(6.00)   -71.394   1.207
      - 4p(0.00)    -1.226   1.207
      - 3d(8.00)    -8.875   1.138
      -  s          21.570   1.164
      -  d          18.337   1.138
  
    # Using partial waves for Ni as LCAO basis

  Al:
    name: Aluminium
    id: 0292cae29f5d6237e50f6abdd43a7bdd
    Z: 13.0
    valence: 3
    core: 10
    charge: 0.0
    file: /home/c.zeng/usr/data/gpaw-setups-0.9.20000/Al.PBE.gz
    compensation charges: {type: gauss,
                           rc: 0.34,
                           lmax: 2}
    cutoffs: {filter: 1.91,
              core: 2.36}
    valence states:
      #              energy  rcut
      - 3s(2.00)    -7.753   1.085
      - 3p(1.00)    -2.712   1.085
      -  s          19.459   1.085
      -  p          24.499   1.085
      -  d           0.000   1.085
  
    # Using partial waves for Al as LCAO basis

  Fe:
    name: Iron
    id: 37abbd8d6c3c35915a9b583b742da910
    Z: 26.0
    valence: 8
    core: 18
    charge: 0.0
    file: /home/c.zeng/usr/data/gpaw-setups-0.9.20000/Fe.PBE.gz
    compensation charges: {type: gauss,
                           rc: 0.33,
                           lmax: 2}
    cutoffs: {filter: 2.06,
              core: 2.67}
    valence states:
      #              energy  rcut
      - 4s(2.00)    -5.291   1.164
      - 4p(0.00)    -1.326   1.058
      - 3d(6.00)    -7.505   1.058
      -  s          21.920   1.164
      -  p          25.885   1.058
      -  d          19.706   1.058
  
    # Using partial waves for Fe as LCAO basis

Reference energy: -4275894.041763  # eV

Spin-polarized calculation.
Magnetic moment: 165.900000

Convergence criteria:
 Maximum [total energy] change in last 3 cyles: 0.0001 eV / electron
 Maximum integral of absolute [dens]ity change: 0.0001 electrons / valence electron
 Maximum integral of absolute [eigenst]ate change: 4e-08 eV^2 / valence electron
 Maximum number of scf [iter]ations: 666
 (Square brackets indicate name in SCF output, whereas a 'c' in
 the SCF output indicates the quantity has converged.)

Symmetries present (total): 1

  ( 1  0  0)
  ( 0  1  0)
  ( 0  0  1)

4 k-points: 2 x 2 x 1 Monkhorst-Pack grid
2 k-points in the irreducible part of the Brillouin zone
       k-points in crystal coordinates                weights
   0:     0.25000000   -0.25000000    0.00000000          2/4
   1:     0.25000000    0.25000000    0.00000000          2/4

Wave functions: Plane wave expansion
  Cutoff energy: 350.000 eV
  Number of coefficients (min, max): 58901, 58943
  Pulay-stress correction: 0.000000 eV/Ang^3 (de/decut=0.000000)
  Using FFTW library
  ScaLapack parameters: grid=1x1, blocksize=None
  Wavefunction extrapolation:
    Improved wavefunction reuse through dual PAW basis 

Occupation numbers: Fermi-Dirac:
  width: 0.1000  # eV
 

Eigensolver
   Davidson(niter=2) 

Densities:
  Coarse grid: 54*54*128 grid
  Fine grid: 108*108*256 grid
  Total Charge: 0.000000 

Density mixing:
  Method: difference
  Backend: pulay
  Linear mixing parameter: 0.05
  old densities: 5
  Damping of long wavelength oscillations: 50 

Hamiltonian:
  XC and Coulomb potentials evaluated on a 108*108*256 grid
  Using the PBE Exchange-Correlation functional
  External potential:
    NoExternalPotential
 

XC parameters: PBE with 2 nearest neighbor stencil

Memory estimate:
  Process memory now: 368.25 MiB
  Calculator: 2335.53 MiB
    Density: 17.84 MiB
      Arrays: 6.75 MiB
      Localized functions: 8.39 MiB
      Mixer: 2.70 MiB
    Hamiltonian: 5.27 MiB
      Arrays: 5.01 MiB
      XC: 0.00 MiB
      Poisson: 0.00 MiB
      vbar: 0.25 MiB
    Wavefunctions: 2312.43 MiB
      Arrays psit_nG: 1458.82 MiB
      Eigensolver: 834.29 MiB
      Projections: 3.66 MiB
      Projectors: 1.14 MiB
      PW-descriptor: 14.51 MiB

Total number of cores used: 30
Parallelization over k-points: 2
Domain decomposition: 1 x 3 x 5

Number of atoms: 125
Number of atomic orbitals: 1185
Number of bands in calculation: 811
Number of valence electrons: 1179
Bands to converge: occupied

... initialized

Initializing position-dependent things.

Density initialized from atomic densities
Creating initial wave functions:
  811 bands from LCAO basis set

                                                                  
                                                                  
                                                                  
                                                                  
                             Cr                       Cr          
                               Ni    Co    Ni    Cr    Ni         
                          Co     Ni    Cr    Cr    Co             
                                Fe    Fe    Fe    Al    Cr        
                Co    Cr   NCr   CCo    FAl   Cr    Ni            
           Ni     Co   FCo   FCo   CCo   Cr     Ni   Ni           
             Cr    Co     FeCo    Ni    Fe     Fe                 
                  Co    NNi   CCr   FFe   CNi   ANi               
              Fe   NNi   FNi   CFFe  CNCr  NNi   Fe               
               Co    Fe    Cr    Ni     Fe                        
                          Fe    NFe   CFe   CNi   CNi   Al        
           Fe    Cr   ACr  CCFe   FCr   CFe   CFe   Ni            
            Ni    Fe    Fe    Co    Ni                            
                       Co    Cr    Al    Cr    Cr                 
       Ni    Cr   CCr    Co    NFe   Co    Ni                     
              Cr    Co    Cr     Cr    Co                         
                                                                  
                                                                  
                                                                  
                                                                  
                                                                  

Positions:
   0 Co    12.486468    1.462777   10.528605    ( 0.0000,  0.0000,  1.5000)
   1 Cr     2.491286    1.427324   10.624355    ( 0.0000,  0.0000,  2.0000)
   2 Co     4.996443    1.433664   10.615695    ( 0.0000,  0.0000,  2.1000)
   3 Cr     7.497692    1.450585   10.618513    ( 0.0000,  0.0000,  2.0000)
   4 Cr     9.980354    1.438381   10.617016    ( 0.0000,  0.0000,  2.1000)
   5 Ni    13.725570    3.599047   10.613993    ( 0.0000,  0.0000,  2.1000)
   6 Co     3.721032    3.570702   10.596763    ( 0.0000,  0.0000,  1.5000)
   7 Co     6.265421    3.568181   10.621801    ( 0.0000,  0.0000,  2.0000)
   8 Ni     8.741341    3.586865   10.615549    ( 0.0000,  0.0000,  2.0000)
   9 Co    11.233064    3.610428   10.573163    ( 0.0000,  0.0000,  0.0000)
  10 Cr    14.927431    5.761281   10.554435    ( 0.0000,  0.0000,  1.5000)
  11 Co     5.002416    5.751707   10.362584    ( 0.0000,  0.0000,  0.0000)
  12 Cr     7.528897    5.754942   10.601782    ( 0.0000,  0.0000,  1.5000)
  13 Al     9.984614    5.751426   10.596909    ( 0.0000,  0.0000,  2.1000)
  14 Cr    12.467830    5.774643   10.569993    ( 0.0000,  0.0000,  0.0000)
  15 Ni    16.185528    7.952943   10.517715    ( 0.0000,  0.0000,  0.0000)
  16 Co     6.281890    7.953062   10.585785    ( 0.0000,  0.0000,  2.0000)
  17 Cr     8.751632    7.929564   10.589659    ( 0.0000,  0.0000,  2.0000)
  18 Co    11.232798    7.933199   10.565472    ( 0.0000,  0.0000,  0.0000)
  19 Co    13.711755    7.928211   10.595530    ( 0.0000,  0.0000,  2.0000)
  20 Al    17.465073   10.103493   10.559367    ( 0.0000,  0.0000,  2.1000)
  21 Ni     7.524528   10.087482   10.585491    ( 0.0000,  0.0000,  2.1000)
  22 Cr     9.999339   10.092837   10.628699    ( 0.0000,  0.0000,  2.1000)
  23 Co    12.492524   10.103136   10.590364    ( 0.0000,  0.0000,  1.5000)
  24 Co    14.967562   10.103591   10.598553    ( 0.0000,  0.0000,  1.5000)
  25 Ni     0.039549    0.061487   12.592509    ( 0.0000,  0.0000,  0.0000)
  26 Cr     2.543839    0.004196   12.633574    ( 0.0000,  0.0000,  2.1000)
  27 Cr     5.007959    0.016292   12.619485    ( 0.0000,  0.0000,  1.5000)
  28 Al    13.725047   10.821613   12.614847    ( 0.0000,  0.0000,  1.5000)
  29 Fe     9.941746    0.020015   12.634836    ( 0.0000,  0.0000,  2.1000)
  30 Ni     1.280557    2.197634   12.622449    ( 0.0000,  0.0000,  2.0000)
  31 Fe     3.757003    2.159238   12.617870    ( 0.0000,  0.0000,  0.0000)
  32 Fe     6.259391    2.150539   12.632283    ( 0.0000,  0.0000,  0.0000)
  33 Co     8.729061    2.160536   12.640942    ( 0.0000,  0.0000,  1.5000)
  34 Ni    11.206426    2.199527   12.600112    ( 0.0000,  0.0000,  0.0000)
  35 Fe    14.980028    4.321894   12.623066    ( 0.0000,  0.0000,  1.5000)
  36 Al     5.000637    4.306532   12.605865    ( 0.0000,  0.0000,  0.0000)
  37 Cr     7.511972    4.316766   12.613115    ( 0.0000,  0.0000,  2.0000)
  38 Fe     9.977581    4.334444   12.603575    ( 0.0000,  0.0000,  2.0000)
  39 Fe    12.466237    4.352219   12.609857    ( 0.0000,  0.0000,  0.0000)
  40 Ni    16.217374    6.438246   12.562775    ( 0.0000,  0.0000,  2.1000)
  41 Fe     6.249088    6.441384   12.586551    ( 0.0000,  0.0000,  2.1000)
  42 Fe     8.734867    6.480104   12.598380    ( 0.0000,  0.0000,  2.1000)
  43 Fe    11.217541    6.497393   12.580210    ( 0.0000,  0.0000,  1.5000)
  44 Ni    13.747589    6.470530   12.591629    ( 0.0000,  0.0000,  0.0000)
  45 Fe     4.965631    8.600697   12.619661    ( 0.0000,  0.0000,  0.0000)
  46 Cr     7.527050    8.647229   12.603517    ( 0.0000,  0.0000,  2.0000)
  47 Co     9.992787    8.639093   12.602137    ( 0.0000,  0.0000,  0.0000)
  48 Ni    12.461146    8.678950   12.599202    ( 0.0000,  0.0000,  2.1000)
  49 Fe    14.923147    8.662851   12.605102    ( 0.0000,  0.0000,  0.0000)
  50 Fe     1.264555    0.726556   14.701676    ( 0.0000,  0.0000,  2.1000)
  51 Cr     3.750060    0.743838   14.683888    ( 0.0000,  0.0000,  1.5000)
  52 Cr     6.237655    0.730758   14.677812    ( 0.0000,  0.0000,  2.1000)
  53 Fe     8.726659    0.737641   14.712772    ( 0.0000,  0.0000,  2.0000)
  54 Cr    11.216460    0.725550   14.709367    ( 0.0000,  0.0000,  2.1000)
  55 Co     2.513395    2.883675   14.691579    ( 0.0000,  0.0000,  1.5000)
  56 Fe     4.990849    2.893120   14.684241    ( 0.0000,  0.0000,  2.0000)
  57 Cr     7.488486    2.893629   14.696334    ( 0.0000,  0.0000,  0.0000)
  58 Ni     9.972278    2.890664   14.692489    ( 0.0000,  0.0000,  2.0000)
  59 Fe    12.467576    2.877141   14.691667    ( 0.0000,  0.0000,  0.0000)
  60 Ni     3.758526    5.050346   14.670151    ( 0.0000,  0.0000,  2.0000)
  61 Fe     6.246120    5.038056   14.669564    ( 0.0000,  0.0000,  1.5000)
  62 Fe     8.732126    5.049902   14.667773    ( 0.0000,  0.0000,  1.5000)
  63 Ni    11.205583    5.023028   14.695277    ( 0.0000,  0.0000,  1.5000)
  64 Ni    13.756582    5.017781   14.684505    ( 0.0000,  0.0000,  2.0000)
  65 Ni     5.010694    7.182699   14.702674    ( 0.0000,  0.0000,  1.5000)
  66 Co     7.485228    7.189460   14.657588    ( 0.0000,  0.0000,  0.0000)
  67 Fe     9.946463    7.198159   14.653068    ( 0.0000,  0.0000,  2.1000)
  68 Co    12.473405    7.201264   14.677166    ( 0.0000,  0.0000,  0.0000)
  69 Ni    15.017763    7.213900   14.645054    ( 0.0000,  0.0000,  2.1000)
  70 Co     6.251064    9.372532   14.712302    ( 0.0000,  0.0000,  2.1000)
  71 Ni     8.729758    9.372705   14.658410    ( 0.0000,  0.0000,  0.0000)
  72 Fe    11.200962    9.406124   14.647901    ( 0.0000,  0.0000,  1.5000)
  73 Fe    13.749704    9.394894   14.665366    ( 0.0000,  0.0000,  2.0000)
  74 Ni    16.223386    9.399309   14.720785    ( 0.0000,  0.0000,  1.5000)
  75 Cr    12.479408    1.425961   16.738106    ( 0.0000,  0.0000,  1.5000)
  76 Fe     2.490684    1.454436   16.739222    ( 0.0000,  0.0000,  1.5000)
  77 Ni     4.964072    1.458060   16.748615    ( 0.0000,  0.0000,  2.0000)
  78 Ni     7.493576    1.474137   16.738664    ( 0.0000,  0.0000,  1.5000)
  79 Fe     9.990724    1.450314   16.751932    ( 0.0000,  0.0000,  2.0000)
  80 Ni    13.736871    3.597619   16.749671    ( 0.0000,  0.0000,  2.1000)
  81 Co     3.731782    3.620695   16.737637    ( 0.0000,  0.0000,  2.0000)
  82 Ni     6.217757    3.600962   16.741893    ( 0.0000,  0.0000,  0.0000)
  83 Cr     8.739843    3.608427   16.720025    ( 0.0000,  0.0000,  2.1000)
  84 Fe    11.236517    3.591755   16.778291    ( 0.0000,  0.0000,  2.0000)
  85 Ni    14.987780    5.779273   16.714506    ( 0.0000,  0.0000,  0.0000)
  86 Fe     4.996827    5.757928   16.729565    ( 0.0000,  0.0000,  1.5000)
  87 Fe     7.493878    5.760427   16.738488    ( 0.0000,  0.0000,  2.0000)
  88 Co     9.975457    5.766269   16.736932    ( 0.0000,  0.0000,  2.0000)
  89 Cr    12.478104    5.731140   16.775473    ( 0.0000,  0.0000,  1.5000)
  90 Ni    16.238159    7.937775   16.730328    ( 0.0000,  0.0000,  2.0000)
  91 Ni     6.231444    7.940404   16.765522    ( 0.0000,  0.0000,  0.0000)
  92 Cr     8.728840    7.936931   16.735611    ( 0.0000,  0.0000,  0.0000)
  93 Fe    11.192557    7.913866   16.746149    ( 0.0000,  0.0000,  0.0000)
  94 Cr    13.768802    7.904897   16.753722    ( 0.0000,  0.0000,  1.5000)
  95 Cr    17.466742   10.100767   16.763996    ( 0.0000,  0.0000,  2.0000)
  96 Fe     7.483726   10.114128   16.752695    ( 0.0000,  0.0000,  0.0000)
  97 Fe     9.946168   10.127316   16.729242    ( 0.0000,  0.0000,  0.0000)
  98 Fe    12.492406   10.089342   16.764671    ( 0.0000,  0.0000,  0.0000)
  99 Al    15.005292   10.118575   16.753076    ( 0.0000,  0.0000,  2.0000)
 100 Cr     6.250979   10.817826   18.755486    ( 0.0000,  0.0000,  2.1000)
 101 Cr     2.491992    0.007607   18.757365    ( 0.0000,  0.0000,  2.0000)
 102 Co     4.959039    0.011376   18.813253    ( 0.0000,  0.0000,  1.5000)
 103 Fe     7.505721    0.033872   18.830425    ( 0.0000,  0.0000,  0.0000)
 104 Cr    16.226478   10.816744   18.766934    ( 0.0000,  0.0000,  1.5000)
 105 Ni     1.262456    2.149912   18.735438    ( 0.0000,  0.0000,  2.1000)
 106 Co     3.733330    2.172036   18.731769    ( 0.0000,  0.0000,  2.1000)
 107 Co     6.235561    2.176310   18.762208    ( 0.0000,  0.0000,  0.0000)
 108 Co     8.740232    2.176277   18.742160    ( 0.0000,  0.0000,  2.0000)
 109 Co    11.216255    2.130427   18.758333    ( 0.0000,  0.0000,  1.5000)
 110 Co     2.521812    4.343315   18.747649    ( 0.0000,  0.0000,  2.1000)
 111 Cr     4.991012    4.329273   18.757688    ( 0.0000,  0.0000,  0.0000)
 112 Cr     7.490880    4.334898   18.725399    ( 0.0000,  0.0000,  2.1000)
 113 Co     9.943770    4.322230   18.730184    ( 0.0000,  0.0000,  2.0000)
 114 Al    12.464525    4.326265   18.943816    ( 0.0000,  0.0000,  0.0000)
 115 Co    16.224051    6.495359   18.723022    ( 0.0000,  0.0000,  2.0000)
 116 Co     6.226814    6.495348   18.761650    ( 0.0000,  0.0000,  0.0000)
 117 Ni     8.730619    6.495759   18.735203    ( 0.0000,  0.0000,  1.5000)
 118 Cr    11.207915    6.503819   18.742835    ( 0.0000,  0.0000,  2.1000)
 119 Cr    13.765796    6.524169   18.782109    ( 0.0000,  0.0000,  0.0000)
 120 Ni    17.450702    8.660601   18.763558    ( 0.0000,  0.0000,  0.0000)
 121 Ni     7.490686    8.670024   18.761621    ( 0.0000,  0.0000,  1.5000)
 122 Co     9.981419    8.673010   18.727630    ( 0.0000,  0.0000,  2.1000)
 123 Ni    12.489241    8.635804   18.838438    ( 0.0000,  0.0000,  0.0000)
 124 Cr    14.988874    8.667774   18.729832    ( 0.0000,  0.0000,  2.1000)

Unit cell:
           periodic     x           y           z      points  spacing
  1. axis:    yes   12.474800    0.000000    0.000000    54     0.2001
  2. axis:    yes    6.246240   10.818800    0.000000    54     0.2003
  3. axis:    no     0.000000    0.000000   29.353100   128     0.2293

  Lengths:  12.474800  12.492476  29.353100
  Angles:   90.000000  90.000000  59.999988

Effective grid spacing dv^(1/3) = 0.2198

     iter     time        total  log10-change:  magmom
                         energy  eigst   dens
iter:   1 16:17:14 -1056.348728                  +165.5126
iter:   2 16:24:40 -2036.033180  +0.35  -1.22    +130.9828
iter:   3 16:32:07 -1403.497129  +0.41  -0.81    +103.6424
iter:   4 16:39:32 -1079.515107  -0.72  -0.99    +69.7582
iter:   5 16:46:58 -1007.199939  -1.33  -1.23    +55.4470
iter:   6 16:54:23  -995.798529  -1.80  -1.34    +48.7542
iter:   7 17:01:49  -992.428304  -1.87  -1.36    +45.6046
iter:   8 17:09:14 -1631.962578  -0.62  -1.37    +45.9302
iter:   9 17:16:38  -996.082951  -0.76  -0.88    +43.4858
iter:  10 17:24:03  -979.253214  -1.65  -1.37    +42.1292
iter:  11 17:31:29  -968.387063  -1.72  -1.44    +42.7230
iter:  12 17:38:55 -1008.400345  -1.52  -1.57    +43.0394
iter:  13 17:46:21 -1000.113646  -1.51  -1.38    +44.1275
iter:  14 17:53:45  -970.992842  -1.65  -1.42    +43.2192
iter:  15 18:01:10  -975.194152  -1.78  -1.69    +42.2868
iter:  16 18:08:37  -985.827156  -1.78  -1.59    +42.7611
iter:  17 18:16:01  -963.753640  -2.17  -1.51    +43.4425
iter:  18 18:23:34  -977.477884  -2.22  -1.78    +45.7257
iter:  19 18:30:59  -971.686882  -2.15  -1.60    +45.7412
iter:  20 18:38:25  -965.556113  -2.38  -1.67    +46.8448
iter:  21 18:45:51  -965.645575  -2.46  -1.78    +49.4146
iter:  22 18:53:17  -964.802960  -2.53  -1.84    +50.9983
iter:  23 19:00:42  -966.076557  -2.82  -1.83    +53.4366
iter:  24 19:08:06  -963.985270  -2.92  -1.81    +55.0036
iter:  25 19:15:35  -966.007310  -2.66  -1.95    +57.0038
iter:  26 19:22:58  -981.951457  -2.33  -1.91    +58.1315
iter:  27 19:30:24  -966.044237  -2.36  -1.62    +59.6111
iter:  28 19:37:50  -967.281136  -2.42  -2.04    +60.6174
iter:  29 19:45:15  -966.456129  -2.66  -2.03    +60.8738
iter:  30 19:52:39  -965.340502  -2.99  -2.10    +62.0319
iter:  31 20:00:02  -965.368311  -3.24  -2.27    +63.6301
iter:  32 20:07:33  -965.373493c -3.54  -2.31    +64.7058
iter:  33 20:14:58  -966.627475  -3.20  -2.40    +67.0349
iter:  34 20:22:23  -966.084987  -3.38  -2.20    +66.3753
iter:  35 20:29:50  -966.080132  -3.38  -2.28    +68.4205
iter:  36 20:37:15  -966.418748  -3.33  -2.42    +70.0109
iter:  37 20:44:47  -966.416253  -3.62  -2.40    +70.5503
iter:  38 20:52:14  -966.642381  -3.57  -2.43    +72.2357
iter:  39 20:59:40  -967.569384  -3.32  -2.48    +73.5691
iter:  40 21:07:05  -967.202787  -3.54  -2.25    +74.0027
iter:  41 21:14:36  -967.287658  -3.55  -2.40    +75.2073
iter:  42 21:22:02  -967.470177  -3.50  -2.49    +75.9653
iter:  43 21:29:27  -967.741800  -3.40  -2.53    +76.3469
iter:  44 21:36:56  -967.687912  -3.55  -2.48    +76.9753
iter:  45 21:44:19  -969.136860  -3.22  -2.60    +77.6320
iter:  46 21:51:43  -968.014836  -3.42  -2.19    +77.8494
iter:  47 21:59:07  -967.931134  -3.60  -2.49    +78.0949
iter:  48 22:06:31  -967.862497  -4.17  -2.60    +78.4576
iter:  49 22:13:55  -967.919747c -4.01  -2.74    +79.1136
iter:  50 22:21:21  -968.023523  -3.77  -2.80    +79.8294
iter:  51 22:28:45  -968.423525  -3.67  -2.79    +79.7039
iter:  52 22:36:10  -968.128854  -3.75  -2.44    +79.9862
iter:  53 22:43:36  -968.030215  -4.16  -2.65    +79.7793
iter:  54 22:51:00  -968.027458c -4.46  -2.91    +79.9961
iter:  55 22:57:46  -968.049848c -4.59  -3.03    +80.1409
iter:  56 23:05:02  -968.055506c -4.64  -3.04    +80.1715
iter:  57 23:12:28  -968.060903c -4.66  -3.02    +80.2551
iter:  58 23:19:53  -968.111180c -4.60  -3.10    +80.3787
iter:  59 23:27:18  -968.097715c -4.72  -2.93    +80.3874
iter:  60 23:34:41  -968.104711c -4.70  -3.00    +80.4387
iter:  61 23:42:06  -968.110764c -4.79  -3.10    +80.4881
iter:  62 23:49:30  -968.121517c -5.04  -3.10    +80.5827
iter:  63 23:56:54  -968.153335c -4.48  -3.13    +80.7879
iter:  64 00:04:19  -968.158398c -5.01  -3.11    +80.7143
iter:  65 00:11:43  -968.179833c -4.43  -2.97    +80.9044
iter:  66 00:19:08  -968.203441c -4.60  -3.09    +80.9189
iter:  67 00:26:33  -968.185592c -4.69  -3.00    +81.0117
iter:  68 00:33:57  -968.202508c -4.80  -3.39    +81.0961
iter:  69 00:41:20  -968.208560c -4.98  -3.37    +81.1268
iter:  70 00:48:43  -968.219623c -4.94  -3.41    +81.1863
iter:  71 00:56:02  -968.227992c -5.23  -3.42    +81.2161
iter:  72 01:03:27  -968.248273c -4.92  -3.44    +81.3000
iter:  73 01:10:51  -968.218615c -4.80  -3.32    +81.1300
iter:  74 01:18:15  -968.222689c -5.38  -3.37    +81.1874
iter:  75 01:25:39  -968.236415c -5.11  -3.40    +81.2576
iter:  76 01:33:03  -968.258265c -5.03  -3.46    +81.3209
iter:  77 01:40:26  -968.256462c -5.14  -3.26    +81.3735
iter:  78 01:47:44  -968.287603c -4.89  -3.54    +81.4522
iter:  79 01:55:09  -968.301455c -5.09  -3.18    +81.4896
iter:  80 02:02:34  -968.305091c -4.99  -3.09    +81.5721
iter:  81 02:09:59  -968.327551c -4.80  -3.24    +81.6558
iter:  82 02:17:23  -968.313050c -5.31  -3.20    +81.6063
iter:  83 02:24:47  -968.361999c -4.34  -3.30    +81.7635
iter:  84 02:32:11  -968.333999c -5.32  -3.03    +81.7143
iter:  85 02:39:34  -968.354139c -5.04  -3.38    +81.7903
iter:  86 02:46:57  -968.370859c -5.05  -3.32    +81.8185
iter:  87 02:54:20  -968.383117c -5.19  -3.13    +81.8714
iter:  88 03:01:43  -968.412053c -4.74  -3.12    +81.9196
iter:  89 03:09:02  -968.476492c -4.57  -3.02    +81.9765
iter:  90 03:16:26  -968.407560c -4.64  -2.80    +81.9991
iter:  91 03:23:50  -968.424406c -4.53  -3.23    +82.0726
iter:  92 03:31:14  -968.427582c -4.78  -3.15    +82.1466
iter:  93 03:38:37  -968.437800c -4.94  -3.21    +82.2566
iter:  94 03:46:02  -968.454059c -4.81  -3.24    +82.3608
iter:  95 03:53:26  -968.664451  -4.25  -3.20    +82.3998
iter:  96 04:00:48  -968.474671  -4.44  -2.59    +82.4329
iter:  97 04:08:12  -968.479461  -4.83  -3.09    +82.4792
iter:  98 04:15:31  -968.483377c -5.02  -3.10    +82.5897
iter:  99 04:22:55  -968.490205c -4.81  -3.13    +82.6825
iter: 100 04:30:19  -968.509258c -4.69  -3.16    +82.6852
iter: 101 04:37:42  -969.438553  -3.66  -3.04    +82.6936
iter: 102 04:45:05  -968.507700  -3.88  -2.27    +82.6552
iter: 103 04:52:27  -968.507895  -4.66  -3.09    +82.5917
iter: 104 04:59:46  -968.515477c -4.83  -3.12    +82.6237
iter: 105 05:07:09  -968.517522c -5.27  -3.09    +82.6564
iter: 106 05:14:33  -968.519964c -5.33  -3.11    +82.6643
iter: 107 05:21:57  -969.433644  -3.66  -3.14    +82.6666
iter: 108 05:29:21  -968.527857  -3.92  -2.27    +82.6644
iter: 109 05:36:43  -968.541167  -4.72  -3.12    +82.6346
iter: 110 05:44:05  -968.524594c -4.83  -3.07    +82.6396
iter: 111 05:51:25  -968.524029c -4.88  -3.32    +82.6000
iter: 112 05:58:48  -968.528848c -5.12  -3.44    +82.5744
iter: 113 06:06:13  -968.534202c -5.08  -3.41    +82.5219
iter: 114 06:13:32  -968.531877c -5.52  -3.34    +82.5155
iter: 115 06:20:54  -968.535184c -5.45  -3.47    +82.5065
iter: 116 06:28:18  -968.531838c -6.21  -3.62    +82.5264
iter: 117 06:35:41  -968.517472c -4.64  -3.66    +82.6676
iter: 118 06:43:02  -968.512831c -4.71  -3.60    +82.7768
iter: 119 06:50:24  -968.516211c -4.09  -3.44    +83.0849
iter: 120 06:57:43  -968.519329c -4.87  -3.18    +82.9134
iter: 121 07:05:06  -968.518540c -5.26  -3.32    +83.0095
iter: 122 07:12:30  -968.524284c -5.47  -3.21    +83.0198
iter: 123 07:19:53  -968.529153c -5.62  -3.29    +83.0286
iter: 124 07:27:15  -968.585285c -4.74  -3.30    +83.0138
iter: 125 07:34:33  -968.558746c -4.58  -2.89    +83.0260
iter: 126 07:41:57  -968.568708c -4.00  -3.18    +83.0544
iter: 127 07:49:19  -968.512884c -4.45  -2.92    +83.0770
iter: 128 07:56:41  -968.530304c -4.65  -3.33    +82.9973
iter: 129 08:04:00  -968.526162c -4.81  -3.15    +83.0087
iter: 130 08:11:24  -968.533768c -4.75  -3.15    +82.8319
iter: 131 08:18:46  -968.536487c -5.15  -3.39    +82.7558
iter: 132 08:26:05  -968.558423c -4.79  -3.47    +82.6279
iter: 133 08:33:29  -968.579860c -4.82  -3.36    +82.5179
iter: 134 08:40:51  -968.556755c -5.10  -3.25    +82.6364
iter: 135 08:48:10  -968.555084c -4.86  -3.29    +82.7638
iter: 136 08:55:32  -968.557245c -4.97  -3.10    +82.6000
iter: 137 09:02:55  -968.560189c -5.39  -3.49    +82.5639
iter: 138 09:10:14  -968.572784c -4.96  -3.43    +82.4570
iter: 139 09:17:38  -968.578778c -5.49  -3.44    +82.4480
iter: 140 09:25:00  -968.606692c -5.04  -3.29    +82.3085
iter: 141 09:32:19  -968.642205c -4.47  -3.04    +82.3842
iter: 142 09:39:41  -968.604638c -4.45  -2.80    +82.3053
iter: 143 09:47:04  -968.613975c -4.26  -3.09    +82.2684
iter: 144 09:54:23  -968.641281c -4.15  -3.07    +82.2740
iter: 145 10:01:46  -968.599353c -4.70  -2.94    +82.1808
iter: 146 10:09:09  -968.611824c -4.96  -3.47    +82.1110
iter: 147 10:16:29  -968.619670c -5.26  -3.43    +82.0427
iter: 148 10:23:48  -968.633278c -5.25  -3.52    +81.9851
iter: 149 10:31:11  -968.645567c -4.98  -3.35    +81.9397
iter: 150 10:38:33  -968.646117c -5.02  -3.22    +81.8813
iter: 151 10:45:53  -968.658674c -5.13  -3.43    +81.8218
iter: 152 10:53:16  -968.666867c -5.12  -3.28    +81.7641
iter: 153 11:00:39  -968.758517c -4.59  -3.36    +81.7300
iter: 154 11:07:57  -968.691000c -4.76  -2.74    +81.6681
iter: 155 11:15:20  -968.709093c -4.52  -3.20    +81.4892
iter: 156 11:22:43  -968.738047c -4.71  -3.18    +81.4315
iter: 157 11:30:05  -968.729351c -4.72  -2.98    +81.3133
iter: 158 11:37:24  -968.743421c -4.87  -3.27    +81.1640
iter: 159 11:44:48  -968.767681c -4.75  -3.21    +81.0268
iter: 160 11:52:11  -968.806838c -4.80  -3.19    +80.9419
iter: 161 11:59:31  -968.884520c -4.42  -2.95    +80.8962
iter: 162 12:06:54  -968.825152c -4.22  -2.75    +80.8206
iter: 163 12:14:17  -968.815869c -4.76  -2.93    +80.6809
iter: 164 12:21:40  -968.909189c -4.37  -3.06    +80.5704
iter: 165 12:28:59  -968.929994c -4.48  -2.72    +80.5730
iter: 166 12:36:22  -968.864697c -4.59  -2.68    +80.5345
iter: 167 12:43:45  -969.041861  -3.77  -2.87    +80.5502
iter: 168 12:51:05  -968.891399  -4.08  -2.61    +80.5710
iter: 169 12:58:26  -968.853221  -4.31  -2.80    +80.5678
iter: 170 13:05:50  -968.868756c -4.62  -2.98    +80.4702
iter: 171 13:13:13  -968.858967c -5.16  -2.86    +80.4638
iter: 172 13:20:35  -968.852952c -5.41  -2.91    +80.4665
iter: 173 13:27:57  -969.044173  -3.84  -2.94    +80.4803
iter: 174 13:35:16  -968.947834  -4.01  -2.60    +80.4868
iter: 175 13:42:39  -968.827459  -4.48  -2.67    +80.4817
iter: 176 13:50:02  -968.849095  -4.38  -3.17    +80.5244
iter: 177 13:57:25  -968.820621c -4.59  -3.04    +80.5753
iter: 178 14:04:43  -968.818304c -4.99  -3.25    +80.6677
iter: 179 14:12:07  -968.819588c -5.49  -3.38    +80.6654
iter: 180 14:19:30  -968.851844c -5.00  -3.40    +80.6489
iter: 181 14:26:54  -968.817894c -5.42  -3.03    +80.6393
iter: 182 14:34:20  -968.818947c -5.64  -3.60    +80.6293
iter: 183 14:41:42  -968.821391c -5.64  -3.55    +80.6637
iter: 184 14:49:08  -968.822174c -5.40  -3.60    +80.6640
iter: 185 14:56:34  -968.825246c -5.29  -3.51    +80.6729
iter: 186 15:03:56  -968.835741c -5.14  -3.43    +80.6910
iter: 187 15:11:21  -968.823194c -5.32  -3.11    +80.6858
iter: 188 15:18:44  -968.824483c -5.63  -3.61    +80.6830
iter: 189 15:26:15  -968.822215c -5.97  -3.55    +80.6905
iter: 190 15:33:38  -968.823152c -5.98  -3.73    +80.7249
iter: 191 15:41:01  -968.823895c -5.83  -3.71    +80.7330
iter: 192 15:48:31  -968.836474c -5.20  -3.68    +80.7246
