
  ___ ___ ___ _ _ _  
 |   |   |_  | | | | 
 | | | | | . | | | | 
 |__ |  _|___|_____|  22.8.0
 |___|_|             

User:   c.zeng@d0007
Date:   Fri Apr 14 03:58:56 2023
Arch:   x86_64
Pid:    80033
CWD:    /home/c.zeng/projects/hea-corrosion/hea-mlp/data-curation/bulk-md/dft-jobs/90
Python: 3.8.1
gpaw:   /home/c.zeng/usr/installs/gpaw/source/gpaw-22.8.0/gpaw
_gpaw:  /home/c.zeng/usr/installs/gpaw/source/gpaw-22.8.0/
        _gpaw.cpython-38-x86_64-linux-gnu.so
ase:    /home/c.zeng/.local/lib/python3.8/site-packages/ase-3.22.1-py3.8.egg/ase (version 3.22.1)
numpy:  /shared/centos7/python/3.8.1/lib/python3.8/site-packages/numpy (version 1.17.4)
scipy:  /shared/centos7/python/3.8.1/lib/python3.8/site-packages/scipy (version 1.4.1)
libxc:  4.2.3
units:  Angstrom and eV
cores: 30
OpenMP: False
OMP_NUM_THREADS: 1

Input parameters:
  convergence: {energy: 0.0001}
  kpts: [2 2 2]
  maxiter: 666
  mode: {ecut: 350.0,
         name: pw}
  occupations: {fixmagmom: False,
                name: fermi-dirac,
                width: 0.1}
  spinpol: True
  xc: PBE

System changes: positions, numbers, cell, pbc, initial_charges, initial_magmoms 

Initialize ...

species:
  Al:
    name: Aluminium
    id: 0292cae29f5d6237e50f6abdd43a7bdd
    Z: 13.0
    valence: 3
    core: 10
    charge: 0.0
    file: /home/c.zeng/usr/data/gpaw-setups-0.9.20000/Al.PBE.gz
    compensation charges: {type: gauss,
                           rc: 0.34,
                           lmax: 2}
    cutoffs: {filter: 1.91,
              core: 2.36}
    valence states:
      #              energy  rcut
      - 3s(2.00)    -7.753   1.085
      - 3p(1.00)    -2.712   1.085
      -  s          19.459   1.085
      -  p          24.499   1.085
      -  d           0.000   1.085
  
    # Using partial waves for Al as LCAO basis

  Fe:
    name: Iron
    id: 37abbd8d6c3c35915a9b583b742da910
    Z: 26.0
    valence: 8
    core: 18
    charge: 0.0
    file: /home/c.zeng/usr/data/gpaw-setups-0.9.20000/Fe.PBE.gz
    compensation charges: {type: gauss,
                           rc: 0.33,
                           lmax: 2}
    cutoffs: {filter: 2.06,
              core: 2.67}
    valence states:
      #              energy  rcut
      - 4s(2.00)    -5.291   1.164
      - 4p(0.00)    -1.326   1.058
      - 3d(6.00)    -7.505   1.058
      -  s          21.920   1.164
      -  p          25.885   1.058
      -  d          19.706   1.058
  
    # Using partial waves for Fe as LCAO basis

  Cr:
    name: Chromium
    id: 33f258bda2ca9f93018e70263a35547b
    Z: 24.0
    valence: 6
    core: 18
    charge: 0.0
    file: /home/c.zeng/usr/data/gpaw-setups-0.9.20000/Cr.PBE.gz
    compensation charges: {type: gauss,
                           rc: 0.35,
                           lmax: 2}
    cutoffs: {filter: 2.14,
              core: 3.04}
    valence states:
      #              energy  rcut
      - 4s(1.00)    -4.007   1.164
      - 4p(0.00)    -0.989   1.217
      - 3d(5.00)    -2.913   1.111
      -  s          23.205   1.164
      -  p          26.223   1.217
      -  d          24.299   1.111
  
    # Using partial waves for Cr as LCAO basis

  Ni:
    name: Nickel
    id: 0d9f38a9d6e76a2886f07bb4381f212b
    Z: 28.0
    valence: 16
    core: 12
    charge: 0.0
    file: /home/c.zeng/usr/data/gpaw-setups-0.9.20000/Ni.PBE.gz
    compensation charges: {type: gauss,
                           rc: 0.36,
                           lmax: 2}
    cutoffs: {filter: 2.14,
              core: 1.98}
    valence states:
      #              energy  rcut
      - 4s(2.00)    -5.642   1.164
      - 3p(6.00)   -71.394   1.207
      - 4p(0.00)    -1.226   1.207
      - 3d(8.00)    -8.875   1.138
      -  s          21.570   1.164
      -  d          18.337   1.138
  
    # Using partial waves for Ni as LCAO basis

  Co:
    name: Cobalt
    id: 339d20d5b0b93d2de9531a1bee871d91
    Z: 27.0
    valence: 9
    core: 18
    charge: 0.0
    file: /home/c.zeng/usr/data/gpaw-setups-0.9.20000/Co.PBE.gz
    compensation charges: {type: gauss,
                           rc: 0.32,
                           lmax: 2}
    cutoffs: {filter: 1.87,
              core: 2.55}
    valence states:
      #              energy  rcut
      - 4s(2.00)    -5.469   1.005
      - 4p(0.00)    -1.277   1.058
      - 3d(7.00)    -8.205   1.005
      -  s          21.742   1.005
      -  p          25.934   1.058
      -  d          19.007   1.005
  
    # Using partial waves for Co as LCAO basis

Reference energy: -3235165.067515  # eV

Spin-polarized calculation.
Magnetic moment: 121.100000

Convergence criteria:
 Maximum [total energy] change in last 3 cyles: 0.0001 eV / electron
 Maximum integral of absolute [dens]ity change: 0.0001 electrons / valence electron
 Maximum integral of absolute [eigenst]ate change: 4e-08 eV^2 / valence electron
 Maximum number of scf [iter]ations: 666
 (Square brackets indicate name in SCF output, whereas a 'c' in
 the SCF output indicates the quantity has converged.)

Symmetries present (total): 1

  ( 1  0  0)
  ( 0  1  0)
  ( 0  0  1)

8 k-points: 2 x 2 x 2 Monkhorst-Pack grid
4 k-points in the irreducible part of the Brillouin zone
       k-points in crystal coordinates                weights
   0:     0.25000000   -0.25000000   -0.25000000          2/8
   1:     0.25000000   -0.25000000    0.25000000          2/8
   2:     0.25000000    0.25000000   -0.25000000          2/8
   3:     0.25000000    0.25000000    0.25000000          2/8

Wave functions: Plane wave expansion
  Cutoff energy: 350.000 eV
  Number of coefficients (min, max): 19084, 19084
  Pulay-stress correction: 0.000000 eV/Ang^3 (de/decut=0.000000)
  Using FFTW library
  ScaLapack parameters: grid=1x1, blocksize=None
  Wavefunction extrapolation:
    Improved wavefunction reuse through dual PAW basis 

Occupation numbers: Fermi-Dirac:
  width: 0.1000  # eV
 

Eigensolver
   Davidson(niter=2) 

Densities:
  Coarse grid: 48*48*48 grid
  Fine grid: 96*96*96 grid
  Total Charge: 0.000000 

Density mixing:
  Method: difference
  Backend: pulay
  Linear mixing parameter: 0.05
  old densities: 5
  Damping of long wavelength oscillations: 50 

Hamiltonian:
  XC and Coulomb potentials evaluated on a 96*96*96 grid
  Using the PBE Exchange-Correlation functional
  External potential:
    NoExternalPotential
 

XC parameters: PBE with 2 nearest neighbor stencil

Memory estimate:
  Process memory now: 250.26 MiB
  Calculator: 986.43 MiB
    Density: 5.59 MiB
      Arrays: 2.05 MiB
      Localized functions: 2.72 MiB
      Mixer: 0.82 MiB
    Hamiltonian: 1.61 MiB
      Arrays: 1.52 MiB
      XC: 0.00 MiB
      Poisson: 0.00 MiB
      vbar: 0.08 MiB
    Wavefunctions: 979.23 MiB
      Arrays psit_nG: 726.83 MiB
      Eigensolver: 242.60 MiB
      Projections: 4.67 MiB
      Projectors: 0.74 MiB
      PW-descriptor: 4.39 MiB

Total number of cores used: 30
Parallelization over k-points: 2
Domain decomposition: 5 x 3 x 1

Number of atoms: 108
Number of atomic orbitals: 933
Number of bands in calculation: 624
Number of valence electrons: 912
Bands to converge: occupied

... initialized

Initializing position-dependent things.

Density initialized from atomic densities
Creating initial wave functions:
  624 bands from LCAO basis set

        .--------------------------.  
       /|                          |  
      / |   Cr  Fe   Co        NNi |  
     / Al       Co       Ni        |  
    /   |CoFe   Co Fel     Fe      |  
   /Fe  |CoCo               Al     |  
  / Cr  |     Al    Fe CoFe  Cr    |  
 *     Cr    CrFeCoFe   CNi    CAl |  
 |     CrAlAl    Ni Fe   NiFeAl    |  
 |      | FeCr  Al  CCr   Al FCr   |  
 |   FeCo   FeNCr   Cr CFe    Cr   |  
 |    CoAl  Cr ANi Ni   NiNi   Ni  |  
 |Co   AlCo     NiCo     CrCr      |  
 |      .-NAlo--Ni--CoAl----FeFe---.  
 |     /   Cr ACrl   NiCo    NiCo /   
 |Fe  /Nir       Fe    CoNi      /    
 |Fe /                    Al    /     
 |  /      Ale      Co         /      
 | /           Al     Cr      /       
 |/   Cr       Ni            /        
 *--------------------------Al        

Positions:
   0 Al    10.685507    0.136319    0.134157    ( 0.0000,  0.0000,  0.0000)
   1 Fe    10.911161    1.884318    1.945761    ( 0.0000,  0.0000,  2.0000)
   2 Cr     1.612569   10.854553    1.682394    ( 0.0000,  0.0000,  0.0000)
   3 Cr     1.734256    1.708153    0.043702    ( 0.0000,  0.0000,  0.0000)
   4 Ni     3.477333   10.566177   11.109566    ( 0.0000,  0.0000,  1.5000)
   5 Al     3.537872    1.957710    1.847372    ( 0.0000,  0.0000,  0.0000)
   6 Al     5.524864   10.888940    1.570548    ( 0.0000,  0.0000,  0.0000)
   7 Ni     5.262478    1.993758   11.048838    ( 0.0000,  0.0000,  1.5000)
   8 Fe     7.148465    0.230447   10.664359    ( 0.0000,  0.0000,  2.0000)
   9 Co     7.262175    1.849442    1.589043    ( 0.0000,  0.0000,  2.1000)
  10 Ni     9.112107   -0.095927    1.880196    ( 0.0000,  0.0000,  1.5000)
  11 Fe     9.136796    1.725191   10.844309    ( 0.0000,  0.0000,  2.0000)
  12 Fe    10.959851    3.616789   -0.161481    ( 0.0000,  0.0000,  2.0000)
  13 Co    10.580735    5.346913    2.035715    ( 0.0000,  0.0000,  2.1000)
  14 Cr     1.664655    4.143348    1.975968    ( 0.0000,  0.0000,  0.0000)
  15 Co     1.660267    5.621998   10.684640    ( 0.0000,  0.0000,  2.1000)
  16 Fe     3.439296    3.838379    0.146243    ( 0.0000,  0.0000,  2.0000)
  17 Al     3.690796    5.620500    1.925856    ( 0.0000,  0.0000,  0.0000)
  18 Fe     5.330010    3.705017    1.812648    ( 0.0000,  0.0000,  2.0000)
  19 Fe     5.807027    5.200957   -0.050144    ( 0.0000,  0.0000,  2.0000)
  20 Cr     7.390022    3.514460   10.877075    ( 0.0000,  0.0000,  0.0000)
  21 Co     7.448661    5.189024    1.848590    ( 0.0000,  0.0000,  2.1000)
  22 Al     9.101304    3.401565    1.754204    ( 0.0000,  0.0000,  0.0000)
  23 Fe     8.978648    5.227870   -0.247025    ( 0.0000,  0.0000,  2.0000)
  24 Ni    10.495051    7.271662   -0.068356    ( 0.0000,  0.0000,  1.5000)
  25 Al     0.175673    9.031034    1.958812    ( 0.0000,  0.0000,  0.0000)
  26 Ni     1.777556    7.140776    1.741961    ( 0.0000,  0.0000,  1.5000)
  27 Cr     1.924641    8.870681   10.977566    ( 0.0000,  0.0000,  0.0000)
  28 Fe     4.002609    7.166176   -0.068367    ( 0.0000,  0.0000,  2.0000)
  29 Ni     3.842007    8.771729    1.682116    ( 0.0000,  0.0000,  1.5000)
  30 Ni     5.685743    7.078739    2.154561    ( 0.0000,  0.0000,  1.5000)
  31 Ni     5.641678    8.921668   11.010042    ( 0.0000,  0.0000,  1.5000)
  32 Co     7.194079    7.187500    0.041880    ( 0.0000,  0.0000,  2.1000)
  33 Cr     7.221950    9.122719    1.894651    ( 0.0000,  0.0000,  0.0000)
  34 Fe     9.041660    7.147610    1.900865    ( 0.0000,  0.0000,  2.0000)
  35 Ni     8.687829    9.257013    0.090470    ( 0.0000,  0.0000,  1.5000)
  36 Fe     0.193389    0.132327    3.699763    ( 0.0000,  0.0000,  2.0000)
  37 Co    10.892841    1.812005    5.543195    ( 0.0000,  0.0000,  2.1000)
  38 Cr     1.853939   10.784695    5.304616    ( 0.0000,  0.0000,  0.0000)
  39 Ni     1.808960    1.905114    3.548492    ( 0.0000,  0.0000,  1.5000)
  40 Al     3.342069   10.742257    3.276059    ( 0.0000,  0.0000,  0.0000)
  41 Al     3.541487    1.383222    5.485387    ( 0.0000,  0.0000,  0.0000)
  42 Cr     5.657535   10.897136    5.313665    ( 0.0000,  0.0000,  0.0000)
  43 Al     5.527485    1.962108    3.569744    ( 0.0000,  0.0000,  0.0000)
  44 Al     7.353821   10.772878    3.703073    ( 0.0000,  0.0000,  0.0000)
  45 Co     7.210305    1.830767    5.152441    ( 0.0000,  0.0000,  2.1000)
  46 Cr     9.257204   -0.062346    5.354736    ( 0.0000,  0.0000,  0.0000)
  47 Ni     9.009895    1.809150    3.623124    ( 0.0000,  0.0000,  1.5000)
  48 Fe    -0.004641    3.721097    3.669620    ( 0.0000,  0.0000,  2.0000)
  49 Fe    11.044096    5.462423    5.263370    ( 0.0000,  0.0000,  2.0000)
  50 Al     1.797590    3.565172    5.500189    ( 0.0000,  0.0000,  0.0000)
  51 Co     1.866730    5.605245    3.872158    ( 0.0000,  0.0000,  2.1000)
  52 Co     3.603376    3.770415    3.757512    ( 0.0000,  0.0000,  2.1000)
  53 Ni     3.652217    5.541037    5.438913    ( 0.0000,  0.0000,  1.5000)
  54 Ni     5.192967    3.553424    5.462523    ( 0.0000,  0.0000,  1.5000)
  55 Co     5.447183    5.473304    3.589236    ( 0.0000,  0.0000,  2.1000)
  56 Al     7.323477    3.848871    3.774833    ( 0.0000,  0.0000,  0.0000)
  57 Cr     7.468642    5.574425    5.494827    ( 0.0000,  0.0000,  0.0000)
  58 Ni     9.098993    3.473915    5.335830    ( 0.0000,  0.0000,  1.5000)
  59 Cr     9.089914    5.175179    3.793904    ( 0.0000,  0.0000,  0.0000)
  60 Co     0.091604    7.230299    3.472317    ( 0.0000,  0.0000,  2.1000)
  61 Cr     0.113335    9.208891    5.355892    ( 0.0000,  0.0000,  0.0000)
  62 Fe     1.695318    7.238011    5.523725    ( 0.0000,  0.0000,  2.0000)
  63 Fe     1.902038    9.038293    3.820649    ( 0.0000,  0.0000,  2.0000)
  64 Al     3.703767    7.570339    3.706423    ( 0.0000,  0.0000,  0.0000)
  65 Ni     3.572939    9.097586    5.673046    ( 0.0000,  0.0000,  1.5000)
  66 Co     5.564632    7.285952    5.312975    ( 0.0000,  0.0000,  2.1000)
  67 Cr     5.428683    9.182867    3.511524    ( 0.0000,  0.0000,  0.0000)
  68 Ni     7.239031    7.468986    3.749646    ( 0.0000,  0.0000,  1.5000)
  69 Ni     7.215424    9.088278    5.390153    ( 0.0000,  0.0000,  1.5000)
  70 Fe     9.251652    7.467026    5.250410    ( 0.0000,  0.0000,  2.0000)
  71 Cr     9.225416    9.227429    3.665476    ( 0.0000,  0.0000,  0.0000)
  72 Co    11.145325   -0.023235    6.973483    ( 0.0000,  0.0000,  2.1000)
  73 Al    10.829987    1.871538    8.735627    ( 0.0000,  0.0000,  0.0000)
  74 Cr     1.684745   10.777770    9.209632    ( 0.0000,  0.0000,  0.0000)
  75 Co     1.748377    1.904364    7.185697    ( 0.0000,  0.0000,  2.1000)
  76 Co     3.422342   10.793713    7.298537    ( 0.0000,  0.0000,  2.1000)
  77 Al     3.583159    1.839645    9.278834    ( 0.0000,  0.0000,  0.0000)
  78 Co     5.090223   10.832948    9.196761    ( 0.0000,  0.0000,  2.1000)
  79 Cr     5.210333    1.785897    7.377676    ( 0.0000,  0.0000,  0.0000)
  80 Ni     7.248379    0.055790    7.207301    ( 0.0000,  0.0000,  1.5000)
  81 Fe     7.384773    1.743598    9.008714    ( 0.0000,  0.0000,  2.0000)
  82 Ni     9.163940   -0.114888    9.000006    ( 0.0000,  0.0000,  1.5000)
  83 Fe     8.968268    1.834718    7.095692    ( 0.0000,  0.0000,  2.0000)
  84 Cr    10.711059    3.539515    7.041061    ( 0.0000,  0.0000,  0.0000)
  85 Cr    10.895793    5.170545    8.989214    ( 0.0000,  0.0000,  0.0000)
  86 Cr     1.637393    3.488996    9.033075    ( 0.0000,  0.0000,  0.0000)
  87 Al     1.838604    5.634435    7.328326    ( 0.0000,  0.0000,  0.0000)
  88 Cr     3.516820    3.433043    7.231685    ( 0.0000,  0.0000,  0.0000)
  89 Al     3.763454    5.252227    9.206189    ( 0.0000,  0.0000,  0.0000)
  90 Co     5.541588    3.425466    9.252178    ( 0.0000,  0.0000,  2.1000)
  91 Ni     5.186562    5.176275    7.192913    ( 0.0000,  0.0000,  1.5000)
  92 Cr     7.252634    3.710997    7.006955    ( 0.0000,  0.0000,  0.0000)
  93 Co     7.230568    5.534722    8.800206    ( 0.0000,  0.0000,  2.1000)
  94 Ni     8.943750    3.491600    8.858933    ( 0.0000,  0.0000,  1.5000)
  95 Fe     9.107344    5.218975    7.269609    ( 0.0000,  0.0000,  2.0000)
  96 Al    -0.076389    7.084330    7.111688    ( 0.0000,  0.0000,  0.0000)
  97 Al     0.113678    9.153583    9.157719    ( 0.0000,  0.0000,  0.0000)
  98 Fe     1.994691    7.340061    9.199208    ( 0.0000,  0.0000,  2.0000)
  99 Co     1.891692    8.920323    7.416854    ( 0.0000,  0.0000,  2.1000)
 100 Fe     3.751124    7.417352    7.198015    ( 0.0000,  0.0000,  2.0000)
 101 Co     3.574113    8.997600    9.313517    ( 0.0000,  0.0000,  2.1000)
 102 Al     5.785907    7.394855    9.029868    ( 0.0000,  0.0000,  0.0000)
 103 Fe     5.401765    9.357745    7.043996    ( 0.0000,  0.0000,  2.0000)
 104 Co     7.199851    7.259585    7.038618    ( 0.0000,  0.0000,  2.1000)
 105 Ni     7.202348    9.439694    8.899457    ( 0.0000,  0.0000,  1.5000)
 106 Al     8.905772    7.392461    8.980557    ( 0.0000,  0.0000,  0.0000)
 107 Cr     9.036376    9.051585    7.245895    ( 0.0000,  0.0000,  0.0000)

Unit cell:
           periodic     x           y           z      points  spacing
  1. axis:    yes   10.872400    0.000000    0.000000    48     0.2265
  2. axis:    yes    0.000000   10.872400    0.000000    48     0.2265
  3. axis:    yes    0.000000    0.000000   10.872400    48     0.2265

  Lengths:  10.872400  10.872400  10.872400
  Angles:   90.000000  90.000000  90.000000

Effective grid spacing dv^(1/3) = 0.2265

     iter     time        total  log10-change:  magmom
                         energy  eigst   dens
iter:   1 04:03:25  -945.381905                  +121.3864
iter:   2 04:05:22  -838.085861  -0.20  -1.18    +66.1266
iter:   3 04:07:38  -822.950845  -0.90  -1.21    +57.0510
iter:   4 04:10:14  -814.189212  -1.29  -1.27    +53.3866
iter:   5 04:12:11  -803.814345  -1.58  -1.29    +51.5782
iter:   6 04:14:07  -798.199840  -1.34  -1.35    +51.7422
iter:   7 04:16:04  -803.435701  -1.26  -1.47    +51.1273
iter:   8 04:18:02  -793.651850  -1.62  -1.50    +51.5773
iter:   9 04:19:58  -790.760909  -2.10  -1.66    +51.9724
iter:  10 04:21:55  -790.830328  -2.44  -1.76    +52.8739
iter:  11 04:23:52  -790.965226  -2.48  -1.79    +53.9201
iter:  12 04:25:49  -791.820788  -2.32  -1.85    +54.8426
iter:  13 04:27:46  -791.566126  -2.45  -1.87    +55.1595
iter:  14 04:29:42  -791.043928  -2.72  -1.93    +55.7620
iter:  15 04:31:40  -791.169981  -2.92  -2.01    +56.3395
iter:  16 04:33:37  -791.233711  -2.92  -2.05    +56.4935
iter:  17 04:35:33  -791.106103  -2.95  -2.10    +56.8214
iter:  18 04:37:30  -791.007942  -3.07  -2.18    +56.8941
iter:  19 04:39:26  -791.132003  -3.20  -2.27    +56.9760
iter:  20 04:41:23  -791.008292  -3.36  -2.27    +57.0095
iter:  21 04:43:20  -791.103177  -3.30  -2.36    +57.0801
iter:  22 04:45:17  -791.022028  -3.32  -2.38    +56.9804
iter:  23 04:47:14  -791.003464  -3.65  -2.44    +57.0302
iter:  24 04:49:09  -791.018477c -3.69  -2.51    +56.9919
iter:  25 04:51:46  -791.054449c -3.78  -2.54    +56.9634
iter:  26 04:54:03  -791.046390c -3.80  -2.55    +56.9651
iter:  27 04:55:59  -791.062342c -3.89  -2.59    +56.9527
iter:  28 04:57:57  -791.065823c -4.07  -2.63    +56.8806
iter:  29 04:59:53  -791.078226c -4.13  -2.67    +56.8913
iter:  30 05:01:50  -791.088769c -4.32  -2.72    +56.8406
iter:  31 05:03:48  -791.111720c -4.21  -2.76    +56.8144
iter:  32 05:05:45  -791.110060c -4.47  -2.79    +56.8052
iter:  33 05:07:41  -791.128321c -4.44  -2.84    +56.7534
iter:  34 05:09:39  -791.134461c -4.58  -2.87    +56.7478
iter:  35 05:11:35  -791.152509c -4.53  -2.91    +56.7110
iter:  36 05:13:32  -791.165389c -4.53  -2.95    +56.6761
iter:  37 05:15:29  -791.181592c -4.54  -2.98    +56.6589
iter:  38 05:17:26  -791.191926c -4.65  -3.02    +56.6266
iter:  39 05:19:22  -791.204278c -4.64  -3.03    +56.5890
iter:  40 05:21:19  -791.212887c -4.73  -3.06    +56.5734
iter:  41 05:23:25  -791.226668c -4.65  -3.10    +56.5071
iter:  42 05:26:04  -791.234739c -4.78  -3.15    +56.4830
iter:  43 05:28:05  -791.248812c -4.65  -3.18    +56.4171
iter:  44 05:30:02  -791.260299c -4.70  -3.22    +56.3620
iter:  45 05:31:58  -791.272108c -4.66  -3.24    +56.2832
iter:  46 05:33:55  -791.282097c -4.68  -3.26    +56.2154
iter:  47 05:35:52  -791.300299c -4.27  -3.28    +56.0395
iter:  48 05:37:48  -791.316797c -4.33  -3.24    +55.9123
iter:  49 05:39:46  -791.302451c -4.96  -3.18    +56.0241
iter:  50 05:41:42  -791.316042c -4.99  -3.25    +55.9640
iter:  51 05:43:39  -791.309528c -5.70  -3.17    +56.0058
iter:  52 05:45:36  -791.313800c -5.23  -3.21    +55.9708
iter:  53 05:47:33  -791.311674c -5.40  -3.18    +55.9448
iter:  54 05:49:29  -791.312809c -5.23  -3.21    +55.8602
iter:  55 05:51:26  -791.316659c -4.88  -3.26    +55.7580
iter:  56 05:53:23  -791.315466c -5.23  -3.29    +55.7511
iter:  57 05:55:20  -791.318469c -5.21  -3.31    +55.6877
iter:  58 05:57:17  -791.319271c -5.03  -3.37    +55.6501
iter:  59 05:59:13  -791.320777c -5.20  -3.39    +55.5959
iter:  60 06:01:10  -791.322781c -5.24  -3.48    +55.5311
iter:  61 06:03:07  -791.323953c -5.52  -3.47    +55.5048
iter:  62 06:05:04  -791.326954c -5.44  -3.58    +55.4463
iter:  63 06:07:01  -791.326826c -5.77  -3.57    +55.4261
iter:  64 06:08:58  -791.330362c -5.51  -3.64    +55.3509
iter:  65 06:10:54  -791.330173c -5.89  -3.70    +55.3503
iter:  66 06:12:51  -791.334398c -5.52  -3.77    +55.2621
iter:  67 06:14:58  -791.332403c -6.18  -3.76    +55.2931
iter:  68 06:17:36  -791.335193c -5.80  -3.82    +55.2451
iter:  69 06:19:37  -791.334515c -6.38  -3.87    +55.2545
iter:  70 06:21:33  -791.338125c -5.68  -3.92    +55.1802
iter:  71 06:23:30  -791.333206c -5.56  -3.93    +55.2830
iter:  72 06:25:27  -791.304086c -3.69  -3.94    +56.0790
iter:  73 06:27:24  -791.307031c -4.97  -3.35    +56.0156
iter:  74 06:29:20  -791.312774c -5.08  -3.38    +55.8399
iter:  75 06:31:17  -791.314561c -5.64  -3.46    +55.8029
iter:  76 06:33:14  -791.303877c -4.50  -3.48    +56.0675
iter:  77 06:35:10  -791.301737c -4.69  -3.37    +56.1950
iter:  78 06:37:06  -791.304224c -5.13  -3.32    +56.0557
iter:  79 06:39:03  -791.306049c -5.13  -3.41    +55.9729
iter:  80 06:41:00  -791.303699c -5.97  -3.51    +56.0368
iter:  81 06:42:56  -791.304206c -4.89  -3.49    +56.1173
iter:  82 06:44:52  -791.304620c -5.03  -3.39    +55.9669
iter:  83 06:46:56  -791.308365c -5.13  -3.63    +55.8746
iter:  84 06:49:34  -791.308926c -5.69  -3.68    +55.8921
iter:  85 06:51:39  -791.311327c -5.45  -3.70    +55.8465
iter:  86 06:53:36  -791.313235c -5.47  -3.85    +55.7953
iter:  87 06:55:32  -791.315846c -5.51  -3.87    +55.7593
iter:  88 06:57:29  -791.316157c -5.86  -3.78    +55.7503
iter:  89 06:59:25  -791.317943c -5.62  -3.91    +55.6877
iter:  90 07:01:22  -791.320149c -5.73  -4.24c   +55.6346
iter:  91 07:03:19  -791.305206c -4.29  -4.22c   +56.0431
iter:  92 07:05:15  -791.295427c -3.99  -3.80    +56.5214
iter:  93 07:07:12  -791.298840c -5.23  -3.51    +56.3615
iter:  94 07:09:09  -791.301730c -5.21  -3.61    +56.2599
iter:  95 07:11:06  -791.304075c -5.31  -3.72    +56.1953
iter:  96 07:13:02  -791.303038c -6.41  -3.77    +56.2250
iter:  97 07:14:59  -791.305303c -5.64  -3.73    +56.1925
iter:  98 07:17:09  -791.304173c -5.95  -3.64    +56.2102
iter:  99 07:19:48  -791.305698c -5.44  -3.79    +56.1750
iter: 100 07:21:48  -791.305524c -5.97  -3.67    +56.1802
iter: 101 07:23:44  -791.306964c -5.76  -3.94    +56.1427
iter: 102 07:25:41  -791.308014c -5.88  -3.91    +56.1098
iter: 103 07:27:38  -791.307904c -6.23  -3.97    +56.0951
iter: 104 07:29:35  -791.309809c -5.78  -4.06c   +56.0496
iter: 105 07:31:31  -791.308159c -6.08  -4.09c   +56.1035
iter: 106 07:33:27  -791.307492c -6.27  -4.17c   +56.1292
iter: 107 07:35:24  -791.309685c -5.81  -4.15c   +56.0553
iter: 108 07:37:20  -791.307118c -5.64  -4.30c   +56.1477
iter: 109 07:39:52  -791.306947c -6.11  -4.20c   +56.1635
iter: 110 07:42:13  -791.308728c -5.83  -4.17c   +56.0929
iter: 111 07:44:10  -791.303331c -4.71  -4.47c   +56.3320
iter: 112 07:46:07  -791.302789c -5.27  -3.78    +56.3888
iter: 113 07:48:03  -791.303259c -5.11  -3.69    +56.4755
iter: 114 07:49:59  -791.304408c -5.78  -3.58    +56.4599
iter: 115 07:51:56  -791.304400c -6.64  -3.60    +56.4539
iter: 116 07:53:52  -791.305722c -5.99  -3.60    +56.4721
iter: 117 07:55:48  -791.305483c -6.11  -3.56    +56.4282
iter: 118 07:57:45  -791.319148c -4.60  -3.59    +56.4175
iter: 119 07:59:41  -791.304479c -5.04  -3.20    +56.4084
iter: 120 08:01:38  -791.303307c -5.59  -3.63    +56.4089
iter: 121 08:03:34  -791.305955c -5.35  -3.74    +56.3952
iter: 122 08:05:39  -791.308781c -5.13  -3.52    +56.3703
iter: 123 08:08:19  -791.306795c -5.56  -3.55    +56.3623
iter: 124 08:10:25  -791.309392c -5.49  -3.87    +56.3309
iter: 125 08:12:21  -791.310677c -5.44  -3.93    +56.2827
iter: 126 08:14:17  -791.312151c -5.66  -3.88    +56.2513
iter: 127 08:16:13  -791.315103c -5.37  -3.96    +56.1905
iter: 128 08:18:10  -791.310064c -5.16  -3.81    +56.2918
iter: 129 08:20:06  -791.302414c -4.52  -4.06c   +56.4803
iter: 130 08:22:02  -791.306211c -5.58  -3.83    +56.3857
iter: 131 08:23:58  -791.308784c -5.40  -4.06c   +56.3179
iter: 132 08:25:54  -791.309760c -5.88  -4.25c   +56.2931
iter: 133 08:27:55  -791.309766c -6.98  -4.27c   +56.2937
iter: 134 08:30:34  -791.310678c -6.12  -4.29c   +56.2698
iter: 135 08:32:43  -791.309562c -5.99  -4.19c   +56.3059
iter: 136 08:34:39  -791.309404c -5.59  -4.23c   +56.3246
iter: 137 08:36:35  -791.310743c -6.03  -4.04c   +56.2816
iter: 138 08:38:32  -791.308103c -5.56  -4.06c   +56.3585
iter: 139 08:40:27  -791.313922c -4.97  -4.08c   +56.2050
iter: 140 08:42:24  -791.307375c -4.90  -3.92    +56.3801
iter: 141 08:44:20  -791.306344c -5.33  -4.04c   +56.4155
iter: 142 08:46:17  -791.308323c -5.50  -3.87    +56.3487
iter: 143 08:48:13  -791.307619c -6.24  -3.92    +56.3536
iter: 144 08:50:09  -791.308689c -6.01  -4.32c   +56.3378
iter: 145 08:52:05  -791.310341c -5.76  -4.39c   +56.2937
iter: 146 08:54:02  -791.308636c -6.10  -4.22c   +56.3340
iter: 147 08:55:58  -791.305497c -5.22  -4.50c   +56.4126
iter: 148 08:57:54  -791.309521c -5.24  -4.11c   +56.3052
iter: 149 08:59:50  -791.307370c -5.98  -4.38c   +56.3537
iter: 150 09:01:46  -791.304272c -5.24  -4.43c   +56.4250
iter: 151 09:03:43  -791.308219c -5.27  -4.00c   +56.3253
iter: 152 09:05:39  -791.310609c -5.34  -4.51c   +56.2623
iter: 153 09:07:35  -791.310064c -6.83  -4.22c   +56.2751
iter: 154 09:09:30  -791.313879c -5.20  -4.31c   +56.1801
iter: 155 09:11:26  -791.306908c -4.75  -3.91    +56.3615
iter: 156 09:13:22  -791.305229c -5.21  -4.21c   +56.4158
iter: 157 09:15:17  -791.309115c -5.21  -4.00    +56.3061
iter: 158 09:17:13  -791.307869c -6.30  -4.21c   +56.3375
iter: 159 09:19:13  -791.309053c -5.88  -4.16c   +56.2971
iter: 160 09:21:54  -791.309956c -5.98  -4.12c   +56.2692
iter: 161 09:24:06  -791.310894c -6.01  -4.24c   +56.2440
iter: 162 09:26:02  -791.310756c -6.84  -4.18c   +56.2440
iter: 163 09:27:58  -791.312352c -5.95  -4.16c   +56.2112
iter: 164 09:29:54  -791.311403c -6.70  -4.04c   +56.2285
iter: 165 09:31:49  -791.309928c -5.68  -4.15c   +56.2526
iter: 166 09:33:45  -791.310940c -5.99  -3.98    +56.2333
iter: 167 09:35:41  -791.311321c -6.18  -3.98    +56.2229
iter: 168 09:37:37  -791.311337c -6.14  -4.08c   +56.2102
iter: 169 09:39:33  -791.312696c -6.06  -4.09c   +56.1849
iter: 170 09:41:28  -791.313055c -6.58  -4.16c   +56.1775
iter: 171 09:43:25  -791.313953c -6.31  -4.16c   +56.1604
iter: 172 09:45:20  -791.304062c -4.28  -4.09c   +56.3901
iter: 173 09:47:16  -791.297944c -4.37  -3.89    +56.5536
iter: 174 09:49:12  -791.309284c -4.20  -3.68    +56.2554
iter: 175 09:51:53  -791.298727c -4.31  -4.31c   +56.5362
iter: 176 09:54:12  -791.296354c -4.81  -3.72    +56.6212
iter: 177 09:56:07  -791.298965c -5.47  -3.65    +56.5432
iter: 178 09:58:03  -791.307836c -4.24  -3.76    +56.3138
iter: 179 09:59:58  -791.310180c -4.92  -4.41c   +56.2714
iter: 180 10:01:53  -791.302304c -4.53  -4.29c   +56.4399
iter: 181 10:03:49  -791.295457c -4.30  -3.94    +56.6190
iter: 182 10:05:45  -791.313683c -3.78  -3.61    +56.1970
iter: 183 10:07:40  -791.296246c -3.92  -4.05c   +56.6024
iter: 184 10:09:35  -791.296779c -5.24  -3.65    +56.5970
iter: 185 10:11:30  -791.297729c -6.07  -3.67    +56.5780
iter: 186 10:13:25  -791.303054c -4.64  -3.72    +56.4803
iter: 187 10:15:20  -791.308199c -4.52  -4.01c   +56.3981
iter: 188 10:17:15  -791.298142c -4.15  -3.85    +56.5803
iter: 189 10:19:10  -791.312762c -3.87  -3.60    +56.3237
iter: 190 10:21:04  -791.304778c -4.62  -3.69    +56.4611
iter: 191 10:22:59  -791.306215c -5.95  -4.16c   +56.4258
iter: 192 10:25:04  -791.305842c -6.31  -4.13c   +56.4369
iter: 193 10:27:49  -791.306621c -6.11  -4.16c   +56.4309
iter: 194 10:29:50  -791.307317c -6.25  -4.16c   +56.4210
iter: 195 10:31:45  -791.307358c -6.56  -4.14c   +56.4153
iter: 196 10:33:40  -791.308453c -6.03  -4.24c   +56.3993
iter: 197 10:35:36  -791.308893c -6.25  -4.31c   +56.3832
iter: 198 10:37:30  -791.309593c -6.30  -4.25c   +56.3712
iter: 199 10:39:25  -791.310014c -6.25  -4.22c   +56.3574
iter: 200 10:41:21  -791.310192c -6.73  -4.25c   +56.3526
iter: 201 10:43:16  -791.309707c -6.78  -4.21c   +56.3548
iter: 202 10:45:11  -791.309539c -6.09  -4.19c   +56.3471
iter: 203 10:47:06  -791.310494c -6.10  -4.03c   +56.3289
iter: 204 10:49:01  -791.310533c -6.66  -4.12c   +56.3176
iter: 205 10:50:56  -791.311662c -6.13  -4.11c   +56.2911
iter: 206 10:52:50  -791.311364c -6.74  -4.03c   +56.3086
iter: 207 10:54:45  -791.312277c -5.83  -4.02c   +56.2649
iter: 208 10:56:40  -791.312724c -6.48  -3.98    +56.2667
iter: 209 10:58:35  -791.312988c -6.00  -3.98    +56.2414
iter: 210 11:01:10  -791.313248c -6.32  -3.96    +56.2409
iter: 211 11:03:35  -791.314157c -6.06  -4.04c   +56.2146
iter: 212 11:05:29  -791.314043c -6.27  -4.01c   +56.2393
iter: 213 11:07:25  -791.314642c -6.13  -3.98    +56.2022
iter: 214 11:09:20  -791.314785c -6.87  -4.11c   +56.2012
iter: 215 11:11:15  -791.315766c -6.11  -4.11c   +56.1783
iter: 216 11:13:09  -791.313717c -5.75  -4.10c   +56.2347
iter: 217 11:15:05  -791.306494c -4.40  -4.17c   +56.4718
iter: 218 11:17:00  -791.306807c -5.56  -4.15c   +56.4796
iter: 219 11:18:55  -791.307599c -6.13  -4.19c   +56.4697
iter: 220 11:20:50  -791.308483c -5.88  -4.25c   +56.4407
iter: 221 11:22:44  -791.309432c -5.94  -4.35c   +56.4184
iter: 222 11:24:39  -791.308326c -6.20  -4.28c   +56.4360
iter: 223 11:26:32  -791.308860c -6.82  -4.35c   +56.4225
iter: 224 11:28:26  -791.308496c -7.10  -4.40c   +56.4336
iter: 225 11:30:21  -791.309126c -6.53  -4.38c   +56.4220
iter: 226 11:32:15  -791.309221c -7.18  -4.50c   +56.4178
iter: 227 11:34:19  -791.309837c -6.37  -4.52c   +56.4087
iter: 228 11:37:04  -791.310038c -6.86  -4.54c   +56.3998
iter: 229 11:39:09  -791.310549c -6.54  -4.66c   +56.3881
iter: 230 11:41:04  -791.309488c -6.07  -4.58c   +56.4087
iter: 231 11:42:59  -791.303729c -4.36  -4.54c   +56.5297
iter: 232 11:44:55  -791.306456c -5.36  -3.72    +56.4614
iter: 233 11:46:49  -791.312020c -4.51  -3.95    +56.3412
iter: 234 11:48:44  -791.304987c -4.48  -4.36c   +56.4926
iter: 235 11:50:39  -791.302610c -4.71  -3.81    +56.5561
iter: 236 11:52:34  -791.310524c -4.18  -3.64    +56.3706
iter: 237 11:54:29  -791.298687c -3.80  -4.39c   +56.6563
iter: 238 11:56:23  -791.313554c -3.71  -3.44    +56.3154
iter: 239 11:58:18  -791.310030c -5.43  -4.21c   +56.3620
iter: 240 12:00:14  -791.307989c -5.26  -4.25c   +56.3939
iter: 241 12:02:09  -791.308214c -6.30  -3.97    +56.3824
iter: 242 12:04:04  -791.308829c -6.26  -3.93    +56.3571
iter: 243 12:06:00  -791.308925c -6.96  -3.93    +56.3575
iter: 244 12:07:54  -791.309667c -6.24  -3.95    +56.3398
iter: 245 12:09:49  -791.298488c -3.91  -3.98    +56.6351
iter: 246 12:11:43  -791.308858c -4.07  -3.50    +56.3422
iter: 247 12:13:38  -791.303256c -4.78  -3.72    +56.4881
iter: 248 12:15:33  -791.301870c -5.21  -3.69    +56.5239
iter: 249 12:17:28  -791.303251c -5.39  -3.57    +56.4664
iter: 250 12:19:23  -791.303206c -6.29  -3.67    +56.4934
iter: 251 12:21:18  -791.304611c -5.98  -3.71    +56.4950
iter: 252 12:23:13  -791.304554c -5.19  -3.70    +56.4926
iter: 253 12:25:07  -791.303973c -5.55  -3.48    +56.4881
iter: 254 12:27:02  -791.306118c -5.53  -3.85    +56.4942
iter: 255 12:28:57  -791.305407c -5.95  -3.83    +56.4879
iter: 256 12:30:52  -791.306424c -5.79  -3.86    +56.4899
iter: 257 12:32:47  -791.307723c -5.55  -4.02c   +56.4766
iter: 258 12:34:42  -791.308637c -5.80  -4.10c   +56.4701
iter: 259 12:36:41  -791.308843c -5.92  -4.16c   +56.4635
iter: 260 12:39:27  -791.309369c -6.10  -4.26c   +56.4540
iter: 261 12:41:37  -791.309830c -6.40  -4.28c   +56.4482
iter: 262 12:43:32  -791.310592c -6.10  -4.44c   +56.4308
iter: 263 12:45:27  -791.309716c -6.40  -4.41c   +56.4455
iter: 264 12:47:22  -791.309332c -6.87  -4.47c   +56.4442
iter: 265 12:49:17  -791.310257c -6.28  -4.50c   +56.4307
iter: 266 12:51:12  -791.308738c -5.80  -4.64c   +56.4499
iter: 267 12:53:07  -791.307092c -5.53  -4.45c   +56.4659
iter: 268 12:55:01  -791.306848c -6.31  -4.23c   +56.4672
iter: 269 12:56:56  -791.306874c -6.37  -4.23c   +56.4663
iter: 270 12:58:51  -791.307781c -5.46  -4.20c   +56.4543
iter: 271 13:00:46  -791.308533c -5.89  -4.00c   +56.4462
iter: 272 13:02:41  -791.306715c -5.48  -3.96    +56.4673
iter: 273 13:04:36  -791.309373c -5.29  -3.88    +56.4351
iter: 274 13:06:31  -791.309999c -5.87  -3.99    +56.4330
iter: 275 13:08:25  -791.309796c -5.83  -4.01c   +56.4260
iter: 276 13:10:37  -791.311238c -5.75  -3.78    +56.4281
iter: 277 13:13:22  -791.310748c -6.13  -3.90    +56.4092
iter: 278 13:15:19  -791.311428c -5.77  -4.12c   +56.4036
iter: 279 13:17:14  -791.311540c -6.31  -3.93    +56.3995
iter: 280 13:19:08  -791.312185c -6.15  -4.19c   +56.3787
iter: 281 13:21:04  -791.310920c -5.90  -4.25c   +56.4191
iter: 282 13:22:59  -791.308676c -5.16  -4.20c   +56.4750
iter: 283 13:24:53  -791.309101c -6.57  -4.04c   +56.4662
iter: 284 13:26:48  -791.308957c -6.93  -4.17c   +56.4649
iter: 285 13:28:43  -791.309579c -6.35  -4.27c   +56.4473
iter: 286 13:30:37  -791.309844c -6.42  -4.23c   +56.4503
iter: 287 13:32:32  -791.310242c -6.20  -4.15c   +56.4165
iter: 288 13:34:27  -791.311458c -5.62  -4.41c   +56.3478
iter: 289 13:36:21  -791.307897c -4.83  -4.24c   +56.5608
iter: 290 13:38:15  -791.305575c -4.39  -4.10c   +56.8537
iter: 291 13:40:10  -791.307034c -5.17  -3.64    +56.6806
iter: 292 13:42:04  -791.308907c -5.06  -3.84    +56.5682
iter: 293 13:43:59  -791.307950c -5.80  -3.99    +56.6527
iter: 294 13:45:54  -791.307531c -5.53  -3.85    +56.7343
iter: 295 13:47:49  -791.308152c -6.14  -3.73    +56.6904
iter: 296 13:49:43  -791.307696c -6.33  -3.78    +56.7278
iter: 297 13:51:38  -791.308122c -5.89  -3.74    +56.6882
iter: 298 13:53:33  -791.308545c -6.14  -3.74    +56.6711
iter: 299 13:55:29  -791.312599c -5.07  -3.76    +56.6658
iter: 300 13:57:24  -791.308718c -5.24  -3.34    +56.6605
iter: 301 13:59:24  -791.315443c -4.85  -3.58    +56.6339
iter: 302 14:02:09  -791.311057c -4.87  -3.39    +56.6285
iter: 303 14:04:15  -791.308490c -5.28  -3.35    +56.5910
iter: 304 14:06:10  -791.310276c -5.44  -4.10c   +56.5280
iter: 305 14:08:05  -791.311668c -5.44  -4.20c   +56.4632
iter: 306 14:10:01  -791.314160c -5.27  -4.20c   +56.3894
iter: 307 14:11:56  -791.311428c -5.56  -4.14c   +56.4739
iter: 308 14:13:51  -791.311965c -6.51  -4.15c   +56.4585
iter: 309 14:15:47  -791.312984c -6.20  -4.28c   +56.4311
iter: 310 14:17:42  -791.312443c -7.16  -4.30c   +56.4455
iter: 311 14:19:37  -791.311763c -6.28  -4.40c   +56.4893
iter: 312 14:21:33  -791.312709c -6.31  -4.45c   +56.4471
iter: 313 14:23:28  -791.312060c -6.66  -4.43c   +56.4734
iter: 314 14:25:23  -791.311929c -7.12  -4.42c   +56.4611
iter: 315 14:27:18  -791.312888c -6.30  -4.58c   +56.4267
iter: 316 14:29:13  -791.308517c -4.89  -4.52c   +56.6040
iter: 317 14:31:08  -791.303477c -4.27  -4.06c   +56.9272
iter: 318 14:33:03  -791.305181c -5.53  -3.60    +56.8084
iter: 319 14:34:58  -791.308242c -4.79  -3.73    +56.6227
iter: 320 14:36:52  -791.307984c -6.26  -4.04c   +56.6431
iter: 321 14:38:46  -791.311115c -4.98  -4.00    +56.4684
iter: 322 14:40:46  -791.308681c -5.36  -4.43c   +56.6257
iter: 323 14:43:31  -791.309448c -6.37  -3.91    +56.5890
iter: 324 14:45:37  -791.307991c -5.74  -4.07c   +56.6588
iter: 325 14:47:32  -791.305478c -4.93  -3.92    +56.8261
iter: 326 14:49:27  -791.305551c -6.11  -3.71    +56.8243
iter: 327 14:51:22  -791.306314c -5.84  -3.71    +56.8131
iter: 328 14:53:17  -791.306194c -6.41  -3.71    +56.7932
iter: 329 14:55:13  -791.306519c -6.69  -3.74    +56.7854
iter: 330 14:57:08  -791.306555c -5.59  -3.76    +56.7691
iter: 331 14:59:02  -791.306168c -6.19  -3.63    +56.7742
iter: 332 15:00:58  -791.306111c -5.86  -3.76    +56.7396
iter: 333 15:02:53  -791.306217c -5.63  -3.83    +56.7439
iter: 334 15:04:48  -791.309759c -5.37  -3.64    +56.7015
iter: 335 15:06:43  -791.307854c -5.88  -3.70    +56.6736
iter: 336 15:08:38  -791.309474c -5.79  -4.09c   +56.6462
iter: 337 15:10:32  -791.312593c -5.23  -4.07c   +56.5576
iter: 338 15:12:27  -791.313158c -6.09  -4.03c   +56.5564
iter: 339 15:14:22  -791.311114c -5.82  -4.00c   +56.5601
iter: 340 15:16:18  -791.310432c -5.97  -4.02c   +56.5642
iter: 341 15:18:13  -791.312578c -5.67  -3.99    +56.5463
iter: 342 15:20:09  -791.313176c -5.74  -3.84    +56.5418
iter: 343 15:22:04  -791.313674c -5.64  -3.87    +56.5062
iter: 344 15:24:00  -791.313186c -5.68  -3.84    +56.4990
iter: 345 15:25:55  -791.314948c -5.77  -3.86    +56.4936
iter: 346 15:27:50  -791.314693c -5.64  -3.83    +56.4803
iter: 347 15:29:52  -791.314646c -6.07  -3.88    +56.4618
iter: 348 15:31:47  -791.315472c -6.13  -4.07c   +56.4434
iter: 349 15:33:42  -791.315712c -6.60  -4.18c   +56.4439
iter: 350 15:35:37  -791.316323c -6.11  -4.08c   +56.4227
iter: 351 15:37:32  -791.316084c -6.60  -4.21c   +56.4177
iter: 352 15:39:27  -791.317377c -6.05  -4.14c   +56.3985
iter: 353 15:41:25  -791.317069c -6.65  -4.20c   +56.4113
iter: 354 15:43:20  -791.317812c -6.20  -4.21c   +56.3850
iter: 355 15:45:17  -791.317043c -6.47  -4.23c   +56.4062
iter: 356 15:47:12  -791.317086c -6.40  -4.33c   +56.4256
iter: 357 15:49:08  -791.317957c -6.09  -4.22c   +56.3879
iter: 358 15:51:05  -791.316903c -6.33  -4.47c   +56.4163
iter: 359 15:53:00  -791.313042c -4.87  -4.52c   +56.5343
iter: 360 15:54:56  -791.310333c -4.81  -4.05c   +56.6269
iter: 361 15:57:07  -791.306690c -4.28  -3.82    +56.8011
iter: 362 15:59:02  -791.308744c -5.03  -3.54    +56.6766
iter: 363 16:00:59  -791.311048c -4.88  -3.70    +56.5723
iter: 364 16:02:55  -791.311236c -5.68  -3.85    +56.5521
iter: 365 16:04:50  -791.311149c -6.32  -3.80    +56.5495
iter: 366 16:06:47  -791.312087c -5.84  -3.85    +56.5303
iter: 367 16:08:41  -791.311685c -5.89  -3.73    +56.5207
iter: 368 16:10:37  -791.312341c -5.33  -3.77    +56.5033
iter: 369 16:12:00  -791.312373c -5.74  -3.75    +56.4973
iter: 370 16:13:58  -791.312568c -6.01  -3.88    +56.4913
iter: 371 16:16:04  -791.312496c -6.44  -4.10c   +56.4927
iter: 372 16:18:11  -791.313258c -6.03  -4.07c   +56.4654
iter: 373 16:20:18  -791.314226c -6.00  -4.29c   +56.4433
iter: 374 16:22:25  -791.314782c -6.08  -4.34c   +56.4151
iter: 375 16:24:32  -791.315193c -6.44  -4.50c   +56.4037
iter: 376 16:26:38  -791.316164c -6.09  -4.66c   +56.3716
iter: 377 16:28:46  -791.311574c -4.90  -4.62c   +56.5233
iter: 378 16:30:52  -791.303301c -3.96  -4.23c   +56.9360
iter: 379 16:32:58  -791.308110c -4.63  -3.61    +56.6746
iter: 380 16:35:05  -791.309837c -5.08  -3.90    +56.5912
iter: 381 16:37:12  -791.308301c -5.71  -4.05c   +56.6644
iter: 382 16:39:19  -791.302107c -4.12  -3.91    +57.0207
iter: 383 16:41:27  -791.312525c -3.88  -3.53    +56.4879
iter: 384 16:43:33  -791.309126c -5.39  -4.24c   +56.6233
iter: 385 16:45:41  -791.305579c -4.63  -3.97    +56.8217
iter: 386 16:47:48  -791.304308c -5.06  -3.70    +56.8883
iter: 387 16:49:55  -791.305531c -5.89  -3.62    +56.8282
iter: 388 16:52:01  -791.306275c -5.86  -3.68    +56.7914
iter: 389 16:54:08  -791.309112c -4.88  -3.71    +56.6729
iter: 390 16:56:15  -791.304498c -4.82  -3.81    +56.8192
iter: 391 16:58:21  -791.310414c -4.78  -3.61    +56.6864
iter: 392 17:00:27  -791.306323c -4.99  -3.48    +56.7774
iter: 393 17:02:34  -791.308820c -5.20  -3.54    +56.7469
iter: 394 17:04:41  -791.307454c -5.07  -3.45    +56.7481
iter: 395 17:06:48  -791.307106c -5.24  -3.49    +56.7133
iter: 396 17:08:54  -791.307128c -5.79  -3.76    +56.7100
iter: 397 17:11:01  -791.307985c -5.78  -3.98    +56.6976
iter: 398 17:13:07  -791.307924c -5.80  -3.84    +56.6622
iter: 399 17:15:13  -791.308517c -6.07  -4.05c   +56.6484
iter: 400 17:17:20  -791.309111c -6.05  -4.29c   +56.6266
iter: 401 17:19:27  -791.309309c -6.59  -4.24c   +56.6217
iter: 402 17:21:34  -791.309864c -6.26  -4.40c   +56.5962
iter: 403 17:23:40  -791.309281c -6.74  -4.48c   +56.6102
iter: 404 17:25:47  -791.308534c -6.10  -4.48c   +56.6361
iter: 405 17:27:54  -791.309871c -5.93  -4.43c   +56.5946
iter: 406 17:30:01  -791.306187c -4.93  -4.58c   +56.7232
iter: 407 17:32:08  -791.303561c -4.85  -4.07c   +56.8429
iter: 408 17:34:14  -791.304149c -6.17  -3.83    +56.8296
iter: 409 17:36:20  -791.307853c -4.78  -3.88    +56.7442
iter: 410 17:38:27  -791.307208c -6.41  -4.18c   +56.7546
iter: 411 17:40:34  -791.308372c -5.71  -4.14c   +56.7246
iter: 412 17:42:39  -791.307537c -5.61  -4.11c   +56.7594
iter: 413 17:44:46  -791.308942c -5.35  -3.95    +56.7013
iter: 414 17:46:53  -791.309111c -6.04  -4.24c   +56.6986
iter: 415 17:48:59  -791.310546c -5.64  -3.94    +56.6798
iter: 416 17:51:06  -791.310465c -6.14  -4.15c   +56.6508
iter: 417 17:53:12  -791.311199c -6.11  -4.47c   +56.6223
iter: 418 17:55:18  -791.311643c -6.37  -4.54c   +56.6046
iter: 419 17:57:24  -791.307849c -5.00  -4.42c   +56.7391
iter: 420 17:59:31  -791.304354c -4.60  -4.24c   +56.9358
iter: 421 18:01:38  -791.302891c -4.78  -3.83    +57.0542
iter: 422 18:03:45  -791.304874c -5.06  -3.65    +56.9059
iter: 423 18:05:51  -791.305236c -6.02  -3.86    +56.8872
iter: 424 18:07:58  -791.306793c -5.31  -3.88    +56.8095
iter: 425 18:10:04  -791.305659c -6.14  -3.99    +56.8530
iter: 426 18:12:11  -791.306632c -6.10  -3.94    +56.8169
iter: 427 18:14:14  -791.308152c -5.18  -3.97    +56.8563
iter: 428 18:16:19  -791.306681c -5.23  -3.48    +56.7899
iter: 429 18:18:25  -791.306433c -5.51  -3.73    +56.7360
iter: 430 18:20:32  -791.306532c -6.10  -3.80    +56.7387
iter: 431 18:22:39  -791.308048c -5.93  -4.12c   +56.7153
iter: 432 18:24:45  -791.306988c -6.36  -4.05c   +56.7384
iter: 433 18:26:52  -791.308259c -6.01  -4.22c   +56.7296
iter: 434 18:28:59  -791.308634c -6.33  -4.23c   +56.7063
iter: 435 18:31:06  -791.310305c -5.72  -4.34c   +56.6716
iter: 436 18:33:12  -791.310203c -6.77  -4.27c   +56.6707
iter: 437 18:35:18  -791.311677c -5.98  -4.30c   +56.6429
iter: 438 18:37:25  -791.311093c -6.20  -4.06c   +56.6647
iter: 439 18:39:31  -791.311020c -5.89  -4.11c   +56.6430
iter: 440 18:41:38  -791.312048c -6.07  -4.13c   +56.6109
iter: 441 18:43:44  -791.312703c -6.27  -4.18c   +56.5888
iter: 442 18:45:50  -791.312686c -5.93  -4.08c   +56.5699
iter: 443 18:47:56  -791.313989c -5.86  -3.87    +56.5522
iter: 444 18:50:01  -791.314791c -5.91  -3.87    +56.5361
iter: 445 18:52:04  -791.313916c -6.11  -3.87    +56.5377
iter: 446 18:54:10  -791.315551c -5.64  -3.81    +56.5145
iter: 447 18:56:16  -791.316062c -5.58  -3.72    +56.5136
iter: 448 18:58:22  -791.315417c -5.89  -3.71    +56.4739
iter: 449 19:00:29  -791.316342c -6.00  -4.01c   +56.4463
iter: 450 19:02:36  -791.315602c -6.25  -3.97    +56.4456
iter: 451 19:04:43  -791.317215c -6.01  -3.93    +56.4203
iter: 452 19:06:50  -791.316916c -6.18  -3.99    +56.4132
iter: 453 19:08:57  -791.318048c -6.12  -3.99    +56.3840
iter: 454 19:11:04  -791.318021c -6.65  -4.06c   +56.3796
iter: 455 19:13:10  -791.318757c -6.12  -4.07c   +56.3450
iter: 456 19:15:17  -791.317797c -6.30  -4.06c   +56.4003
iter: 457 19:17:24  -791.314699c -5.13  -4.16c   +56.5677
iter: 458 19:19:30  -791.316833c -5.77  -4.18c   +56.4607
iter: 459 19:21:37  -791.315362c -6.27  -4.02c   +56.5025
iter: 460 19:23:43  -791.316038c -6.61  -4.24c   +56.4675
iter: 461 19:25:50  -791.316192c -6.95  -4.41c   +56.4588
iter: 462 19:27:56  -791.317638c -6.03  -4.42c   +56.4153
iter: 463 19:30:02  -791.317151c -7.03  -4.30c   +56.4246
iter: 464 19:32:09  -791.316940c -6.87  -4.56c   +56.4006
iter: 465 19:34:16  -791.318025c -6.34  -4.47c   +56.3899
iter: 466 19:36:21  -791.313758c -5.08  -4.53c   +56.4323
iter: 467 19:38:27  -791.312046c -5.29  -4.10c   +56.4581
iter: 468 19:40:33  -791.308115c -4.59  -3.91    +56.5561
iter: 469 19:42:40  -791.305057c -4.36  -3.58    +56.6992
iter: 470 19:44:46  -791.306972c -5.41  -3.38    +56.6485
iter: 471 19:46:53  -791.307934c -5.83  -3.48    +56.6461
iter: 472 19:48:59  -791.308685c -5.83  -3.50    +56.6502
iter: 473 19:51:05  -791.308889c -6.27  -3.53    +56.6515
iter: 474 19:53:11  -791.308706c -5.79  -3.55    +56.6470
iter: 475 19:55:18  -791.310498c -4.96  -3.44    +56.6658
iter: 476 19:57:25  -791.310964c -5.01  -3.40    +56.6612
iter: 477 19:59:31  -791.311032c -4.77  -3.35    +56.6597
iter: 478 20:01:38  -791.308376c -5.31  -3.39    +56.6648
iter: 479 20:03:44  -791.311462c -5.41  -3.80    +56.6906
iter: 480 20:05:50  -791.312244c -5.37  -3.80    +56.7015
iter: 481 20:07:53  -791.314308c -5.29  -3.92    +56.7174
iter: 482 20:09:58  -791.315110c -5.79  -3.92    +56.7238
iter: 483 20:12:05  -791.315758c -5.94  -4.01c   +56.7216
iter: 484 20:14:11  -791.315912c -6.45  -4.14c   +56.7197
iter: 485 20:16:17  -791.316928c -6.01  -4.15c   +56.7184
iter: 486 20:18:23  -791.316710c -6.71  -4.19c   +56.7156
iter: 487 20:20:29  -791.316959c -6.38  -4.22c   +56.6884
iter: 488 20:22:35  -791.317244c -6.49  -4.23c   +56.7165
iter: 489 20:24:42  -791.318688c -5.98  -4.16c   +56.7029
iter: 490 20:26:48  -791.318382c -6.64  -4.22c   +56.7236
iter: 491 20:28:55  -791.319748c -6.02  -4.43c   +56.7393
iter: 492 20:31:00  -791.317771c -5.79  -4.28c   +56.7031
iter: 493 20:33:07  -791.308841c -4.14  -4.37c   +56.4678
iter: 494 20:35:13  -791.309028c -5.24  -3.62    +56.4582
iter: 495 20:37:19  -791.309707c -5.96  -3.62    +56.4415
iter: 496 20:39:26  -791.311354c -5.42  -3.64    +56.3975
iter: 497 20:41:32  -791.311316c -6.65  -3.68    +56.4137
iter: 498 20:43:39  -791.311406c -4.95  -3.66    +56.3937
iter: 499 20:45:46  -791.309799c -5.38  -3.55    +56.4019
iter: 500 20:47:52  -791.310629c -5.76  -3.65    +56.4410
iter: 501 20:49:58  -791.311192c -5.65  -3.83    +56.4354
iter: 502 20:52:05  -791.311278c -5.76  -3.85    +56.4315
iter: 503 20:54:11  -791.312544c -5.75  -3.79    +56.4550
iter: 504 20:56:17  -791.314554c -5.49  -4.23c   +56.4756
iter: 505 20:58:24  -791.317376c -5.29  -4.26c   +56.4838
iter: 506 21:00:30  -791.314226c -5.52  -4.13c   +56.4718
iter: 507 21:02:36  -791.304109c -4.08  -4.47c   +56.4276
iter: 508 21:04:40  -791.301025c -4.39  -3.59    +56.4035
iter: 509 21:06:42  -791.306413c -4.53  -3.43    +56.4383
iter: 510 21:08:48  -791.308202c -5.15  -3.72    +56.4431
iter: 511 21:10:55  -791.311639c -4.83  -3.81    +56.4500
iter: 512 21:13:00  -791.303470c -4.27  -4.13c   +56.4353
iter: 513 21:15:06  -791.300363c -4.53  -3.54    +56.4400
iter: 514 21:17:12  -791.307239c -4.35  -3.42    +56.4441
iter: 515 21:19:18  -791.307611c -5.43  -3.73    +56.4455
iter: 516 21:21:24  -791.308408c -5.74  -3.73    +56.4597
iter: 517 21:23:30  -791.308556c -6.13  -3.82    +56.4580
iter: 518 21:25:36  -791.309034c -6.19  -3.80    +56.4608
iter: 519 21:27:41  -791.309854c -5.85  -3.88    +56.4588
iter: 520 21:29:47  -791.307978c -5.92  -3.91    +56.4566
iter: 521 21:31:53  -791.311040c -5.47  -3.80    +56.4637
iter: 522 21:34:00  -791.309260c -5.59  -3.77    +56.4821
iter: 523 21:36:07  -791.311449c -5.46  -3.77    +56.4661
iter: 524 21:38:13  -791.311911c -5.86  -3.95    +56.4876
iter: 525 21:40:19  -791.313215c -5.85  -4.16c   +56.5002
iter: 526 21:42:25  -791.315449c -5.48  -4.30c   +56.5040
iter: 527 21:44:30  -791.310056c -4.96  -4.08c   +56.4920
iter: 528 21:46:36  -791.300661c -4.05  -4.26c   +56.4799
iter: 529 21:48:41  -791.303009c -5.47  -3.55    +56.4886
iter: 530 21:50:47  -791.305304c -5.32  -3.69    +56.5018
iter: 531 21:52:53  -791.310366c -4.68  -3.83    +56.5315
iter: 532 21:54:59  -791.304618c -4.79  -4.22c   +56.5012
iter: 533 21:57:04  -791.301903c -4.90  -3.75    +56.4902
iter: 534 21:59:10  -791.304761c -5.29  -3.58    +56.5058
iter: 535 22:01:16  -791.307364c -5.18  -3.77    +56.5219
iter: 536 22:03:22  -791.306903c -6.39  -3.92    +56.5206
iter: 537 22:05:28  -791.307706c -5.91  -3.92    +56.5224
iter: 538 22:07:34  -791.307267c -6.68  -3.91    +56.5193
iter: 539 22:09:38  -791.308741c -6.02  -3.97    +56.5273
iter: 540 22:11:44  -791.307927c -5.72  -3.97    +56.5262
iter: 541 22:13:49  -791.309253c -5.73  -3.80    +56.5312
iter: 542 22:15:56  -791.311315c -5.47  -4.35c   +56.5438
iter: 543 22:18:01  -791.307485c -5.25  -4.09c   +56.5148
iter: 544 22:20:07  -791.299849c -4.38  -4.18c   +56.4523
iter: 545 22:22:12  -791.309674c -4.41  -3.61    +56.5282
iter: 546 22:24:16  -791.310287c -5.45  -4.48c   +56.5291
iter: 547 22:26:23  -791.312164c -5.44  -4.57c   +56.5340
iter: 548 22:28:29  -791.297635c -3.70  -4.27c   +56.4964
iter: 549 22:30:36  -791.299480c -5.19  -3.43    +56.5038
iter: 550 22:32:43  -791.300005c -5.83  -3.50    +56.5092
iter: 551 22:34:49  -791.300416c -6.42  -3.54    +56.5148
iter: 552 22:36:56  -791.301041c -6.06  -3.54    +56.5168
iter: 553 22:39:02  -791.303546c -4.96  -3.58    +56.5374
iter: 554 22:41:09  -791.303054c -5.32  -3.68    +56.5428
iter: 555 22:43:16  -791.303337c -5.50  -3.58    +56.5596
iter: 556 22:45:22  -791.306574c -5.19  -3.77    +56.5851
iter: 557 22:47:28  -791.304910c -5.39  -3.73    +56.5703
iter: 558 22:49:34  -791.305719c -5.28  -3.66    +56.5664
iter: 559 22:51:40  -791.305485c -5.77  -3.82    +56.5934
iter: 560 22:53:46  -791.306592c -5.83  -3.98    +56.6086
iter: 561 22:55:52  -791.307976c -5.92  -4.22c   +56.6168
iter: 562 22:57:58  -791.310633c -5.36  -4.30c   +56.6279
iter: 563 23:00:04  -791.313707c -5.21  -4.06c   +56.6259
iter: 564 23:02:10  -791.304871c -4.53  -3.87    +56.6170
iter: 565 23:04:16  -791.301003c -4.60  -4.08c   +56.6176
iter: 566 23:06:21  -791.305614c -4.98  -3.74    +56.6209
iter: 567 23:08:28  -791.308294c -5.14  -4.20c   +56.6264
iter: 568 23:10:34  -791.306811c -6.25  -4.58c   +56.6239
iter: 569 23:12:40  -791.304440c -5.42  -4.40c   +56.6118
iter: 570 23:14:46  -791.308454c -5.14  -4.06c   +56.6260
iter: 571 23:16:52  -791.305524c -5.51  -4.60c   +56.6175
iter: 572 23:18:59  -791.302659c -5.10  -4.21c   +56.6086
iter: 573 23:21:06  -791.302002c -5.61  -3.85    +56.6084
iter: 574 23:23:12  -791.300776c -5.33  -3.80    +56.6128
iter: 575 23:25:19  -791.297255c -4.29  -3.69    +56.6410
iter: 576 23:27:26  -791.303115c -4.14  -3.43    +56.6063
iter: 577 23:29:30  -791.301525c -5.21  -3.90    +56.6262
iter: 578 23:31:33  -791.304402c -4.64  -3.65    +56.5939
iter: 579 23:33:38  -791.307838c -4.86  -4.03c   +56.5880
iter: 580 23:35:44  -791.305562c -5.46  -4.27c   +56.6071
iter: 581 23:37:50  -791.306061c -6.15  -4.21c   +56.6174
iter: 582 23:39:55  -791.307107c -6.16  -4.22c   +56.6261
iter: 583 23:42:01  -791.309563c -5.39  -4.35c   +56.6382
iter: 584 23:44:07  -791.301974c -4.49  -4.22c   +56.6023
iter: 585 23:46:13  -791.281326c -3.39  -3.85    +56.5085
iter: 586 23:48:19  -791.310580c -3.31  -3.17    +56.6485
iter: 587 23:50:25  -791.346366c -3.37  -4.02c   +56.7356
iter: 588 23:52:30  -791.301415c -3.38  -3.26    +56.6326
iter: 589 23:54:36  -791.291617c -3.67  -3.71    +56.5980
iter: 590 23:56:43  -791.307670c -3.77  -3.34    +56.6363
iter: 591 23:58:49  -791.355249c -3.24  -4.57c   +56.6863
iter: 592 00:00:52  -791.297820c -3.18  -3.20    +56.6387
iter: 593 00:02:57  -791.283317c -3.41  -3.58    +56.6463
iter: 594 00:05:04  -791.307386c -3.47  -3.20    +56.6423
iter: 595 00:07:09  -791.341271c -3.35  -4.49c   +56.6397
iter: 596 00:09:16  -791.297475c -3.28  -3.31    +56.6639
iter: 597 00:11:21  -791.278189c -3.33  -3.54    +56.7092
iter: 598 00:13:27  -791.307022c -3.35  -3.15    +56.6498
iter: 599 00:15:33  -791.335273c -3.38  -4.38c   +56.6143
iter: 600 00:17:39  -791.298567c -3.37  -3.37    +56.6891
iter: 601 00:19:45  -791.283112c -3.43  -3.55    +56.7533
iter: 602 00:21:52  -791.308229c -3.39  -3.18    +56.6466
iter: 603 00:23:58  -791.346171c -3.25  -4.44c   +56.5486
iter: 604 00:26:04  -791.297763c -3.21  -3.27    +56.7184
iter: 605 00:28:11  -791.288138c -3.54  -3.54    +56.8153
iter: 606 00:30:16  -791.307404c -3.53  -3.23    +56.6487
iter: 607 00:32:23  -791.345153c -3.26  -4.30c   +56.4814
iter: 608 00:34:28  -791.298137c -3.20  -3.28    +56.7638
iter: 609 00:36:34  -791.289781c -3.58  -3.50    +56.8819
iter: 610 00:38:41  -791.307653c -3.54  -3.24    +56.6360
iter: 611 00:40:47  -791.337024c -3.39  -4.32c   +56.4200
iter: 612 00:42:53  -791.298222c -3.29  -3.38    +56.7933
iter: 613 00:45:00  -791.295222c -3.89  -3.51    +56.9063
iter: 614 00:47:06  -791.306212c -3.80  -3.33    +56.6386
iter: 615 00:49:12  -791.312454c -4.19  -4.12c   +56.5465
iter: 616 00:51:18  -791.312381c -5.33  -4.12c   +56.5508
iter: 617 00:53:22  -791.313226c -5.62  -4.16c   +56.5333
iter: 618 00:55:26  -791.312796c -6.29  -4.06c   +56.5397
iter: 619 00:57:32  -791.313648c -6.16  -4.11c   +56.5315
iter: 620 00:59:38  -791.309062c -5.00  -4.02c   +56.5827
iter: 621 01:01:44  -791.307644c -5.24  -3.98    +56.6276
iter: 622 01:03:50  -791.309361c -5.83  -4.20c   +56.6013
iter: 623 01:05:56  -791.305285c -4.86  -4.56c   +56.6883
iter: 624 01:08:01  -791.306178c -6.18  -3.92    +56.6892
iter: 625 01:10:07  -791.307762c -5.66  -4.01c   +56.6871
iter: 626 01:12:13  -791.306803c -6.27  -4.17c   +56.6885
iter: 627 01:14:20  -791.306448c -6.79  -4.08c   +56.6835
iter: 628 01:16:25  -791.307105c -6.30  -4.06c   +56.6839
iter: 629 01:18:31  -791.307227c -6.37  -4.16c   +56.6847
iter: 630 01:20:37  -791.308249c -5.82  -3.89    +56.6874
iter: 631 01:22:43  -791.308301c -6.26  -4.42c   +56.6780
iter: 632 01:24:49  -791.309120c -6.12  -4.19c   +56.6857
iter: 633 01:26:54  -791.311288c -5.52  -4.63c   +56.6877
iter: 634 01:29:01  -791.305274c -4.70  -4.26c   +56.7012
iter: 635 01:31:06  -791.296750c -4.00  -3.99    +56.7425
iter: 636 01:33:13  -791.312048c -3.82  -3.43    +56.6800
iter: 637 01:35:18  -791.302874c -4.55  -4.18c   +56.7151
iter: 638 01:37:21  -791.295427c -4.03  -3.76    +56.7626
iter: 639 01:39:25  -791.315261c -3.56  -3.37    +56.6738
iter: 640 01:41:30  -791.300669c -4.11  -3.91    +56.7314
iter: 641 01:43:36  -791.296014c -4.22  -3.62    +56.7618
iter: 642 01:45:42  -791.308780c -3.86  -3.40    +56.7060
iter: 643 01:47:48  -791.306068c -5.53  -4.38c   +56.7210
iter: 644 01:49:55  -791.304724c -5.67  -4.04c   +56.7302
iter: 645 01:52:00  -791.306020c -6.00  -3.91    +56.7245
iter: 646 01:54:06  -791.307560c -5.63  -4.06c   +56.7184
iter: 647 01:56:11  -791.300316c -4.33  -4.31c   +56.7484
iter: 648 01:58:17  -791.298762c -4.85  -3.59    +56.7491
iter: 649 02:00:23  -791.304650c -4.46  -3.51    +56.7419
iter: 650 02:02:29  -791.300722c -5.02  -3.91    +56.7382
iter: 651 02:04:34  -791.302483c -5.63  -3.63    +56.7318
iter: 652 02:06:40  -791.303560c -5.56  -3.73    +56.7245
iter: 653 02:08:46  -791.304293c -6.06  -3.87    +56.7229
iter: 654 02:10:52  -791.304685c -5.97  -3.91    +56.7165
iter: 655 02:12:58  -791.304206c -6.24  -3.93    +56.7125
iter: 656 02:15:04  -791.304972c -6.03  -3.86    +56.7108
iter: 657 02:17:10  -791.303722c -5.83  -3.82    +56.7094
iter: 658 02:19:15  -791.306855c -5.46  -3.80    +56.7142
iter: 659 02:21:21  -791.305398c -6.11  -3.86    +56.7083
iter: 660 02:23:27  -791.307212c -5.76  -4.19c   +56.7132
iter: 661 02:25:32  -791.307319c -6.41  -4.13c   +56.7124
iter: 662 02:27:38  -791.308699c -5.82  -4.35c   +56.7060
iter: 663 02:29:44  -791.312753c -5.11  -4.20c   +56.7035
iter: 664 02:31:49  -791.301457c -4.25  -3.89    +56.7268
iter: 665 02:33:52  -791.288649c -3.64  -3.86    +56.7797
iter: 666 02:35:54  -791.315754c -3.38  -3.27    +56.6988

Did not converge!

Here are some tips:

1) Make sure the geometry and spin-state is physically sound.
2) Use less aggressive density mixing.
3) Solve the eigenvalue problem more accurately at each scf-step.
4) Use a smoother distribution function for the occupation numbers.
5) Try adding more empty states.
6) Use enough k-points.
7) Don't let your structure optimization algorithm take too large steps.
8) Solve the Poisson equation more accurately.
9) Better initial guess for the wave functions.

See details here:

    https://wiki.fysik.dtu.dk/gpaw/documentation/convergence.html


Timing:                              incl.     excl.
-----------------------------------------------------------
Hamiltonian:                         0.712     0.007   0.0% |
 Atomic:                             0.363     0.095   0.0% |
  XC Correction:                     0.269     0.269   0.0% |
 Calculate atomic Hamiltonians:      0.209     0.209   0.0% |
 Communicate:                        0.005     0.005   0.0% |
 Initialize Hamiltonian:             0.000     0.000   0.0% |
 Poisson:                            0.001     0.001   0.0% |
 XC 3D grid:                         0.127     0.127   0.0% |
LCAO initialization:               141.805     1.174   0.0% |
 LCAO eigensolver:                  20.053     0.023   0.0% |
  Calculate projections:             0.446     0.446   0.0% |
  DenseAtomicCorrection:             0.562     0.562   0.0% |
  Distribute overlap matrix:         1.411     1.411   0.0% |
  Orbital Layouts:                  11.784    11.784   0.0% |
  Potential matrix:                  4.066     4.066   0.0% |
  Sum over cells:                    1.762     1.762   0.0% |
 LCAO to grid:                     118.445   118.445   0.1% |
 Set positions (LCAO WFS):           2.133     0.946   0.0% |
  Basic WFS set positions:           0.003     0.003   0.0% |
  Basis functions set positions:     0.001     0.001   0.0% |
  P tci:                             0.692     0.692   0.0% |
  ST tci:                            0.207     0.207   0.0% |
  mktci:                             0.284     0.284   0.0% |
PWDescriptor:                        0.079     0.079   0.0% |
SCF-cycle:                       81276.243     9.645   0.0% |
 Davidson:                       79792.270 15304.738  18.8% |-------|
  Apply H:                         631.999   606.917   0.7% |
   HMM T:                           25.082    25.082   0.0% |
  Subspace diag:                  5756.161     0.870   0.0% |
   calc_h_matrix:                 2242.484  1382.000   1.7% ||
    Apply H:                       860.483   833.353   1.0% |
     HMM T:                         27.130    27.130   0.0% |
   diagonalize:                   1056.229  1056.229   1.3% ||
   rotate_psi:                    2456.578  2456.578   3.0% ||
  calc. matrices:                11425.208 10216.536  12.5% |----|
   Apply H:                       1208.673  1156.302   1.4% ||
    HMM T:                          52.370    52.370   0.1% |
  diagonalize:                   41210.109 41210.109  50.6% |-------------------|
  rotate_psi:                     5464.055  5464.055   6.7% |--|
 Density:                          838.210     0.030   0.0% |
  Atomic density matrices:          18.073    18.073   0.0% |
  Mix:                             373.005   373.005   0.5% |
  Multipole moments:                 0.364     0.364   0.0% |
  Pseudo density:                  446.739   446.701   0.5% |
   Symmetrize density:               0.038     0.038   0.0% |
 Hamiltonian:                      626.561     3.590   0.0% |
  Atomic:                          243.270    54.444   0.1% |
   XC Correction:                  188.827   188.827   0.2% |
  Calculate atomic Hamiltonians:   294.695   294.695   0.4% |
  Communicate:                       1.611     1.611   0.0% |
  Poisson:                           0.791     0.791   0.0% |
  XC 3D grid:                       82.605    82.605   0.1% |
 Orthonormalize:                     9.557     0.002   0.0% |
  calc_s_matrix:                     1.271     1.271   0.0% |
  inverse-cholesky:                  0.648     0.648   0.0% |
  projections:                       5.633     5.633   0.0% |
  rotate_psi_s:                      2.004     2.004   0.0% |
Set symmetry:                        0.001     0.001   0.0% |
Other:                               2.128     2.128   0.0% |
-----------------------------------------------------------
Total:                                     81420.969 100.0%

Date: Sat Apr 15 02:35:57 2023
