
  ___ ___ ___ _ _ _  
 |   |   |_  | | | | 
 | | | | | . | | | | 
 |__ |  _|___|_____|  22.8.0
 |___|_|             

User:   c.zeng@d0114
Date:   Mon Apr 17 13:04:00 2023
Arch:   x86_64
Pid:    61089
CWD:    /home/c.zeng/projects/hea-corrosion/hea-mlp/data-curation/surface-md/dft-jobs/49
Python: 3.8.1
gpaw:   /home/c.zeng/usr/installs/gpaw/source/gpaw-22.8.0/gpaw
_gpaw:  /home/c.zeng/usr/installs/gpaw/source/gpaw-22.8.0/
        _gpaw.cpython-38-x86_64-linux-gnu.so
ase:    /home/c.zeng/.local/lib/python3.8/site-packages/ase-3.22.1-py3.8.egg/ase (version 3.22.1)
numpy:  /home/c.zeng/.local/lib/python3.8/site-packages/numpy (version 1.24.2)
scipy:  /home/c.zeng/.local/lib/python3.8/site-packages/scipy (version 1.10.1)
libxc:  4.2.3
units:  Angstrom and eV
cores: 30
OpenMP: False
OMP_NUM_THREADS: 1

Input parameters:
  convergence: {energy: 0.0001}
  kpts: [2 2 1]
  maxiter: 666
  mode: {ecut: 350.0,
         name: pw}
  occupations: {fixmagmom: False,
                name: fermi-dirac,
                width: 0.1}
  poissonsolver: {dipolelayer: xy}
  spinpol: True
  symmetry: {point_group: False}
  xc: PBE

System changes: positions, numbers, cell, pbc, initial_charges, initial_magmoms 

Initialize ...

species:
  Al:
    name: Aluminium
    id: 0292cae29f5d6237e50f6abdd43a7bdd
    Z: 13.0
    valence: 3
    core: 10
    charge: 0.0
    file: /home/c.zeng/usr/data/gpaw-setups-0.9.20000/Al.PBE.gz
    compensation charges: {type: gauss,
                           rc: 0.34,
                           lmax: 2}
    cutoffs: {filter: 1.91,
              core: 2.36}
    valence states:
      #              energy  rcut
      - 3s(2.00)    -7.753   1.085
      - 3p(1.00)    -2.712   1.085
      -  s          19.459   1.085
      -  p          24.499   1.085
      -  d           0.000   1.085
  
    # Using partial waves for Al as LCAO basis

  Ni:
    name: Nickel
    id: 0d9f38a9d6e76a2886f07bb4381f212b
    Z: 28.0
    valence: 16
    core: 12
    charge: 0.0
    file: /home/c.zeng/usr/data/gpaw-setups-0.9.20000/Ni.PBE.gz
    compensation charges: {type: gauss,
                           rc: 0.36,
                           lmax: 2}
    cutoffs: {filter: 2.14,
              core: 1.98}
    valence states:
      #              energy  rcut
      - 4s(2.00)    -5.642   1.164
      - 3p(6.00)   -71.394   1.207
      - 4p(0.00)    -1.226   1.207
      - 3d(8.00)    -8.875   1.138
      -  s          21.570   1.164
      -  d          18.337   1.138
  
    # Using partial waves for Ni as LCAO basis

  Fe:
    name: Iron
    id: 37abbd8d6c3c35915a9b583b742da910
    Z: 26.0
    valence: 8
    core: 18
    charge: 0.0
    file: /home/c.zeng/usr/data/gpaw-setups-0.9.20000/Fe.PBE.gz
    compensation charges: {type: gauss,
                           rc: 0.33,
                           lmax: 2}
    cutoffs: {filter: 2.06,
              core: 2.67}
    valence states:
      #              energy  rcut
      - 4s(2.00)    -5.291   1.164
      - 4p(0.00)    -1.326   1.058
      - 3d(6.00)    -7.505   1.058
      -  s          21.920   1.164
      -  p          25.885   1.058
      -  d          19.706   1.058
  
    # Using partial waves for Fe as LCAO basis

  Cr:
    name: Chromium
    id: 33f258bda2ca9f93018e70263a35547b
    Z: 24.0
    valence: 6
    core: 18
    charge: 0.0
    file: /home/c.zeng/usr/data/gpaw-setups-0.9.20000/Cr.PBE.gz
    compensation charges: {type: gauss,
                           rc: 0.35,
                           lmax: 2}
    cutoffs: {filter: 2.14,
              core: 3.04}
    valence states:
      #              energy  rcut
      - 4s(1.00)    -4.007   1.164
      - 4p(0.00)    -0.989   1.217
      - 3d(5.00)    -2.913   1.111
      -  s          23.205   1.164
      -  p          26.223   1.217
      -  d          24.299   1.111
  
    # Using partial waves for Cr as LCAO basis

  Co:
    name: Cobalt
    id: 339d20d5b0b93d2de9531a1bee871d91
    Z: 27.0
    valence: 9
    core: 18
    charge: 0.0
    file: /home/c.zeng/usr/data/gpaw-setups-0.9.20000/Co.PBE.gz
    compensation charges: {type: gauss,
                           rc: 0.32,
                           lmax: 2}
    cutoffs: {filter: 1.87,
              core: 2.55}
    valence states:
      #              energy  rcut
      - 4s(2.00)    -5.469   1.005
      - 4p(0.00)    -1.277   1.058
      - 3d(7.00)    -8.205   1.005
      -  s          21.742   1.005
      -  p          25.934   1.058
      -  d          19.007   1.005
  
    # Using partial waves for Co as LCAO basis

Reference energy: -4103091.665053  # eV

Spin-polarized calculation.
Magnetic moment: 158.800000

Convergence criteria:
 Maximum [total energy] change in last 3 cyles: 0.0001 eV / electron
 Maximum integral of absolute [dens]ity change: 0.0001 electrons / valence electron
 Maximum integral of absolute [eigenst]ate change: 4e-08 eV^2 / valence electron
 Maximum number of scf [iter]ations: 666
 (Square brackets indicate name in SCF output, whereas a 'c' in
 the SCF output indicates the quantity has converged.)

Symmetries present (total): 1

  ( 1  0  0)
  ( 0  1  0)
  ( 0  0  1)

4 k-points: 2 x 2 x 1 Monkhorst-Pack grid
2 k-points in the irreducible part of the Brillouin zone
       k-points in crystal coordinates                weights
   0:     0.25000000   -0.25000000    0.00000000          2/4
   1:     0.25000000    0.25000000    0.00000000          2/4

Wave functions: Plane wave expansion
  Cutoff energy: 350.000 eV
  Number of coefficients (min, max): 59263, 59339
  Pulay-stress correction: 0.000000 eV/Ang^3 (de/decut=0.000000)
  Using FFTW library
  ScaLapack parameters: grid=1x1, blocksize=None
  Wavefunction extrapolation:
    Improved wavefunction reuse through dual PAW basis 

Occupation numbers: Fermi-Dirac:
  width: 0.1000  # eV
 

Eigensolver
   Davidson(niter=2) 

Densities:
  Coarse grid: 56*56*128 grid
  Fine grid: 112*112*256 grid
  Total Charge: 0.000000 

Density mixing:
  Method: difference
  Backend: pulay
  Linear mixing parameter: 0.05
  old densities: 5
  Damping of long wavelength oscillations: 50 

Hamiltonian:
  XC and Coulomb potentials evaluated on a 112*112*256 grid
  Using the PBE Exchange-Correlation functional
  External potential:
    NoExternalPotential
 

XC parameters: PBE with 2 nearest neighbor stencil

Memory estimate:
  Process memory now: 381.72 MiB
  Calculator: 2263.81 MiB
    Density: 18.78 MiB
      Arrays: 7.39 MiB
      Localized functions: 8.44 MiB
      Mixer: 2.95 MiB
    Hamiltonian: 5.74 MiB
      Arrays: 5.49 MiB
      XC: 0.00 MiB
      Poisson: 0.00 MiB
      vbar: 0.26 MiB
    Wavefunctions: 2239.28 MiB
      Arrays psit_nG: 1414.30 MiB
      Eigensolver: 804.77 MiB
      Projections: 3.48 MiB
      Projectors: 1.15 MiB
      PW-descriptor: 15.58 MiB

Total number of cores used: 30
Parallelization over k-points: 2
Domain decomposition: 1 x 3 x 5

Number of atoms: 125
Number of atomic orbitals: 1149
Number of bands in calculation: 781
Number of valence electrons: 1136
Bands to converge: occupied

... initialized

Initializing position-dependent things.

Density initialized from atomic densities
Creating initial wave functions:
  781 bands from LCAO basis set

                                                                     
                                                                     
                                                                     
                                                                     
                                                                     
                                      Ni        Co    Ni             
                          Fe   Co                                    
                       Cr   Ni   Ni    Ni  Cr Cr  CFe                
                             Cr  NiCo  Co Co       Co    Ni          
            Fe   Fe      Co  Co     Fe       Fe      Fe              
                   Fe   Al     Al    Fe  Al    Ni                    
       Co     Co    Cr     NiCo     Cr    CoCo CrNi   Al             
                      Cr Ni    FFe    Ni Al                          
                Fe         Cr            Fe Ni    Co                 
                     CrNi  ACo   NCr CoCr     Cr Cr    Fe            
                 Ni          Cr  CoNi  FeFe  Co    Al                
            Co     Ni                Ni  Ni    Co    Ni    Cr        
                         Cr   CCo FeNi  Co Fe Al Fe Ni               
                    Cr        Cr    Al    CoFe  Fe     Ni            
          Fe    Fe       Crr    Al    Fe    Cr                       
                     Fee       Co       Ni    Cr  Ni                 
                 Ni        Co    Fe       Al                         
                      Fe     Cr   Ni                                 
                                                                     
                                                                     
                                                                     
                                                                     
                                                                     

Positions:
   0 Al    13.134158    1.141926   10.479616    ( 0.0000,  0.0000,  0.0000)
   1 Ni     3.035376    1.223421   11.024400    ( 0.0000,  0.0000,  1.5000)
   2 Fe     5.198093    1.350069    9.539182    ( 0.0000,  0.0000,  2.0000)
   3 Cr     7.867748    1.189188    9.843424    ( 0.0000,  0.0000,  0.0000)
   4 Ni    10.208985    1.033835   10.421989    ( 0.0000,  0.0000,  1.5000)
   5 Cr    14.340233    3.912523   10.521366    ( 0.0000,  0.0000,  0.0000)
   6 Fe     4.375316    3.607314   10.734615    ( 0.0000,  0.0000,  2.0000)
   7 Co     6.651087    3.377572    9.558778    ( 0.0000,  0.0000,  2.1000)
   8 Fe     9.210952    3.374535    9.919504    ( 0.0000,  0.0000,  2.0000)
   9 Ni    11.814171    3.376083   10.384392    ( 0.0000,  0.0000,  1.5000)
  10 Ni    15.497628    5.775803    9.594237    ( 0.0000,  0.0000,  1.5000)
  11 Cr     5.579842    5.761075   10.208135    ( 0.0000,  0.0000,  0.0000)
  12 Co     7.861617    5.338019    9.745502    ( 0.0000,  0.0000,  2.1000)
  13 Cr    10.438264    5.785881   10.011089    ( 0.0000,  0.0000,  0.0000)
  14 Cr    13.017227    5.648766   10.134190    ( 0.0000,  0.0000,  0.0000)
  15 Ni    16.857220    7.758444   10.269804    ( 0.0000,  0.0000,  1.5000)
  16 Co     6.673462    7.716811   10.858952    ( 0.0000,  0.0000,  2.1000)
  17 Al     9.150935    7.706295    9.917339    ( 0.0000,  0.0000,  0.0000)
  18 Co    11.709932    7.756536    9.761181    ( 0.0000,  0.0000,  2.1000)
  19 Fe    14.102960    7.897109   10.181208    ( 0.0000,  0.0000,  2.0000)
  20 Cr    18.198401    9.819751   10.674599    ( 0.0000,  0.0000,  0.0000)
  21 Fe     8.034510    9.992418   11.046977    ( 0.0000,  0.0000,  2.0000)
  22 Co    10.296162   10.140672   10.082830    ( 0.0000,  0.0000,  2.1000)
  23 Al    12.836787   10.133913    9.960208    ( 0.0000,  0.0000,  0.0000)
  24 Ni    15.381905    9.729045    9.990084    ( 0.0000,  0.0000,  1.5000)
  25 Fe     0.533617   -0.174284   12.928517    ( 0.0000,  0.0000,  2.0000)
  26 Fe     2.790522   -0.115858   13.050019    ( 0.0000,  0.0000,  2.0000)
  27 Fe     5.112219   -0.074211   12.010697    ( 0.0000,  0.0000,  2.0000)
  28 Cr    13.907358   10.551381   12.250388    ( 0.0000,  0.0000,  0.0000)
  29 Fe    16.252839   10.414752   12.374697    ( 0.0000,  0.0000,  2.0000)
  30 Fe    14.023031    2.035558   12.868248    ( 0.0000,  0.0000,  2.0000)
  31 Cr     4.178207    1.945510   12.839557    ( 0.0000,  0.0000,  0.0000)
  32 Cr     6.250161    2.030324   11.675023    ( 0.0000,  0.0000,  0.0000)
  33 Al     9.038715    2.032002   12.306999    ( 0.0000,  0.0000,  0.0000)
  34 Fe    11.549559    1.753905   12.355612    ( 0.0000,  0.0000,  2.0000)
  35 Fe    15.352481    4.022195   12.678001    ( 0.0000,  0.0000,  2.0000)
  36 Al     5.478930    3.862824   12.980414    ( 0.0000,  0.0000,  0.0000)
  37 Cr     7.657707    4.163121   11.922292    ( 0.0000,  0.0000,  0.0000)
  38 Ni    10.191127    4.369897   12.114357    ( 0.0000,  0.0000,  1.5000)
  39 Fe    12.766226    4.261634   12.493537    ( 0.0000,  0.0000,  2.0000)
  40 Ni    16.612768    6.103072   12.264172    ( 0.0000,  0.0000,  1.5000)
  41 Co     6.630873    6.249564   12.795018    ( 0.0000,  0.0000,  2.1000)
  42 Fe     8.769618    6.338225   11.938619    ( 0.0000,  0.0000,  2.0000)
  43 Ni    11.609698    6.309218   12.076797    ( 0.0000,  0.0000,  1.5000)
  44 Co    13.969350    6.276028   12.134315    ( 0.0000,  0.0000,  2.1000)
  45 Al     5.330874    8.303301   12.702254    ( 0.0000,  0.0000,  0.0000)
  46 Ni     7.944682    8.200850   13.145756    ( 0.0000,  0.0000,  1.5000)
  47 Fe    10.283692    8.563968   11.854941    ( 0.0000,  0.0000,  2.0000)
  48 Co    12.643780    8.592111   12.042378    ( 0.0000,  0.0000,  2.1000)
  49 Al    15.271853    8.379148   12.410599    ( 0.0000,  0.0000,  0.0000)
  50 Co     1.202171    0.521600   15.083848    ( 0.0000,  0.0000,  2.1000)
  51 Ni     3.949940    0.723075   15.320750    ( 0.0000,  0.0000,  1.5000)
  52 Cr     6.322902    0.707436   14.036498    ( 0.0000,  0.0000,  0.0000)
  53 Co     8.840852    0.518005   14.401066    ( 0.0000,  0.0000,  2.1000)
  54 Ni    11.305156    0.761188   14.627780    ( 0.0000,  0.0000,  1.5000)
  55 Ni     2.614571    2.642712   14.899463    ( 0.0000,  0.0000,  1.5000)
  56 Ni     5.015198    2.809252   15.576463    ( 0.0000,  0.0000,  1.5000)
  57 Cr     7.623999    2.968686   14.497876    ( 0.0000,  0.0000,  0.0000)
  58 Ni    10.058174    3.184694   14.491896    ( 0.0000,  0.0000,  1.5000)
  59 Fe    12.639075    2.821852   14.958400    ( 0.0000,  0.0000,  2.0000)
  60 Cr     3.871123    5.001719   14.531467    ( 0.0000,  0.0000,  0.0000)
  61 Cr     6.308118    4.971252   15.357893    ( 0.0000,  0.0000,  0.0000)
  62 Co     8.511560    5.051364   13.901284    ( 0.0000,  0.0000,  2.1000)
  63 Cr    11.239751    5.304001   14.719364    ( 0.0000,  0.0000,  0.0000)
  64 Cr    13.912575    5.003429   14.694569    ( 0.0000,  0.0000,  0.0000)
  65 Ni     4.976366    6.960459   14.921805    ( 0.0000,  0.0000,  1.5000)
  66 Fe     7.588712    6.932301   15.064435    ( 0.0000,  0.0000,  2.0000)
  67 Co     9.957645    7.173687   13.861602    ( 0.0000,  0.0000,  2.1000)
  68 Ni    12.583501    7.290647   14.298401    ( 0.0000,  0.0000,  1.5000)
  69 Co    14.958991    7.104707   14.415491    ( 0.0000,  0.0000,  2.1000)
  70 Co     6.137395    9.348258   15.151557    ( 0.0000,  0.0000,  2.1000)
  71 Cr     8.757891    9.119573   15.046463    ( 0.0000,  0.0000,  0.0000)
  72 Al    11.045383    9.239586   14.115468    ( 0.0000,  0.0000,  0.0000)
  73 Cr    13.502747    9.551203   14.630511    ( 0.0000,  0.0000,  0.0000)
  74 Al    16.318319    9.280110   14.586373    ( 0.0000,  0.0000,  0.0000)
  75 Fe    12.547352    1.679928   17.292443    ( 0.0000,  0.0000,  2.0000)
  76 Fe     2.436703    1.600915   17.101441    ( 0.0000,  0.0000,  2.0000)
  77 Cr     4.857632    1.622204   17.632510    ( 0.0000,  0.0000,  0.0000)
  78 Co     7.246413    1.590757   16.535183    ( 0.0000,  0.0000,  2.1000)
  79 Cr     9.764938    1.681118   16.424857    ( 0.0000,  0.0000,  0.0000)
  80 Co    13.568776    3.718227   17.152442    ( 0.0000,  0.0000,  2.1000)
  81 Cr     3.412045    3.959082   17.113580    ( 0.0000,  0.0000,  0.0000)
  82 Ni     6.485084    3.768408   17.445377    ( 0.0000,  0.0000,  1.5000)
  83 Fe     8.674580    3.678237   16.436252    ( 0.0000,  0.0000,  2.0000)
  84 Ni    10.983159    3.589682   16.640273    ( 0.0000,  0.0000,  1.5000)
  85 Ni    14.915506    6.020379   16.698276    ( 0.0000,  0.0000,  1.5000)
  86 Al     4.792086    5.904924   17.317158    ( 0.0000,  0.0000,  0.0000)
  87 Cr     7.511112    6.033656   17.409811    ( 0.0000,  0.0000,  0.0000)
  88 Cr     9.513797    5.749139   16.258636    ( 0.0000,  0.0000,  0.0000)
  89 Co    12.220083    5.561234   17.063254    ( 0.0000,  0.0000,  2.1000)
  90 Fe    16.056080    8.093989   17.105956    ( 0.0000,  0.0000,  2.0000)
  91 Co     6.264973    7.876766   17.045632    ( 0.0000,  0.0000,  2.1000)
  92 Co     8.599202    8.224828   17.652016    ( 0.0000,  0.0000,  2.1000)
  93 Al    11.084798    7.943852   16.187461    ( 0.0000,  0.0000,  0.0000)
  94 Ni    13.563512    7.929709   16.553431    ( 0.0000,  0.0000,  1.5000)
  95 Ni    17.235570   10.493195   16.962820    ( 0.0000,  0.0000,  1.5000)
  96 Ni     7.245499   10.156653   17.259833    ( 0.0000,  0.0000,  1.5000)
  97 Ni     9.831452   10.007159   17.418942    ( 0.0000,  0.0000,  1.5000)
  98 Fe    12.125882   10.234515   16.296508    ( 0.0000,  0.0000,  2.0000)
  99 Co    14.616117   10.330748   16.577870    ( 0.0000,  0.0000,  2.1000)
 100 Co    -0.704558    0.257116   19.032658    ( 0.0000,  0.0000,  2.1000)
 101 Co     2.131559    0.346168   19.315834    ( 0.0000,  0.0000,  2.1000)
 102 Cr     4.662558    0.019344   19.396963    ( 0.0000,  0.0000,  0.0000)
 103 Co    13.140605   11.212581   18.524871    ( 0.0000,  0.0000,  2.1000)
 104 Ni    15.807359   11.055488   18.764828    ( 0.0000,  0.0000,  1.5000)
 105 Fe     0.702725    2.335627   19.757550    ( 0.0000,  0.0000,  2.0000)
 106 Fe     3.316321    2.845807   19.135421    ( 0.0000,  0.0000,  2.0000)
 107 Co     5.791406    2.573816   19.858506    ( 0.0000,  0.0000,  2.1000)
 108 Al     8.368061    2.385203   18.604243    ( 0.0000,  0.0000,  0.0000)
 109 Fe    10.850053    2.468580   19.143157    ( 0.0000,  0.0000,  2.0000)
 110 Fe     2.205083    4.997512   18.902623    ( 0.0000,  0.0000,  2.0000)
 111 Cr     4.755255    4.752664   19.887466    ( 0.0000,  0.0000,  0.0000)
 112 Cr     7.327499    4.572674   19.869099    ( 0.0000,  0.0000,  0.0000)
 113 Fe     9.802698    4.570052   18.585515    ( 0.0000,  0.0000,  2.0000)
 114 Co    12.366719    4.814100   19.187562    ( 0.0000,  0.0000,  2.1000)
 115 Fe    15.735725    7.022508   19.184249    ( 0.0000,  0.0000,  2.0000)
 116 Ni     6.142872    6.758061   19.209413    ( 0.0000,  0.0000,  1.5000)
 117 Ni     8.411976    6.720873   19.527920    ( 0.0000,  0.0000,  1.5000)
 118 Co    10.641750    6.696935   18.608276    ( 0.0000,  0.0000,  2.1000)
 119 Cr    13.411225    6.981302   18.899271    ( 0.0000,  0.0000,  0.0000)
 120 Fe     4.762181    8.846285   18.795270    ( 0.0000,  0.0000,  2.0000)
 121 Co     6.985887    9.025064   19.200701    ( 0.0000,  0.0000,  2.1000)
 122 Ni     9.566864    8.974978   19.639757    ( 0.0000,  0.0000,  1.5000)
 123 Cr    11.953678    8.929285   18.216050    ( 0.0000,  0.0000,  0.0000)
 124 Co    14.539611    9.012306   18.451597    ( 0.0000,  0.0000,  2.1000)

Unit cell:
           periodic     x           y           z      points  spacing
  1. axis:    yes   12.530300    0.000000    0.000000    56     0.1938
  2. axis:    yes    6.259130   10.841100    0.000000    56     0.1936
  3. axis:    no     0.000000    0.000000   29.353100   128     0.2293

  Lengths:  12.530300  12.518233  29.353100
  Angles:   90.000000  90.000000  59.999929

Effective grid spacing dv^(1/3) = 0.2150

     iter     time        total  log10-change:  magmom
                         energy  eigst   dens
iter:   1 13:11:09 -1188.358623                  +159.1296
iter:   2 13:13:29 -1614.212984  +0.25  -1.10    +88.3962
iter:   3 13:15:51 -3607.750545  +1.49  -0.83    +59.8666
iter:   4 13:18:12 -1030.792505  +0.35  -0.52    +27.6837
iter:   5 13:20:32  -978.342301  +0.03  -1.16    +25.7114
iter:   6 13:22:53  -979.531989  -0.39  -1.23    +25.5614
iter:   7 13:25:13  -960.812804  -0.97  -1.24    +26.2607
iter:   8 13:27:34  -976.596858  -0.81  -1.27    +27.1655
iter:   9 13:29:54 -1365.993213  -0.73  -1.21    +29.2181
iter:  10 13:32:15  -945.247742  -1.09  -0.92    +26.2429
iter:  11 13:34:35  -954.138020  -1.59  -1.34    +27.3444
iter:  12 13:36:55  -935.591624  -1.33  -1.31    +29.4915
iter:  13 13:39:16  -971.633007  -1.38  -1.44    +30.2650
iter:  14 13:41:36  -995.714738  -1.39  -1.30    +32.7930
iter:  15 13:43:56  -928.968893  -1.80  -1.25    +32.0526
iter:  16 13:46:17  -929.584097  -1.77  -1.55    +34.2295
iter:  17 13:48:37  -919.827957  -2.20  -1.53    +35.9137
iter:  18 13:50:58  -918.648151  -2.50  -1.64    +37.6637
iter:  19 13:53:18  -921.078845  -2.51  -1.68    +41.3044
iter:  20 13:55:39  -928.576279  -2.46  -1.65    +44.2677
iter:  21 13:57:59  -930.387621  -2.21  -1.58    +46.4610
iter:  22 14:00:20  -943.223778  -2.09  -1.57    +49.2397
iter:  23 14:02:41  -926.636660  -2.16  -1.49    +50.7613
iter:  24 14:05:02  -926.826630  -2.27  -1.68    +53.4242
iter:  25 14:07:23  -925.312981  -2.16  -1.71    +55.1584
iter:  26 14:09:44  -922.870889  -2.58  -1.75    +56.4623
iter:  27 14:12:05  -923.892984  -2.61  -1.84    +58.4186
iter:  28 14:14:26  -925.502968  -2.81  -1.86    +59.7990
iter:  29 14:16:47  -931.527713  -2.45  -1.83    +61.6561
iter:  30 14:19:08  -929.961224  -2.40  -1.72    +61.5168
iter:  31 14:21:24  -928.305715  -2.54  -1.77    +62.5664
iter:  32 14:23:41  -927.299115  -2.52  -1.86    +63.1627
iter:  33 14:25:58  -927.260422  -2.66  -1.95    +63.6374
iter:  34 14:28:16  -927.057271  -2.67  -1.99    +64.4592
iter:  35 14:30:33  -929.812463  -2.90  -2.01    +64.9179
iter:  36 14:32:50  -933.333273  -2.45  -1.88    +65.7266
iter:  37 14:35:06  -927.735103  -2.67  -1.77    +65.3731
iter:  38 14:37:23  -927.656382  -2.84  -2.03    +66.6754
iter:  39 14:39:40  -927.253479  -3.19  -2.10    +66.8343
iter:  40 14:41:57  -927.944882  -2.78  -2.22    +67.2824
iter:  41 14:44:14  -929.144892  -2.99  -2.18    +67.3468
iter:  42 14:46:31  -931.391727  -2.66  -2.05    +67.2352
iter:  43 14:48:48  -928.240903  -2.78  -1.90    +67.8773
iter:  44 14:51:05  -927.786706  -3.03  -2.16    +67.2330
iter:  45 14:53:22  -927.545258  -3.59  -2.27    +67.4279
iter:  46 14:55:39  -927.571017  -3.81  -2.34    +67.7206
iter:  47 14:57:56  -927.569849c -3.94  -2.36    +68.3060
iter:  48 15:00:12  -935.337587  -2.64  -2.38    +68.5502
iter:  49 15:02:29  -928.054121  -2.82  -1.78    +68.6901
iter:  50 15:04:46  -927.901240  -3.55  -2.26    +68.9210
iter:  51 15:07:03  -927.933973  -3.62  -2.34    +68.7625
iter:  52 15:09:20  -927.668632  -3.75  -2.38    +69.0371
iter:  53 15:11:37  -927.623636  -3.65  -2.58    +69.2780
iter:  54 15:13:53  -927.685942c -3.90  -2.73    +69.4224
iter:  55 15:16:09  -927.646388c -4.23  -2.75    +69.7498
iter:  56 15:18:26  -927.731297c -4.14  -2.89    +70.0539
iter:  57 15:20:42  -927.716743c -4.61  -2.89    +70.0452
iter:  58 15:22:59  -927.805769c -4.28  -3.03    +70.3855
iter:  59 15:25:16  -927.525012  -3.25  -2.96    +68.5466
iter:  60 15:27:32  -927.551125  -4.17  -2.96    +68.4816
iter:  61 15:29:49  -927.589896c -4.07  -2.98    +68.6796
iter:  62 15:32:05  -927.705814  -4.15  -3.03    +68.8848
iter:  63 15:34:22  -927.644888  -4.48  -2.69    +68.9692
iter:  64 15:36:39  -927.674958c -4.50  -3.01    +69.1529
iter:  65 15:38:55  -927.637306c -4.71  -2.98    +68.8487
iter:  66 15:41:12  -927.690071c -4.57  -3.05    +69.0590
iter:  67 15:43:29  -927.680285c -5.46  -2.97    +69.1363
iter:  68 15:45:45  -927.724471c -4.29  -3.04    +69.5204
iter:  69 15:48:01  -927.770289c -4.72  -3.02    +69.5132
iter:  70 15:50:18  -927.819239c -4.57  -2.86    +69.8613
iter:  71 15:52:35  -927.623859  -3.29  -2.85    +68.1753
iter:  72 15:54:52  -927.596638  -3.80  -2.93    +67.8565
iter:  73 15:57:08  -927.615175c -4.45  -2.92    +68.3139
iter:  74 15:59:25  -928.237184  -3.62  -2.98    +68.3099
iter:  75 16:01:42  -927.758640  -3.71  -2.33    +68.4070
iter:  76 16:03:59  -927.661112  -4.33  -2.67    +68.5864
iter:  77 16:06:16  -927.653945c -4.52  -2.93    +68.7869
iter:  78 16:08:33  -927.729169c -4.35  -2.99    +69.0201
iter:  79 16:10:50  -927.676502c -5.03  -2.81    +68.9453
iter:  80 16:13:07  -927.702639c -4.04  -2.92    +68.8996
iter:  81 16:15:23  -927.669654c -4.23  -2.81    +68.9572
iter:  82 16:17:39  -927.718420c -4.37  -3.04    +68.9417
iter:  83 16:19:56  -927.736879c -4.58  -2.87    +69.1465
iter:  84 16:22:13  -927.764202c -4.61  -2.93    +69.2756
iter:  85 16:24:29  -927.753955c -5.03  -2.95    +69.1297
iter:  86 16:26:47  -927.885882  -4.08  -2.95    +69.6354
iter:  87 16:29:03  -934.689355  -2.75  -2.99    +68.7841
iter:  88 16:31:20  -928.040970  -2.89  -1.81    +69.8760
iter:  89 16:33:36  -928.003133  -3.62  -2.63    +70.2192
iter:  90 16:35:53  -928.054450c -3.87  -2.61    +70.3139
iter:  91 16:38:10  -930.110240  -3.06  -2.63    +70.4304
iter:  92 16:40:26  -928.013628  -3.42  -2.06    +70.5634
iter:  93 16:42:43  -942.588821  -2.35  -2.59    +70.6725
iter:  94 16:45:00  -927.853260  -2.73  -1.64    +70.5700
iter:  95 16:47:17  -927.913367  -3.67  -2.75    +70.7351
iter:  96 16:49:33  -927.864383c -4.29  -2.70    +70.5705
iter:  97 16:51:50  -927.916399c -4.11  -2.86    +70.5185
iter:  98 16:54:07  -927.947824c -4.04  -2.84    +70.4491
iter:  99 16:56:24  -928.617314  -3.56  -2.95    +70.4715
iter: 100 16:58:40  -927.989970  -3.85  -2.30    +70.4856
iter: 101 17:00:57  -927.995723  -4.35  -2.84    +70.5714
iter: 102 17:03:14  -928.004823c -4.58  -3.02    +70.5753
iter: 103 17:05:31  -928.054205c -4.37  -2.89    +70.7706
iter: 104 17:07:48  -928.024032c -5.04  -2.79    +70.8008
iter: 105 17:10:05  -928.259435  -3.93  -2.91    +70.9317
iter: 106 17:12:21  -928.025061  -4.34  -2.53    +70.9426
iter: 107 17:14:39  -928.076885  -4.44  -3.12    +71.2425
iter: 108 17:17:00  -928.114110c -4.56  -2.93    +71.3267
iter: 109 17:19:21  -928.075859c -5.13  -2.91    +71.1695
iter: 110 17:21:42  -928.136143c -4.59  -2.98    +71.1512
iter: 111 17:24:04  -928.151214c -4.28  -2.76    +71.3526
iter: 112 17:26:25  -928.175718c -4.20  -2.84    +71.3429
iter: 113 17:28:46  -928.183864c -4.02  -2.75    +71.4012
iter: 114 17:31:07  -928.218039c -4.50  -2.86    +71.5975
iter: 115 17:33:29  -928.202700c -4.81  -2.89    +71.5170
iter: 116 17:35:50  -928.321429  -4.16  -2.94    +71.8142
iter: 117 17:38:11  -928.293127  -4.66  -2.72    +71.8858
iter: 118 17:40:33  -928.785461  -3.64  -2.89    +72.0748
iter: 119 17:42:54  -928.319230  -3.93  -2.41    +71.9359
iter: 120 17:45:15  -928.416581  -4.21  -2.85    +72.1269
iter: 121 17:47:36  -928.495692  -3.84  -2.66    +72.3130
iter: 122 17:49:57  -928.487895c -4.23  -2.64    +72.4954
iter: 123 17:52:19  -928.522510c -4.53  -2.59    +72.7413
iter: 124 17:54:40  -928.500819c -3.84  -2.57    +73.0855
iter: 125 17:57:01  -928.491911c -4.09  -2.77    +72.9839
iter: 126 17:59:22  -928.645684  -3.74  -2.72    +73.0917
iter: 127 18:01:44  -928.537123  -3.75  -2.53    +72.9201
iter: 128 18:04:05  -928.855993  -3.47  -2.66    +73.2684
iter: 129 18:06:27  -930.573832  -3.04  -2.38    +73.3332
iter: 130 18:08:48  -928.510610  -3.76  -2.05    +73.1601
iter: 131 18:11:09  -928.485597  -4.41  -2.59    +72.9677
iter: 132 18:13:30  -928.411586c -4.26  -2.62    +73.0063
iter: 133 18:15:52  -928.492098c -4.45  -2.76    +72.9055
iter: 134 18:18:13  -928.421709c -4.93  -2.62    +72.9202
iter: 135 18:20:35  -932.390549  -2.95  -2.72    +72.9152
iter: 136 18:22:57  -928.360653  -3.29  -1.93    +72.9063
iter: 137 18:25:19  -928.348595  -4.26  -2.98    +72.9422
iter: 138 18:27:40  -928.366045c -4.44  -3.08    +72.8702
iter: 139 18:30:01  -928.351880c -4.71  -3.01    +72.9107
iter: 140 18:32:22  -928.351307c -5.04  -3.24    +72.9317
iter: 141 18:34:44  -928.361596c -4.70  -3.34    +72.9967
iter: 142 18:37:05  -928.359323c -5.30  -3.19    +72.9107
iter: 143 18:39:27  -928.358950c -5.79  -3.34    +72.9402
iter: 144 18:41:48  -928.360630c -5.39  -3.30    +72.8744
iter: 145 18:44:09  -928.363086c -5.32  -3.34    +72.8562
iter: 146 18:46:31  -928.366957c -5.11  -3.29    +72.8614
iter: 147 18:48:52  -928.365939c -5.37  -3.26    +72.8748
iter: 148 18:51:13  -928.363037c -4.92  -3.25    +72.8024
iter: 149 18:53:34  -928.363574c -5.04  -3.40    +72.7219
iter: 150 18:55:56  -928.362984c -5.44  -3.39    +72.6843
iter: 151 18:58:17  -928.362476c -5.30  -3.43    +72.6395
iter: 152 19:00:38  -928.367552c -5.18  -3.44    +72.6673
iter: 153 19:03:00  -928.364535c -5.58  -3.25    +72.6659
iter: 154 19:05:21  -928.361664c -5.67  -3.35    +72.6787
iter: 155 19:07:43  -928.365867c -5.57  -3.44    +72.6680
iter: 156 19:10:05  -928.358353c -5.74  -3.26    +72.6633
iter: 157 19:12:27  -928.359967c -5.33  -3.59    +72.6562
iter: 158 19:14:48  -928.361641c -5.64  -3.61    +72.6823
iter: 159 19:17:10  -928.363071c -5.97  -3.46    +72.6490
iter: 160 19:19:32  -928.362273c -6.47  -3.37    +72.6446
iter: 161 19:21:53  -928.359587c -6.10  -3.39    +72.6237
iter: 162 19:24:15  -928.360789c -5.50  -3.56    +72.6364
iter: 163 19:26:37  -928.363816c -5.39  -3.50    +72.6430
iter: 164 19:28:59  -928.361146c -5.41  -3.37    +72.6804
iter: 165 19:31:21  -928.361118c -5.94  -3.64    +72.6625
iter: 166 19:33:43  -928.364272c -5.87  -3.58    +72.6627
iter: 167 19:36:05  -928.360015c -6.11  -3.37    +72.6680
iter: 168 19:38:26  -928.359778c -5.89  -3.75    +72.6496
iter: 169 19:40:48  -928.359761c -6.06  -3.72    +72.6514
iter: 170 19:43:10  -928.361343c -6.26  -3.83    +72.6387
iter: 171 19:45:32  -928.360991c -6.93  -3.59    +72.6280
iter: 172 19:47:54  -928.360697c -6.79  -3.61    +72.6106
iter: 173 19:50:16  -928.360304c -6.64  -3.63    +72.6048
iter: 174 19:52:38  -928.361636c -6.21  -3.72    +72.6034
iter: 175 19:55:00  -928.360187c -5.71  -3.54    +72.6096
iter: 176 19:57:20  -928.362020c -5.83  -3.51    +72.6007
iter: 177 19:59:38  -928.360870c -5.48  -3.51    +72.5999
iter: 178 20:01:58  -928.365477c -5.41  -3.51    +72.6177
iter: 179 20:04:15  -928.360489c -5.95  -3.31    +72.6076
iter: 180 20:06:32  -928.372188c -5.45  -3.66    +72.5939
iter: 181 20:08:49  -928.359389c -5.47  -3.15    +72.5925
iter: 182 20:11:06  -928.362370c -5.63  -3.54    +72.5653
iter: 183 20:13:23  -928.360762c -5.48  -3.41    +72.5693
iter: 184 20:15:41  -928.359072c -5.72  -3.44    +72.5745
iter: 185 20:17:58  -928.361125c -6.01  -3.75    +72.6096
iter: 186 20:20:15  -928.363318c -5.51  -3.48    +72.6007
iter: 187 20:22:33  -928.360073c -5.64  -3.45    +72.6034
iter: 188 20:24:50  -928.359158c -6.11  -3.54    +72.5921
iter: 189 20:27:07  -928.360827c -6.20  -3.75    +72.5900
iter: 190 20:29:25  -928.359984c -6.33  -3.53    +72.6019
iter: 191 20:31:43  -928.358705c -6.23  -3.76    +72.6049
iter: 192 20:33:59  -928.359746c -5.98  -3.90    +72.6050
iter: 193 20:36:17  -928.360128c -6.30  -3.78    +72.6107
iter: 194 20:38:34  -928.360096c -6.53  -3.81    +72.6123
iter: 195 20:40:51  -928.365418c -5.75  -3.87    +72.6185
iter: 196 20:43:09  -928.360144c -5.88  -3.40    +72.6241
iter: 197 20:45:26  -928.360150c -6.88  -3.73    +72.6157
iter: 198 20:47:43  -928.360518c -6.81  -3.83    +72.6174
iter: 199 20:50:00  -928.359883c -7.02  -3.82    +72.6157
iter: 200 20:52:18  -928.360116c -7.12  -3.92    +72.6167
iter: 201 20:54:35  -928.360064c -6.95  -3.89    +72.6136
iter: 202 20:56:52  -928.361132c -6.21  -4.07c   +72.6123
iter: 203 20:59:09  -928.360263c -6.44  -3.91    +72.6159
iter: 204 21:01:26  -928.359780c -6.63  -3.91    +72.6116
iter: 205 21:03:44  -928.360274c -6.96  -4.25c   +72.6115
iter: 206 21:06:01  -928.360394c -6.72  -4.12c   +72.6161
iter: 207 21:08:19  -928.360136c -7.20  -4.13c   +72.6158
iter: 208 21:10:36  -928.360152c -7.49c -4.35c   +72.6170

Converged after 208 iterations.

Dipole moment: (13.523064, 11.317890, 0.089768) |e|*Ang

Total magnetic moment: (0.000000, 0.000000, 72.616963)
Local magnetic moments:
   0 Al ( 0.000000,  0.000000, -0.019461)
   1 Ni ( 0.000000,  0.000000,  0.312974)
   2 Fe ( 0.000000,  0.000000,  2.624734)
   3 Cr ( 0.000000,  0.000000, -2.727980)
   4 Ni ( 0.000000,  0.000000,  0.303899)
   5 Cr ( 0.000000,  0.000000, -2.270069)
   6 Fe ( 0.000000,  0.000000,  2.429831)
   7 Co ( 0.000000,  0.000000,  1.335797)
   8 Fe ( 0.000000,  0.000000,  2.751456)
   9 Ni ( 0.000000,  0.000000,  0.381668)
  10 Ni ( 0.000000,  0.000000,  0.421559)
  11 Cr ( 0.000000,  0.000000, -2.693230)
  12 Co ( 0.000000,  0.000000,  1.233024)
  13 Cr ( 0.000000,  0.000000, -2.620554)
  14 Cr ( 0.000000,  0.000000,  1.995930)
  15 Ni ( 0.000000,  0.000000,  0.117211)
  16 Co ( 0.000000,  0.000000,  0.850937)
  17 Al ( 0.000000,  0.000000, -0.043869)
  18 Co ( 0.000000,  0.000000,  1.339249)
  19 Fe ( 0.000000,  0.000000,  2.518890)
  20 Cr ( 0.000000,  0.000000, -2.600273)
  21 Fe ( 0.000000,  0.000000,  2.125177)
  22 Co ( 0.000000,  0.000000,  1.561977)
  23 Al ( 0.000000,  0.000000, -0.037837)
  24 Ni ( 0.000000,  0.000000,  0.363133)
  25 Fe ( 0.000000,  0.000000,  2.289662)
  26 Fe ( 0.000000,  0.000000,  2.100345)
  27 Fe ( 0.000000,  0.000000,  1.956442)
  28 Cr ( 0.000000,  0.000000, -1.211362)
  29 Fe ( 0.000000,  0.000000,  1.756687)
  30 Fe ( 0.000000,  0.000000,  2.426140)
  31 Cr ( 0.000000,  0.000000, -1.408565)
  32 Cr ( 0.000000,  0.000000,  0.883104)
  33 Al ( 0.000000,  0.000000, -0.011142)
  34 Fe ( 0.000000,  0.000000,  2.685318)
  35 Fe ( 0.000000,  0.000000,  1.881011)
  36 Al ( 0.000000,  0.000000, -0.006613)
  37 Cr ( 0.000000,  0.000000, -1.774793)
  38 Ni ( 0.000000,  0.000000,  0.293743)
  39 Fe ( 0.000000,  0.000000,  2.615116)
  40 Ni ( 0.000000,  0.000000,  0.211061)
  41 Co ( 0.000000,  0.000000,  1.009692)
  42 Fe ( 0.000000,  0.000000,  2.114201)
  43 Ni ( 0.000000,  0.000000,  0.369412)
  44 Co ( 0.000000,  0.000000,  1.361961)
  45 Al ( 0.000000,  0.000000, -0.016876)
  46 Ni ( 0.000000,  0.000000,  0.273482)
  47 Fe ( 0.000000,  0.000000,  2.327329)
  48 Co ( 0.000000,  0.000000,  1.132269)
  49 Al ( 0.000000,  0.000000, -0.034403)
  50 Co ( 0.000000,  0.000000,  1.503140)
  51 Ni ( 0.000000,  0.000000,  0.374378)
  52 Cr ( 0.000000,  0.000000,  1.243315)
  53 Co ( 0.000000,  0.000000,  0.752114)
  54 Ni ( 0.000000,  0.000000,  0.492082)
  55 Ni ( 0.000000,  0.000000,  0.393224)
  56 Ni ( 0.000000,  0.000000, -0.053512)
  57 Cr ( 0.000000,  0.000000, -1.681515)
  58 Ni ( 0.000000,  0.000000,  0.132448)
  59 Fe ( 0.000000,  0.000000,  2.729309)
  60 Cr ( 0.000000,  0.000000,  1.431830)
  61 Cr ( 0.000000,  0.000000, -1.566206)
  62 Co ( 0.000000,  0.000000,  0.423440)
  63 Cr ( 0.000000,  0.000000,  2.035677)
  64 Cr ( 0.000000,  0.000000, -2.239924)
  65 Ni ( 0.000000,  0.000000,  0.100951)
  66 Fe ( 0.000000,  0.000000,  2.128539)
  67 Co ( 0.000000,  0.000000,  0.039334)
  68 Ni ( 0.000000,  0.000000,  0.118950)
  69 Co ( 0.000000,  0.000000,  0.602011)
  70 Co ( 0.000000,  0.000000,  1.339272)
  71 Cr ( 0.000000,  0.000000, -2.438570)
  72 Al ( 0.000000,  0.000000, -0.034196)
  73 Cr ( 0.000000,  0.000000, -0.903656)
  74 Al ( 0.000000,  0.000000, -0.036262)
  75 Fe ( 0.000000,  0.000000,  2.623309)
  76 Fe ( 0.000000,  0.000000,  2.556996)
  77 Cr ( 0.000000,  0.000000, -2.074257)
  78 Co ( 0.000000,  0.000000,  1.060117)
  79 Cr ( 0.000000,  0.000000, -1.838314)
  80 Co ( 0.000000,  0.000000,  1.459262)
  81 Cr ( 0.000000,  0.000000, -1.648652)
  82 Ni ( 0.000000,  0.000000,  0.102608)
  83 Fe ( 0.000000,  0.000000,  1.552214)
  84 Ni ( 0.000000,  0.000000,  0.355088)
  85 Ni ( 0.000000,  0.000000,  0.126115)
  86 Al ( 0.000000,  0.000000, -0.008281)
  87 Cr ( 0.000000,  0.000000,  1.389872)
  88 Cr ( 0.000000,  0.000000, -1.645793)
  89 Co ( 0.000000,  0.000000,  1.536813)
  90 Fe ( 0.000000,  0.000000,  2.352888)
  91 Co ( 0.000000,  0.000000,  1.228815)
  92 Co ( 0.000000,  0.000000,  1.570538)
  93 Al ( 0.000000,  0.000000, -0.011996)
  94 Ni ( 0.000000,  0.000000,  0.097826)
  95 Ni ( 0.000000,  0.000000,  0.443457)
  96 Ni ( 0.000000,  0.000000,  0.662762)
  97 Ni ( 0.000000,  0.000000,  0.408796)
  98 Fe ( 0.000000,  0.000000,  1.816834)
  99 Co ( 0.000000,  0.000000,  1.265247)
 100 Co ( 0.000000,  0.000000,  1.683412)
 101 Co ( 0.000000,  0.000000,  1.696148)
 102 Cr ( 0.000000,  0.000000,  2.402999)
 103 Co ( 0.000000,  0.000000,  1.087030)
 104 Ni ( 0.000000,  0.000000,  0.512776)
 105 Fe ( 0.000000,  0.000000,  3.031142)
 106 Fe ( 0.000000,  0.000000,  2.322142)
 107 Co ( 0.000000,  0.000000,  1.250630)
 108 Al ( 0.000000,  0.000000, -0.040089)
 109 Fe ( 0.000000,  0.000000,  2.740820)
 110 Fe ( 0.000000,  0.000000,  2.114366)
 111 Cr ( 0.000000,  0.000000, -3.139436)
 112 Cr ( 0.000000,  0.000000, -3.215551)
 113 Fe ( 0.000000,  0.000000,  2.541830)
 114 Co ( 0.000000,  0.000000,  1.670066)
 115 Fe ( 0.000000,  0.000000,  2.476691)
 116 Ni ( 0.000000,  0.000000,  0.233933)
 117 Ni ( 0.000000,  0.000000,  0.496510)
 118 Co ( 0.000000,  0.000000,  1.467310)
 119 Cr ( 0.000000,  0.000000, -2.568736)
 120 Fe ( 0.000000,  0.000000,  2.453388)
 121 Co ( 0.000000,  0.000000,  1.693399)
 122 Ni ( 0.000000,  0.000000,  0.445683)
 123 Cr ( 0.000000,  0.000000, -2.258242)
 124 Co ( 0.000000,  0.000000,  1.284096)

Energy contributions relative to reference atoms: (reference = -4103091.665053)

Kinetic:       +343.853186
Potential:     -350.758999
External:        +0.000000
XC:            -958.258222
Entropy (-ST):   -5.307693
Local:          +39.457729
--------------------------
Free energy:   -931.013998
Extrapolated:  -928.360152

Dipole-layer corrected work functions: 4.737319, 4.617742 eV

Spin contamination: 53.165546 electrons
Showing all kpts
                      Up                     Down
 Kpt  Band  Eigenvalues  Occupancy  Eigenvalues  Occupancy
  0   566      0.10394    0.99739      1.03333    0.03396
  0   567      0.12135    0.99690      1.04668    0.02985
  0   568      0.13492    0.99645      1.05076    0.02869
  0   569      0.14544    0.99605      1.06126    0.02590

  1   566      0.11105    0.99720      1.03516    0.03337
  1   567      0.12299    0.99684      1.04936    0.02908
  1   568      0.13267    0.99653      1.05692    0.02702
  1   569      0.13927    0.99629      1.06812    0.02423


Fermi level: 0.69854

Gap: 0.008 eV
Transition (v -> c):
  (s=1, k=1, n=531, [0.25, 0.25, 0.00]) -> (s=1, k=0, n=532, [0.25, -0.25, 0.00])

Forces in eV/Ang:
  0 Al   -0.01235    1.88161   -0.39185
  1 Ni   -0.13639    0.83585   -1.44496
  2 Fe   -0.08104    0.55652    0.78132
  3 Cr    1.01620    1.96614    0.22444
  4 Ni    1.02530    0.63302   -0.34097
  5 Cr    0.04181   -0.69234    0.36118
  6 Fe   -0.07896   -0.07020   -0.36757
  7 Co   -0.17091   -0.26990    0.85609
  8 Fe   -0.08063    0.19067    0.65826
  9 Ni   -0.48607   -0.35109    0.36117
 10 Ni    0.30481    0.40127    1.03829
 11 Cr   -0.18818   -1.05434    0.20523
 12 Co    0.65162    0.85052    0.56406
 13 Cr    0.53039   -2.57647    0.19421
 14 Cr   -0.43865   -0.63960   -0.81004
 15 Ni   -0.86342    0.26943    0.71865
 16 Co    1.78612   -0.30009   -0.25237
 17 Al   -1.99293    2.02976   -1.00455
 18 Co   -0.16275    0.72781    1.06586
 19 Fe   -0.12730   -0.98287   -0.21722
 20 Cr   -1.22837    0.09994   -0.29086
 21 Fe    0.70431   -1.71331   -0.64108
 22 Co    0.06693   -1.08493   -0.57464
 23 Al   -1.32026   -2.17787   -0.54323
 24 Ni    0.22383    0.91419    0.96642
 25 Fe   -1.90235   -0.77500    0.24367
 26 Fe    0.99256   -0.76836    0.97294
 27 Fe   -0.27365   -0.14458   -0.11635
 28 Cr    0.01790    0.99200   -0.01059
 29 Fe    1.29792    1.50748   -0.12435
 30 Fe   -0.18364    0.17730   -0.26564
 31 Cr   -0.78666   -0.69671    1.89297
 32 Cr    1.27512   -0.50171   -1.03121
 33 Al   -0.42021    0.01434    0.45706
 34 Fe   -0.08348    0.82164    0.72157
 35 Fe    0.03422   -0.14532   -0.11161
 36 Al    0.37990    2.45766    1.39498
 37 Cr    0.35775    0.02315   -1.82419
 38 Ni    0.16220   -0.93683    0.24724
 39 Fe   -0.47547   -0.93667    0.40415
 40 Ni   -0.17526    0.16544    0.03499
 41 Co   -1.01328   -1.30548    0.69856
 42 Fe    0.76645    0.03905   -0.81634
 43 Ni   -0.68897    0.80499    0.51515
 44 Co    1.20063    0.12705    1.06477
 45 Al    0.45094    0.07755    0.89579
 46 Ni   -0.79695    1.67918   -1.75771
 47 Fe   -0.60854   -0.24240    0.08448
 48 Co    0.71985   -0.51528    0.51268
 49 Al   -1.17703   -1.70599   -0.93270
 50 Co    0.64593    0.71566    0.35783
 51 Ni   -0.15723   -1.64501   -0.55474
 52 Cr   -0.01290    0.42570    0.75280
 53 Co   -0.38239    1.15467    0.02151
 54 Ni   -0.02453   -0.14068    0.06103
 55 Ni   -0.07891    1.13027    0.07317
 56 Ni    0.95950    0.43512   -1.17163
 57 Cr   -0.87037   -1.12762   -0.63004
 58 Ni    0.55080   -1.06457   -1.31123
 59 Fe   -0.10340   -0.06962   -0.57026
 60 Cr   -0.71747   -0.24658    1.73068
 61 Cr    0.50915   -0.34403   -0.43936
 62 Co    0.35825    0.20023    0.94470
 63 Cr   -0.20414   -0.43067   -0.83383
 64 Cr   -0.51902   -0.42521    0.12372
 65 Ni    0.21915    1.52165   -0.04446
 66 Fe   -0.03559    0.44523    0.27276
 67 Co    0.23185   -0.53812    1.22366
 68 Ni   -0.11554   -0.54700   -0.80860
 69 Co    0.76117    0.32629    0.50728
 70 Co    0.58015   -0.21338   -0.51129
 71 Cr   -0.63149    0.90381    2.11218
 72 Al    0.62171    1.93526   -1.45674
 73 Cr    1.12450   -0.03595   -0.68017
 74 Al   -0.26688    0.12549    1.72108
 75 Fe   -0.89955   -0.71160   -0.32625
 76 Fe   -0.03498   -0.77912    0.40493
 77 Cr    0.45491   -0.45324    0.47658
 78 Co   -0.49685   -0.13782   -1.46636
 79 Cr   -0.31326   -1.59428    0.13120
 80 Co    0.52337    0.22873   -0.07252
 81 Cr    0.11909   -2.05278   -0.58681
 82 Ni   -1.18602   -0.33205    0.77678
 83 Fe   -1.38349    0.52295   -0.22747
 84 Ni    1.48158    0.59159    0.68803
 85 Ni   -0.11303   -0.20432   -0.03408
 86 Al    0.60409    0.58925    0.11240
 87 Cr    0.42826   -1.30466    0.14925
 88 Cr    0.46260    0.99376    0.30830
 89 Co    0.08223    1.87653   -0.81967
 90 Fe    0.22360    0.23665   -2.71662
 91 Co   -0.51476    0.94697   -0.69153
 92 Co   -0.05082   -2.07678   -0.74187
 93 Al   -0.85857   -1.77431    0.18275
 94 Ni   -0.40529    0.35722   -0.55554
 95 Ni    0.19829   -0.94977   -1.39320
 96 Ni   -0.03431    1.02738   -0.97605
 97 Ni    0.53289    1.92163   -0.92237
 98 Fe    0.01301    0.84516    0.58480
 99 Co    0.40560    0.00051   -0.06663
100 Co    1.76979    0.17463    0.71280
101 Co   -0.61108    0.12625   -1.03520
102 Cr    0.49157    1.03224    0.36633
103 Co    0.37622   -0.44182    0.09772
104 Ni   -0.72144    0.24270   -0.32055
105 Fe    0.59169    0.60101   -1.04658
106 Fe    0.18008   -1.03041    0.45092
107 Co    0.14964   -0.48749   -1.45798
108 Al   -0.66990   -0.00172    0.81333
109 Fe    0.24265    0.00327   -0.65828
110 Fe   -0.36977   -1.21305    0.33374
111 Cr   -1.25340    0.19791   -0.86301
112 Cr    0.74585   -0.04180   -0.60514
113 Fe   -0.49341    0.28402    0.22473
114 Co   -0.70461   -1.17538   -0.00695
115 Fe    1.20524   -0.12644    0.53848
116 Ni   -1.35959   -0.11381    0.81098
117 Ni    1.08625    0.20992    0.26541
118 Co    0.37833    1.04108   -0.44561
119 Cr   -0.57299   -0.59539   -0.22825
120 Fe   -0.54578    0.50169    0.88653
121 Co    1.08496   -0.34252    0.91934
122 Ni   -0.17666   -0.52864   -0.24674
123 Cr    0.05409    0.88270    1.75334
124 Co   -0.61106    0.88017    1.27438

Timing:                              incl.     excl.
-----------------------------------------------------------
Forces:                             37.518    37.518   0.1% |
Hamiltonian:                         1.351     0.009   0.0% |
 Atomic:                             0.350     0.001   0.0% |
  XC Correction:                     0.348     0.348   0.0% |
 Calculate atomic Hamiltonians:      0.439     0.439   0.0% |
 Communicate:                        0.120     0.120   0.0% |
 Initialize Hamiltonian:             0.000     0.000   0.0% |
 Poisson:                            0.081     0.081   0.0% |
 XC 3D grid:                         0.351     0.351   0.0% |
LCAO initialization:               268.207     0.524   0.0% |
 LCAO eigensolver:                  12.443     0.009   0.0% |
  Calculate projections:             0.000     0.000   0.0% |
  DenseAtomicCorrection:             0.000     0.000   0.0% |
  Distribute overlap matrix:         7.852     7.852   0.0% |
  Orbital Layouts:                   4.548     4.548   0.0% |
  Potential matrix:                  0.004     0.004   0.0% |
  Sum over cells:                    0.029     0.029   0.0% |
 LCAO to grid:                     253.160   253.160   0.9% |
 Set positions (LCAO WFS):           2.080     1.812   0.0% |
  Basic WFS set positions:           0.004     0.004   0.0% |
  Basis functions set positions:     0.001     0.001   0.0% |
  P tci:                             0.000     0.000   0.0% |
  ST tci:                            0.104     0.104   0.0% |
  mktci:                             0.159     0.159   0.0% |
PWDescriptor:                        0.103     0.103   0.0% |
SCF-cycle:                       28923.617    11.025   0.0% |
 Davidson:                       28126.556  9475.109  32.4% |------------|
  Apply H:                         527.594   519.507   1.8% ||
   HMM T:                            8.087     8.087   0.0% |
  Subspace diag:                  3083.808     0.066   0.0% |
   calc_h_matrix:                 1267.727   799.974   2.7% ||
    Apply H:                       467.753   459.754   1.6% ||
     HMM T:                          7.999     7.999   0.0% |
   diagonalize:                    273.510   273.510   0.9% |
   rotate_psi:                    1542.505  1542.505   5.3% |-|
  calc. matrices:                 7201.073  6360.283  21.8% |--------|
   Apply H:                        840.790   824.829   2.8% ||
    HMM T:                          15.961    15.961   0.1% |
  diagonalize:                    4553.721  4553.721  15.6% |-----|
  rotate_psi:                     3285.251  3285.251  11.2% |---|
 Density:                          432.665     0.006   0.0% |
  Atomic density matrices:           4.729     4.729   0.0% |
  Mix:                             188.161   188.161   0.6% |
  Multipole moments:                 0.139     0.139   0.0% |
  Pseudo density:                  239.629   239.621   0.8% |
   Symmetrize density:               0.008     0.008   0.0% |
 Hamiltonian:                      335.582     2.228   0.0% |
  Atomic:                           74.609     0.235   0.0% |
   XC Correction:                   74.373    74.373   0.3% |
  Calculate atomic Hamiltonians:   159.670   159.670   0.5% |
  Communicate:                      24.377    24.377   0.1% |
  Poisson:                           7.232     7.232   0.0% |
  XC 3D grid:                       67.466    67.466   0.2% |
 Orthonormalize:                    17.788     0.001   0.0% |
  calc_s_matrix:                     2.122     2.122   0.0% |
  inverse-cholesky:                  0.787     0.787   0.0% |
  projections:                      11.135    11.135   0.0% |
  rotate_psi_s:                      3.744     3.744   0.0% |
Set symmetry:                        0.001     0.001   0.0% |
Other:                               7.022     7.022   0.0% |
-----------------------------------------------------------
Total:                                     29237.819 100.0%

Date: Mon Apr 17 21:11:17 2023
