
  ___ ___ ___ _ _ _  
 |   |   |_  | | | | 
 | | | | | . | | | | 
 |__ |  _|___|_____|  22.8.0
 |___|_|             

User:   c.zeng@d0054
Date:   Mon Apr 17 04:24:29 2023
Arch:   x86_64
Pid:    136255
CWD:    /home/c.zeng/projects/hea-corrosion/hea-mlp/data-curation/surface-md/dft-jobs/1
Python: 3.8.1
gpaw:   /home/c.zeng/usr/installs/gpaw/source/gpaw-22.8.0/gpaw
_gpaw:  /home/c.zeng/usr/installs/gpaw/source/gpaw-22.8.0/
        _gpaw.cpython-38-x86_64-linux-gnu.so
ase:    /home/c.zeng/.local/lib/python3.8/site-packages/ase-3.22.1-py3.8.egg/ase (version 3.22.1)
numpy:  /home/c.zeng/.local/lib/python3.8/site-packages/numpy (version 1.24.2)
scipy:  /home/c.zeng/.local/lib/python3.8/site-packages/scipy (version 1.10.1)
libxc:  4.2.3
units:  Angstrom and eV
cores: 30
OpenMP: False
OMP_NUM_THREADS: 1

Input parameters:
  convergence: {energy: 0.0001}
  kpts: [2 2 1]
  maxiter: 666
  mode: {ecut: 350.0,
         name: pw}
  occupations: {fixmagmom: False,
                name: fermi-dirac,
                width: 0.1}
  poissonsolver: {dipolelayer: xy}
  spinpol: True
  symmetry: {point_group: False}
  xc: PBE

System changes: positions, numbers, cell, pbc, initial_charges, initial_magmoms 

Initialize ...

species:
  Cr:
    name: Chromium
    id: 33f258bda2ca9f93018e70263a35547b
    Z: 24.0
    valence: 6
    core: 18
    charge: 0.0
    file: /home/c.zeng/usr/data/gpaw-setups-0.9.20000/Cr.PBE.gz
    compensation charges: {type: gauss,
                           rc: 0.35,
                           lmax: 2}
    cutoffs: {filter: 2.14,
              core: 3.04}
    valence states:
      #              energy  rcut
      - 4s(1.00)    -4.007   1.164
      - 4p(0.00)    -0.989   1.217
      - 3d(5.00)    -2.913   1.111
      -  s          23.205   1.164
      -  p          26.223   1.217
      -  d          24.299   1.111
  
    # Using partial waves for Cr as LCAO basis

  Fe:
    name: Iron
    id: 37abbd8d6c3c35915a9b583b742da910
    Z: 26.0
    valence: 8
    core: 18
    charge: 0.0
    file: /home/c.zeng/usr/data/gpaw-setups-0.9.20000/Fe.PBE.gz
    compensation charges: {type: gauss,
                           rc: 0.33,
                           lmax: 2}
    cutoffs: {filter: 2.06,
              core: 2.67}
    valence states:
      #              energy  rcut
      - 4s(2.00)    -5.291   1.164
      - 4p(0.00)    -1.326   1.058
      - 3d(6.00)    -7.505   1.058
      -  s          21.920   1.164
      -  p          25.885   1.058
      -  d          19.706   1.058
  
    # Using partial waves for Fe as LCAO basis

  Ni:
    name: Nickel
    id: 0d9f38a9d6e76a2886f07bb4381f212b
    Z: 28.0
    valence: 16
    core: 12
    charge: 0.0
    file: /home/c.zeng/usr/data/gpaw-setups-0.9.20000/Ni.PBE.gz
    compensation charges: {type: gauss,
                           rc: 0.36,
                           lmax: 2}
    cutoffs: {filter: 2.14,
              core: 1.98}
    valence states:
      #              energy  rcut
      - 4s(2.00)    -5.642   1.164
      - 3p(6.00)   -71.394   1.207
      - 4p(0.00)    -1.226   1.207
      - 3d(8.00)    -8.875   1.138
      -  s          21.570   1.164
      -  d          18.337   1.138
  
    # Using partial waves for Ni as LCAO basis

  Co:
    name: Cobalt
    id: 339d20d5b0b93d2de9531a1bee871d91
    Z: 27.0
    valence: 9
    core: 18
    charge: 0.0
    file: /home/c.zeng/usr/data/gpaw-setups-0.9.20000/Co.PBE.gz
    compensation charges: {type: gauss,
                           rc: 0.32,
                           lmax: 2}
    cutoffs: {filter: 1.87,
              core: 2.55}
    valence states:
      #              energy  rcut
      - 4s(2.00)    -5.469   1.005
      - 4p(0.00)    -1.277   1.058
      - 3d(7.00)    -8.205   1.005
      -  s          21.742   1.005
      -  p          25.934   1.058
      -  d          19.007   1.005
  
    # Using partial waves for Co as LCAO basis

Reference energy: -4451268.207082  # eV

Spin-polarized calculation.
Magnetic moment: 175.600000

Convergence criteria:
 Maximum [total energy] change in last 3 cyles: 0.0001 eV / electron
 Maximum integral of absolute [dens]ity change: 0.0001 electrons / valence electron
 Maximum integral of absolute [eigenst]ate change: 4e-08 eV^2 / valence electron
 Maximum number of scf [iter]ations: 666
 (Square brackets indicate name in SCF output, whereas a 'c' in
 the SCF output indicates the quantity has converged.)

Symmetries present (total): 1

  ( 1  0  0)
  ( 0  1  0)
  ( 0  0  1)

4 k-points: 2 x 2 x 1 Monkhorst-Pack grid
2 k-points in the irreducible part of the Brillouin zone
       k-points in crystal coordinates                weights
   0:     0.25000000   -0.25000000    0.00000000          2/4
   1:     0.25000000    0.25000000    0.00000000          2/4

Wave functions: Plane wave expansion
  Cutoff energy: 350.000 eV
  Number of coefficients (min, max): 58495, 58567
  Pulay-stress correction: 0.000000 eV/Ang^3 (de/decut=0.000000)
  Using FFTW library
  ScaLapack parameters: grid=1x1, blocksize=None
  Wavefunction extrapolation:
    Improved wavefunction reuse through dual PAW basis 

Occupation numbers: Fermi-Dirac:
  width: 0.1000  # eV
 

Eigensolver
   Davidson(niter=2) 

Densities:
  Coarse grid: 54*54*128 grid
  Fine grid: 108*108*256 grid
  Total Charge: 0.000000 

Density mixing:
  Method: difference
  Backend: pulay
  Linear mixing parameter: 0.05
  old densities: 5
  Damping of long wavelength oscillations: 50 

Hamiltonian:
  XC and Coulomb potentials evaluated on a 108*108*256 grid
  Using the PBE Exchange-Correlation functional
  External potential:
    NoExternalPotential
 

XC parameters: PBE with 2 nearest neighbor stencil

Memory estimate:
  Process memory now: 367.03 MiB
  Calculator: 2405.48 MiB
    Density: 16.73 MiB
      Arrays: 6.75 MiB
      Localized functions: 7.29 MiB
      Mixer: 2.70 MiB
    Hamiltonian: 5.22 MiB
      Arrays: 5.01 MiB
      XC: 0.00 MiB
      Poisson: 0.00 MiB
      vbar: 0.21 MiB
    Wavefunctions: 2383.52 MiB
      Arrays psit_nG: 1501.35 MiB
      Eigensolver: 862.84 MiB
      Projections: 3.85 MiB
      Projectors: 0.98 MiB
      PW-descriptor: 14.51 MiB

Total number of cores used: 30
Parallelization over k-points: 2
Domain decomposition: 1 x 3 x 5

Number of atoms: 125
Number of atomic orbitals: 1218
Number of bands in calculation: 840
Number of valence electrons: 1217
Bands to converge: occupied

... initialized

Initializing position-dependent things.

Density initialized from atomic densities
Creating initial wave functions:
  840 bands from LCAO basis set

                                                                  
                                                                  
                                                                  
                                                                  
                                   Co     Ni         Co           
                               Ni    Co    Cr    Cr               
                         Ni                                       
                    Cr    Ni    CCr  FeCo   CCr   Fe    Co        
                Co    Ni    CNi  NNi   FCr   Fe     Fe            
            Co    Ni    Fe    Ni    Cr                            
       Co              Ni FeCCo   NFe   NFe   CNi    Fe           
                  Fe    FNi   NCo   CFe   Co     Cr               
              Ni    Ni     Fe   Co    Fe    Co       Fe           
                    Co    Cr   NCo   CFe   Ni    Fe    Cr         
               Fe    FCo   NCo NiCo    NCr   Co         Cr        
          Co    NFe   Cr    Fe     Cr Cr    Ni    Fe              
                       Ni   Cr    NFe   FCr   Cr    Cr            
            Fe    Co   CFe NiCCr   CFe   Fe     Ni                
             Co    FCo    Cr          Co   Cr                     
                         CrCo  Cr    CrCr                         
              Fe     Ni          Ni                               
                                                                  
                                                                  
                                                                  
                                                                  
                                                                  

Positions:
   0 Cr    12.616878    1.514311   10.759828    ( 0.0000,  0.0000,  0.0000)
   1 Fe     2.415203    1.406789   10.510271    ( 0.0000,  0.0000,  2.0000)
   2 Ni     5.136401    1.194889   10.761399    ( 0.0000,  0.0000,  1.5000)
   3 Co     7.508143    1.250333   10.825059    ( 0.0000,  0.0000,  2.1000)
   4 Ni    10.042004    1.313095   10.286361    ( 0.0000,  0.0000,  1.5000)
   5 Cr    13.829496    3.569789   10.540428    ( 0.0000,  0.0000,  0.0000)
   6 Fe     3.755825    3.461287   10.664477    ( 0.0000,  0.0000,  2.0000)
   7 Cr     6.283978    3.372089   10.372425    ( 0.0000,  0.0000,  0.0000)
   8 Cr     8.667266    3.443232   10.488527    ( 0.0000,  0.0000,  0.0000)
   9 Cr    11.307569    3.388046   10.359459    ( 0.0000,  0.0000,  0.0000)
  10 Ni    15.046966    5.694329   10.282858    ( 0.0000,  0.0000,  1.5000)
  11 Cr     5.150638    5.652485   10.539932    ( 0.0000,  0.0000,  0.0000)
  12 Cr     7.510891    5.873404   10.425998    ( 0.0000,  0.0000,  0.0000)
  13 Cr     9.923648    5.755573   10.502795    ( 0.0000,  0.0000,  0.0000)
  14 Fe    12.479340    5.621344   10.473790    ( 0.0000,  0.0000,  2.0000)
  15 Cr    16.320396    7.886133   10.625355    ( 0.0000,  0.0000,  0.0000)
  16 Ni     6.148845    7.799257    9.912307    ( 0.0000,  0.0000,  1.5000)
  17 Ni     8.866554    7.885637   10.457856    ( 0.0000,  0.0000,  1.5000)
  18 Fe    11.414389    7.919257   10.525217    ( 0.0000,  0.0000,  2.0000)
  19 Cr    13.764476    7.713307   10.390338    ( 0.0000,  0.0000,  0.0000)
  20 Cr    17.483758   10.008061   10.593423    ( 0.0000,  0.0000,  0.0000)
  21 Ni     7.396417    9.809667   10.716909    ( 0.0000,  0.0000,  1.5000)
  22 Cr    10.006364    9.894374   10.588660    ( 0.0000,  0.0000,  0.0000)
  23 Ni    12.722498    9.851866   10.627454    ( 0.0000,  0.0000,  1.5000)
  24 Fe    14.901344    9.956760   10.457256    ( 0.0000,  0.0000,  2.0000)
  25 Co    12.270087    0.283330   12.639794    ( 0.0000,  0.0000,  2.1000)
  26 Co     2.493526   -0.143677   12.596717    ( 0.0000,  0.0000,  2.1000)
  27 Co     4.991118   -0.063205   12.618983    ( 0.0000,  0.0000,  2.1000)
  28 Cr     7.414187    0.038113   12.817990    ( 0.0000,  0.0000,  0.0000)
  29 Fe    16.021089   10.834552   12.467608    ( 0.0000,  0.0000,  2.0000)
  30 Fe     1.431573    2.153769   12.546051    ( 0.0000,  0.0000,  2.0000)
  31 Co     3.725465    2.221735   12.616626    ( 0.0000,  0.0000,  2.1000)
  32 Fe     6.169618    2.195574   12.629850    ( 0.0000,  0.0000,  2.0000)
  33 Cr     8.697129    2.371740   12.564199    ( 0.0000,  0.0000,  0.0000)
  34 Fe    11.126449    2.263832   12.458200    ( 0.0000,  0.0000,  2.0000)
  35 Ni     2.655171    4.315278   12.649165    ( 0.0000,  0.0000,  1.5000)
  36 Ni     5.135863    4.323526   12.439736    ( 0.0000,  0.0000,  1.5000)
  37 Cr     7.552689    4.257444   12.402623    ( 0.0000,  0.0000,  0.0000)
  38 Fe    10.073782    4.344887   12.363371    ( 0.0000,  0.0000,  2.0000)
  39 Cr    12.681075    4.320965   12.513057    ( 0.0000,  0.0000,  0.0000)
  40 Fe     3.860169    6.308951   12.427975    ( 0.0000,  0.0000,  2.0000)
  41 Ni     6.318679    6.424622   12.403610    ( 0.0000,  0.0000,  1.5000)
  42 Co     8.727444    6.360350   12.563087    ( 0.0000,  0.0000,  2.1000)
  43 Ni    11.227701    6.593440   12.474035    ( 0.0000,  0.0000,  1.5000)
  44 Co    13.763024    6.419600   12.349283    ( 0.0000,  0.0000,  2.1000)
  45 Cr    17.338675    8.610696   12.575758    ( 0.0000,  0.0000,  0.0000)
  46 Ni     7.543152    8.344753   12.750131    ( 0.0000,  0.0000,  1.5000)
  47 Co     9.955562    8.536626   12.654432    ( 0.0000,  0.0000,  2.1000)
  48 Ni    12.501036    8.726834   12.744314    ( 0.0000,  0.0000,  1.5000)
  49 Fe    14.931924    8.511895   12.494635    ( 0.0000,  0.0000,  2.0000)
  50 Co     1.061604    0.578137   14.621914    ( 0.0000,  0.0000,  2.1000)
  51 Fe     3.701149    0.625548   14.651916    ( 0.0000,  0.0000,  2.0000)
  52 Cr     5.980691    0.692661   14.733111    ( 0.0000,  0.0000,  0.0000)
  53 Fe     8.427291    0.727859   14.882366    ( 0.0000,  0.0000,  2.0000)
  54 Cr    11.117976    0.698760   14.619148    ( 0.0000,  0.0000,  0.0000)
  55 Fe     2.435896    2.762634   14.608307    ( 0.0000,  0.0000,  2.0000)
  56 Co     5.192691    3.019554   14.750909    ( 0.0000,  0.0000,  2.1000)
  57 Co     7.589501    2.990646   14.603585    ( 0.0000,  0.0000,  2.1000)
  58 Co     9.908427    2.845739   14.680706    ( 0.0000,  0.0000,  2.1000)
  59 Cr    12.576056    2.720416   14.587810    ( 0.0000,  0.0000,  0.0000)
  60 Co     3.789193    5.062560   14.575496    ( 0.0000,  0.0000,  2.1000)
  61 Cr     6.361930    5.013345   14.471942    ( 0.0000,  0.0000,  0.0000)
  62 Co     8.766012    5.048326   14.563753    ( 0.0000,  0.0000,  2.1000)
  63 Fe    11.200088    4.951747   14.666599    ( 0.0000,  0.0000,  2.0000)
  64 Co    13.636333    5.078501   14.696829    ( 0.0000,  0.0000,  2.1000)
  65 Fe     5.136572    7.171218   14.600682    ( 0.0000,  0.0000,  2.0000)
  66 Ni     7.424612    7.314002   14.763530    ( 0.0000,  0.0000,  1.5000)
  67 Cr     9.922839    7.232578   14.704145    ( 0.0000,  0.0000,  0.0000)
  68 Fe    12.330708    7.124564   14.763278    ( 0.0000,  0.0000,  2.0000)
  69 Cr    15.102302    7.279885   14.646976    ( 0.0000,  0.0000,  0.0000)
  70 Cr     6.052085    9.311259   14.740427    ( 0.0000,  0.0000,  0.0000)
  71 Ni     8.685740    9.420403   14.950379    ( 0.0000,  0.0000,  1.5000)
  72 Ni    11.186181    9.302699   14.735698    ( 0.0000,  0.0000,  1.5000)
  73 Co    13.627568    9.139768   14.744795    ( 0.0000,  0.0000,  2.1000)
  74 Fe    16.189573    9.462713   14.644921    ( 0.0000,  0.0000,  2.0000)
  75 Fe    12.268519    1.452272   16.929577    ( 0.0000,  0.0000,  2.0000)
  76 Ni     2.223554    1.601954   16.753312    ( 0.0000,  0.0000,  1.5000)
  77 Ni     4.893919    1.648530   16.681879    ( 0.0000,  0.0000,  1.5000)
  78 Fe     7.489159    1.432055   16.861815    ( 0.0000,  0.0000,  2.0000)
  79 Co     9.793578    1.414187   16.779646    ( 0.0000,  0.0000,  2.1000)
  80 Co    13.396595    3.662575   16.892472    ( 0.0000,  0.0000,  2.1000)
  81 Fe     3.655216    3.660882   16.858100    ( 0.0000,  0.0000,  2.0000)
  82 Ni     6.253169    3.536669   16.909787    ( 0.0000,  0.0000,  1.5000)
  83 Co     8.611427    3.522488   16.633888    ( 0.0000,  0.0000,  2.1000)
  84 Fe    11.076910    3.553884   16.821980    ( 0.0000,  0.0000,  2.0000)
  85 Ni    14.879912    5.755966   16.608329    ( 0.0000,  0.0000,  1.5000)
  86 Ni     4.973204    5.814889   16.630981    ( 0.0000,  0.0000,  1.5000)
  87 Co     7.513352    5.736433   16.673031    ( 0.0000,  0.0000,  2.1000)
  88 Fe     9.989639    5.649377   16.619108    ( 0.0000,  0.0000,  2.0000)
  89 Fe    12.469617    5.784810   16.659053    ( 0.0000,  0.0000,  2.0000)
  90 Fe    16.128259    7.961558   16.650135    ( 0.0000,  0.0000,  2.0000)
  91 Co     6.348197    7.903292   16.808833    ( 0.0000,  0.0000,  2.1000)
  92 Ni     8.649586    7.906183   16.825120    ( 0.0000,  0.0000,  1.5000)
  93 Fe    10.986028    7.973534   16.828855    ( 0.0000,  0.0000,  2.0000)
  94 Fe    13.488159    7.808512   16.874028    ( 0.0000,  0.0000,  2.0000)
  95 Co    17.428992   10.067517   16.832118    ( 0.0000,  0.0000,  2.1000)
  96 Co     7.371869   10.194535   16.789577    ( 0.0000,  0.0000,  2.1000)
  97 Fe     9.774409   10.224095   16.933382    ( 0.0000,  0.0000,  2.0000)
  98 Co    12.462004    9.975087   16.758230    ( 0.0000,  0.0000,  2.1000)
  99 Fe    14.842569   10.019214   16.814627    ( 0.0000,  0.0000,  2.0000)
 100 Co    -0.034244    0.207526   19.021782    ( 0.0000,  0.0000,  2.1000)
 101 Co     8.659931   10.966070   19.004462    ( 0.0000,  0.0000,  2.1000)
 102 Ni    11.344960   10.841572   18.746230    ( 0.0000,  0.0000,  1.5000)
 103 Fe     7.403823    0.053639   18.845037    ( 0.0000,  0.0000,  2.0000)
 104 Co    16.087147   10.959669   18.923130    ( 0.0000,  0.0000,  2.1000)
 105 Co     1.217592    2.301246   18.674247    ( 0.0000,  0.0000,  2.1000)
 106 Ni     3.765155    2.172606   18.975952    ( 0.0000,  0.0000,  1.5000)
 107 Fe     6.335105    2.192561   18.969982    ( 0.0000,  0.0000,  2.0000)
 108 Ni     8.765142    2.347057   18.717050    ( 0.0000,  0.0000,  1.5000)
 109 Cr    11.149795    2.260376   19.047737    ( 0.0000,  0.0000,  0.0000)
 110 Co     2.503853    4.377245   18.843156    ( 0.0000,  0.0000,  2.1000)
 111 Ni     5.049390    4.250193   18.793623    ( 0.0000,  0.0000,  1.5000)
 112 Ni     7.560654    4.437409   18.785973    ( 0.0000,  0.0000,  1.5000)
 113 Ni     9.946475    4.497181   18.921428    ( 0.0000,  0.0000,  1.5000)
 114 Cr    12.373819    4.439557   18.785472    ( 0.0000,  0.0000,  0.0000)
 115 Cr     3.747086    6.456347   18.631094    ( 0.0000,  0.0000,  0.0000)
 116 Ni     6.234757    6.471168   18.860882    ( 0.0000,  0.0000,  1.5000)
 117 Cr     8.701891    6.714136   18.760053    ( 0.0000,  0.0000,  0.0000)
 118 Co    11.101458    6.537943   18.650595    ( 0.0000,  0.0000,  2.1000)
 119 Cr    13.811166    6.461186   18.786965    ( 0.0000,  0.0000,  0.0000)
 120 Ni     5.020548    8.589119   18.660860    ( 0.0000,  0.0000,  1.5000)
 121 Ni     7.357252    8.882686   18.774307    ( 0.0000,  0.0000,  1.5000)
 122 Co    10.053115    8.770367   18.996054    ( 0.0000,  0.0000,  2.1000)
 123 Cr    12.442492    8.525576   18.868987    ( 0.0000,  0.0000,  0.0000)
 124 Cr    15.038544    8.643505   18.872308    ( 0.0000,  0.0000,  0.0000)

Unit cell:
           periodic     x           y           z      points  spacing
  1. axis:    yes   12.446800    0.000000    0.000000    54     0.1996
  2. axis:    yes    6.223010   10.778600    0.000000    54     0.1996
  3. axis:    no     0.000000    0.000000   29.353100   128     0.2293

  Lengths:  12.446800  12.446046  29.353100
  Angles:   90.000000  90.000000  60.000070

Effective grid spacing dv^(1/3) = 0.2193

     iter     time        total  log10-change:  magmom
                         energy  eigst   dens
iter:   1 04:32:11 -1244.612002                  +175.9175
iter:   2 04:34:53 -1144.977864  -0.07  -1.12    +98.8636
iter:   3 04:37:36 -1103.341569  -0.56  -1.11    +81.4320
iter:   4 04:40:19 -1581.201788  -0.37  -1.17    +72.5072
iter:   5 04:43:02 -1045.483835  -0.70  -0.87    +57.6323
iter:   6 04:45:46 -1006.851009  -1.52  -1.27    +51.1543
iter:   7 04:48:29  -998.690479  -1.81  -1.34    +50.8857
iter:   8 04:51:12 -1000.563147  -1.69  -1.36    +51.9415
iter:   9 04:53:55 -1023.863813  -1.17  -1.38    +53.7683
iter:  10 04:56:38 -1057.244214  -1.03  -1.36    +53.3582
iter:  11 04:59:22 -1013.025730  -1.49  -1.30    +51.4834
iter:  12 05:02:05  -991.271408  -1.61  -1.42    +51.1210
iter:  13 05:04:49 -1037.363172  -1.40  -1.58    +53.4875
iter:  14 05:07:32  -996.340103  -1.46  -1.38    +51.9375
iter:  15 05:10:15  -978.304002  -2.15  -1.50    +52.2445
iter:  16 05:12:58 -1048.779516  -1.89  -1.71    +56.9134
iter:  17 05:15:41  -994.696226  -1.72  -1.29    +56.6435
iter:  18 05:18:24  -980.263340  -2.21  -1.57    +56.7919
iter:  19 05:21:08  -978.574266  -2.65  -1.73    +58.9028
iter:  20 05:23:51  -984.473129  -2.07  -1.81    +61.8640
iter:  21 05:26:34  -978.866366  -2.28  -1.76    +62.6053
iter:  22 05:29:17  -979.396753  -2.56  -1.83    +64.4077
iter:  23 05:32:01  -979.089947  -2.64  -1.86    +67.3871
iter:  24 05:34:44 -1039.808802  -1.78  -2.00    +68.3483
iter:  25 05:37:27 -1017.785033  -1.64  -1.36    +67.8604
iter:  26 05:40:11  -980.111762  -2.38  -1.44    +64.2843
iter:  27 05:42:54  -980.633876  -2.79  -2.04    +65.6272
iter:  28 05:45:38  -979.663678  -2.99  -2.02    +67.2543
iter:  29 05:48:21  -979.765501  -3.33  -2.13    +68.5853
iter:  30 05:51:05  -985.328865  -2.44  -2.16    +71.6466
iter:  31 05:53:48  -984.318688  -2.60  -1.87    +71.3416
iter:  32 05:56:31  -980.295508  -2.96  -1.90    +72.8431
iter:  33 05:59:15  -980.879279  -3.32  -2.22    +73.6718
iter:  34 06:01:59  -980.691509  -3.28  -2.19    +74.3285
iter:  35 06:04:42  -980.790947  -3.42  -2.26    +74.5445
iter:  36 06:07:25  -981.059645  -2.98  -2.25    +75.3609
iter:  37 06:10:09  -981.436923  -3.19  -2.34    +76.1255
iter:  38 06:12:53  -981.709964  -3.09  -2.29    +76.0043
iter:  39 06:15:36  -981.184047  -3.29  -2.25    +76.5467
iter:  40 06:18:19  -981.089737  -3.53  -2.46    +77.1506
iter:  41 06:21:03  -981.287336  -3.66  -2.59    +77.6156
iter:  42 06:23:46  -981.164176  -3.90  -2.51    +77.8034
iter:  43 06:26:30  -981.335492  -3.93  -2.64    +78.0813
iter:  44 06:29:13  -981.898112  -3.58  -2.56    +78.3774
iter:  45 06:31:56  -981.278108  -3.93  -2.32    +78.2034
iter:  46 06:34:40  -981.355124  -3.86  -2.74    +78.2229
iter:  47 06:37:24  -981.361225c -4.15  -2.69    +78.2221
iter:  48 06:40:07  -981.362373c -4.17  -2.71    +78.2217
iter:  49 06:42:43  -981.377036c -4.38  -2.76    +78.1293
iter:  50 06:45:21  -981.497719  -4.27  -2.78    +77.9979
iter:  51 06:47:59  -981.391840c -4.63  -2.63    +78.1245
iter:  52 06:50:37  -981.427948c -4.32  -2.84    +78.0953
iter:  53 06:53:15  -981.429009c -4.53  -2.84    +78.1121
iter:  54 06:55:53  -981.490845c -4.08  -2.87    +78.1157
iter:  55 06:58:30  -981.499770c -4.10  -2.81    +78.1110
iter:  56 07:01:08  -981.628353  -3.99  -2.79    +78.1595
iter:  57 07:03:46  -981.534013  -4.03  -2.62    +78.0137
iter:  58 07:06:23  -981.465125  -4.46  -2.74    +77.9559
iter:  59 07:09:01  -981.449547c -4.61  -2.99    +78.1858
iter:  60 07:11:38  -981.453604c -5.12  -3.14    +78.1026
iter:  61 07:14:16  -981.454904c -5.28  -3.15    +78.0491
iter:  62 07:16:54  -981.458879c -5.27  -3.22    +77.9642
iter:  63 07:19:32  -981.473565c -4.77  -3.27    +77.7407
iter:  64 07:22:09  -981.474239c -4.89  -3.21    +77.8046
iter:  65 07:24:47  -981.482728c -4.89  -3.27    +77.7946
iter:  66 07:27:24  -981.495654c -4.89  -3.20    +77.7426
iter:  67 07:30:02  -981.477149c -5.04  -3.06    +77.7425
iter:  68 07:32:40  -981.477093c -5.28  -3.42    +77.7046
iter:  69 07:35:18  -981.479214c -5.48  -3.48    +77.6869
iter:  70 07:37:55  -981.479345c -5.77  -3.44    +77.6711
iter:  71 07:40:34  -981.480679c -5.68  -3.52    +77.5987
iter:  72 07:43:11  -981.564057c -4.60  -3.53    +77.5408
iter:  73 07:45:49  -981.482906c -4.91  -2.81    +77.5975
iter:  74 07:48:27  -981.484351c -5.46  -3.51    +77.6011
iter:  75 07:51:05  -981.485054c -5.80  -3.55    +77.6096
iter:  76 07:53:43  -981.485256c -5.46  -3.52    +77.6097
iter:  77 07:56:21  -981.487706c -5.96  -3.58    +77.5986
iter:  78 07:58:59  -981.519324c -4.97  -3.47    +77.5410
iter:  79 08:01:38  -981.487617c -5.23  -2.99    +77.5529
iter:  80 08:04:16  -981.488610c -5.85  -3.54    +77.5257
iter:  81 08:06:54  -981.487971c -5.81  -3.55    +77.5273
iter:  82 08:09:31  -981.489070c -6.05  -3.60    +77.5480
iter:  83 08:12:10  -981.490653c -6.12  -3.60    +77.5509
iter:  84 08:14:47  -981.494608c -5.35  -3.54    +77.5458
iter:  85 08:17:26  -981.501883c -5.30  -3.37    +77.5486
iter:  86 08:20:04  -981.491615c -5.46  -3.22    +77.5445
iter:  87 08:22:43  -981.490146c -5.73  -3.55    +77.5533
iter:  88 08:25:21  -981.491669c -5.76  -3.79    +77.6018
iter:  89 08:27:59  -981.491521c -6.13  -3.75    +77.6119
iter:  90 08:30:37  -981.491787c -6.22  -3.80    +77.6300
iter:  91 08:33:15  -981.492318c -6.45  -3.87    +77.6414
iter:  92 08:35:53  -981.494626c -5.97  -3.87    +77.6380
iter:  93 08:38:32  -981.493181c -6.17  -3.57    +77.6426
iter:  94 08:41:11  -981.493337c -6.17  -3.83    +77.6648
iter:  95 08:43:49  -981.493618c -6.46  -3.88    +77.6769
iter:  96 08:46:28  -981.493840c -6.39  -3.85    +77.7008
iter:  97 08:49:06  -981.494158c -6.35  -3.96    +77.7117
iter:  98 08:51:44  -981.495627c -6.10  -3.90    +77.7253
iter:  99 08:54:22  -981.494432c -6.34  -3.70    +77.7122
iter: 100 08:57:00  -981.494730c -6.35  -4.07c   +77.7136
iter: 101 08:59:37  -981.494666c -6.44  -4.03c   +77.7231
iter: 102 09:02:14  -981.494933c -6.51  -4.10c   +77.7299
iter: 103 09:04:51  -981.495354c -6.58  -4.16c   +77.7394
iter: 104 09:07:29  -981.495235c -6.67  -4.17c   +77.7372
iter: 105 09:10:07  -981.495449c -6.68  -4.27c   +77.7383
iter: 106 09:12:45  -981.495632c -6.85  -4.36c   +77.7442
iter: 107 09:15:23  -981.496265c -6.14  -4.35c   +77.7541
iter: 108 09:18:01  -981.497516c -5.60  -4.23c   +77.7810
iter: 109 09:20:39  -981.498196c -5.87  -4.08c   +77.7988
iter: 110 09:23:17  -981.498307c -6.45  -3.93    +77.8102
iter: 111 09:25:56  -981.498390c -6.56  -4.00c   +77.8132
iter: 112 09:28:34  -981.498954c -6.39  -4.02c   +77.8181
iter: 113 09:31:08  -981.499094c -6.79  -3.90    +77.8108
iter: 114 09:33:44  -981.501035c -5.83  -3.81    +77.8329
iter: 115 09:36:19  -981.500675c -5.91  -3.60    +77.8366
iter: 116 09:38:55  -981.501102c -5.87  -3.61    +77.8474
iter: 117 09:41:31  -981.500398c -5.76  -3.62    +77.8507
iter: 118 09:44:06  -981.499281c -6.26  -3.68    +77.7944
iter: 119 09:46:42  -981.499619c -6.56  -3.92    +77.7868
iter: 120 09:49:19  -981.499737c -6.73  -3.83    +77.7796
iter: 121 09:51:56  -981.505521c -5.65  -3.83    +77.7761
iter: 122 09:54:32  -981.500650c -5.81  -3.34    +77.7879
iter: 123 09:57:08  -981.499599c -6.52  -3.70    +77.7933
iter: 124 09:59:44  -981.499655c -6.06  -3.97    +77.7920
iter: 125 10:02:20  -981.499429c -6.58  -4.00    +77.8006
iter: 126 10:04:56  -981.499618c -6.67  -4.27c   +77.8235
iter: 127 10:07:32  -981.499492c -7.01  -4.19c   +77.8294
iter: 128 10:10:08  -981.499633c -7.19  -4.26c   +77.8370
iter: 129 10:12:44  -981.499831c -7.13  -4.31c   +77.8459
iter: 130 10:15:20  -981.499720c -7.19  -4.19c   +77.8460
iter: 131 10:17:56  -981.499747c -7.22  -4.35c   +77.8510
iter: 132 10:20:32  -981.499742c -6.93  -4.40c   +77.8581
iter: 133 10:23:09  -981.500051c -7.03  -4.25c   +77.8612
iter: 134 10:25:45  -981.499829c -7.06  -4.11c   +77.8586
iter: 135 10:28:21  -981.499812c -7.22  -4.42c   +77.8619
iter: 136 10:30:59  -981.499852c -7.46c -4.30c   +77.8711

Converged after 136 iterations.

Dipole moment: (28.358873, -26.116864, 0.007636) |e|*Ang

Total magnetic moment: (0.000000, 0.000000, 77.871138)
Local magnetic moments:
   0 Cr ( 0.000000,  0.000000, -0.207203)
   1 Fe ( 0.000000,  0.000000,  2.374031)
   2 Ni ( 0.000000,  0.000000,  0.450436)
   3 Co ( 0.000000,  0.000000,  0.537842)
   4 Ni ( 0.000000,  0.000000,  0.145104)
   5 Cr ( 0.000000,  0.000000, -1.203301)
   6 Fe ( 0.000000,  0.000000,  2.311460)
   7 Cr ( 0.000000,  0.000000, -2.144138)
   8 Cr ( 0.000000,  0.000000,  0.696845)
   9 Cr ( 0.000000,  0.000000, -1.678522)
  10 Ni ( 0.000000,  0.000000,  0.173310)
  11 Cr ( 0.000000,  0.000000, -1.874441)
  12 Cr ( 0.000000,  0.000000,  2.025843)
  13 Cr ( 0.000000,  0.000000, -2.215062)
  14 Fe ( 0.000000,  0.000000,  2.120319)
  15 Cr ( 0.000000,  0.000000, -1.053999)
  16 Ni ( 0.000000,  0.000000, -0.258698)
  17 Ni ( 0.000000,  0.000000,  0.119806)
  18 Fe ( 0.000000,  0.000000,  2.512649)
  19 Cr ( 0.000000,  0.000000, -2.277430)
  20 Cr ( 0.000000,  0.000000, -1.740043)
  21 Ni ( 0.000000,  0.000000,  0.193233)
  22 Cr ( 0.000000,  0.000000, -2.729727)
  23 Ni ( 0.000000,  0.000000,  0.347217)
  24 Fe ( 0.000000,  0.000000,  2.353958)
  25 Co ( 0.000000,  0.000000,  0.587504)
  26 Co ( 0.000000,  0.000000,  1.534632)
  27 Co ( 0.000000,  0.000000,  1.155162)
  28 Cr ( 0.000000,  0.000000, -1.399193)
  29 Fe ( 0.000000,  0.000000,  2.019255)
  30 Fe ( 0.000000,  0.000000,  1.668764)
  31 Co ( 0.000000,  0.000000,  1.382137)
  32 Fe ( 0.000000,  0.000000,  1.985406)
  33 Cr ( 0.000000,  0.000000, -0.626719)
  34 Fe ( 0.000000,  0.000000,  1.641573)
  35 Ni ( 0.000000,  0.000000,  0.437771)
  36 Ni ( 0.000000,  0.000000,  0.207742)
  37 Cr ( 0.000000,  0.000000,  0.232288)
  38 Fe ( 0.000000,  0.000000,  1.397084)
  39 Cr ( 0.000000,  0.000000,  0.447378)
  40 Fe ( 0.000000,  0.000000,  1.938388)
  41 Ni ( 0.000000,  0.000000,  0.150950)
  42 Co ( 0.000000,  0.000000,  0.985832)
  43 Ni ( 0.000000,  0.000000,  0.407704)
  44 Co ( 0.000000,  0.000000,  1.177331)
  45 Cr ( 0.000000,  0.000000,  0.117135)
  46 Ni ( 0.000000,  0.000000,  0.297870)
  47 Co ( 0.000000,  0.000000,  1.350158)
  48 Ni ( 0.000000,  0.000000,  0.353273)
  49 Fe ( 0.000000,  0.000000,  1.942658)
  50 Co ( 0.000000,  0.000000,  1.047260)
  51 Fe ( 0.000000,  0.000000,  2.328227)
  52 Cr ( 0.000000,  0.000000, -1.824770)
  53 Fe ( 0.000000,  0.000000,  1.877980)
  54 Cr ( 0.000000,  0.000000, -0.721538)
  55 Fe ( 0.000000,  0.000000,  2.319674)
  56 Co ( 0.000000,  0.000000,  1.341869)
  57 Co ( 0.000000,  0.000000,  1.044960)
  58 Co ( 0.000000,  0.000000,  1.178280)
  59 Cr ( 0.000000,  0.000000, -1.719378)
  60 Co ( 0.000000,  0.000000,  1.443340)
  61 Cr ( 0.000000,  0.000000, -1.501666)
  62 Co ( 0.000000,  0.000000,  1.115370)
  63 Fe ( 0.000000,  0.000000,  2.264768)
  64 Co ( 0.000000,  0.000000,  1.171144)
  65 Fe ( 0.000000,  0.000000,  2.057891)
  66 Ni ( 0.000000,  0.000000,  0.308014)
  67 Cr ( 0.000000,  0.000000, -2.061307)
  68 Fe ( 0.000000,  0.000000,  2.217209)
  69 Cr ( 0.000000,  0.000000, -1.997653)
  70 Cr ( 0.000000,  0.000000, -1.096986)
  71 Ni ( 0.000000,  0.000000,  0.474691)
  72 Ni ( 0.000000,  0.000000,  0.328534)
  73 Co ( 0.000000,  0.000000,  1.066305)
  74 Fe ( 0.000000,  0.000000,  1.330779)
  75 Fe ( 0.000000,  0.000000,  2.308664)
  76 Ni ( 0.000000,  0.000000,  0.631749)
  77 Ni ( 0.000000,  0.000000,  0.487560)
  78 Fe ( 0.000000,  0.000000,  2.233172)
  79 Co ( 0.000000,  0.000000,  1.420680)
  80 Co ( 0.000000,  0.000000,  1.133425)
  81 Fe ( 0.000000,  0.000000,  2.830707)
  82 Ni ( 0.000000,  0.000000,  0.610217)
  83 Co ( 0.000000,  0.000000,  1.471123)
  84 Fe ( 0.000000,  0.000000,  2.226674)
  85 Ni ( 0.000000,  0.000000,  0.380828)
  86 Ni ( 0.000000,  0.000000,  0.471538)
  87 Co ( 0.000000,  0.000000,  1.492028)
  88 Fe ( 0.000000,  0.000000,  2.214785)
  89 Fe ( 0.000000,  0.000000,  1.620425)
  90 Fe ( 0.000000,  0.000000,  2.082586)
  91 Co ( 0.000000,  0.000000,  1.472788)
  92 Ni ( 0.000000,  0.000000,  0.350007)
  93 Fe ( 0.000000,  0.000000,  2.215946)
  94 Fe ( 0.000000,  0.000000,  1.340212)
  95 Co ( 0.000000,  0.000000,  1.340968)
  96 Co ( 0.000000,  0.000000,  1.547383)
  97 Fe ( 0.000000,  0.000000,  2.711976)
  98 Co ( 0.000000,  0.000000,  1.279707)
  99 Fe ( 0.000000,  0.000000,  2.230605)
 100 Co ( 0.000000,  0.000000,  1.650202)
 101 Co ( 0.000000,  0.000000,  1.818707)
 102 Ni ( 0.000000,  0.000000,  0.609085)
 103 Fe ( 0.000000,  0.000000,  2.440649)
 104 Co ( 0.000000,  0.000000,  1.566154)
 105 Co ( 0.000000,  0.000000,  1.411995)
 106 Ni ( 0.000000,  0.000000,  0.655536)
 107 Fe ( 0.000000,  0.000000,  2.889222)
 108 Ni ( 0.000000,  0.000000,  0.522883)
 109 Cr ( 0.000000,  0.000000, -2.675037)
 110 Co ( 0.000000,  0.000000,  1.431783)
 111 Ni ( 0.000000,  0.000000,  0.573029)
 112 Ni ( 0.000000,  0.000000,  0.487536)
 113 Ni ( 0.000000,  0.000000,  0.311248)
 114 Cr ( 0.000000,  0.000000, -1.944760)
 115 Cr ( 0.000000,  0.000000,  1.751601)
 116 Ni ( 0.000000,  0.000000,  0.429917)
 117 Cr ( 0.000000,  0.000000, -2.608073)
 118 Co ( 0.000000,  0.000000,  1.102618)
 119 Cr ( 0.000000,  0.000000,  0.811651)
 120 Ni ( 0.000000,  0.000000,  0.483451)
 121 Ni ( 0.000000,  0.000000,  0.549315)
 122 Co ( 0.000000,  0.000000,  1.565052)
 123 Cr ( 0.000000,  0.000000, -2.378677)
 124 Cr ( 0.000000,  0.000000, -2.456055)

Energy contributions relative to reference atoms: (reference = -4451268.207082)

Kinetic:       +325.812547
Potential:     -361.935526
External:        +0.000000
XC:            -987.441614
Entropy (-ST):   -5.628495
Local:          +44.878988
--------------------------
Free energy:   -984.314099
Extrapolated:  -981.499852

Dipole-layer corrected work functions: 4.928913, 4.918614 eV

Spin contamination: 50.161530 electrons
Showing all kpts
                      Up                     Down
 Kpt  Band  Eigenvalues  Occupancy  Eigenvalues  Occupancy
  0   606     -0.04381    0.99732      0.89003    0.03172
  0   607     -0.03128    0.99696      0.90259    0.02808
  0   608     -0.02028    0.99661      0.91347    0.02525
  0   609     -0.00669    0.99612      0.92573    0.02241

  1   606     -0.02554    0.99679      0.89422    0.03045
  1   607     -0.01625    0.99647      0.90167    0.02833
  1   608      0.00068    0.99583      0.91649    0.02452
  1   609      0.00876    0.99548      0.92805    0.02190


Fermi level: 0.54816

No gap

Forces in eV/Ang:
  0 Cr   -0.86657   -0.84564   -1.08356
  1 Fe    1.38696   -1.06455   -0.20751
  2 Ni   -0.86785    0.59312   -1.34718
  3 Co    0.72411    0.40419   -0.81561
  4 Ni   -0.46953    0.15198    0.70113
  5 Cr   -0.11442    0.49532    0.12308
  6 Fe    0.46369   -0.03860   -0.78146
  7 Cr    0.25423   -0.06475    0.24039
  8 Cr    0.11338   -0.15035   -0.32946
  9 Cr   -0.47155    0.67891    0.09225
 10 Ni    0.18490   -0.07273    0.73654
 11 Cr   -0.52796    0.01585   -1.27736
 12 Cr    0.04992   -0.72648   -0.79576
 13 Cr    0.42129   -0.50627   -0.09597
 14 Fe   -0.29457    0.00489   -0.12302
 15 Cr   -0.05464   -0.16170   -0.29239
 16 Ni    0.38827    0.60612    0.89665
 17 Ni   -0.69251   -0.05655    0.53922
 18 Fe   -0.81444   -0.48741    0.12462
 19 Cr   -0.04884    0.17050   -0.13067
 20 Cr   -0.00990    0.25867   -0.12867
 21 Ni    0.04099    0.55308    0.13464
 22 Cr    0.25873    0.98772   -0.37553
 23 Ni   -1.77564    1.05295    0.14181
 24 Fe    1.65218    0.18428   -0.06809
 25 Co    0.73627   -2.08528    0.13976
 26 Co   -0.38990    0.41210    0.32640
 27 Co   -0.64079   -0.17021    0.72356
 28 Cr    0.65526   -0.69659   -0.29660
 29 Fe    0.23446   -0.05122    0.39107
 30 Fe   -0.94373   -0.32677    0.77050
 31 Co    1.14094   -1.31336    0.20726
 32 Fe    0.35308   -0.59955    0.64160
 33 Cr    0.58254   -0.91407    0.26909
 34 Fe    0.10459    0.09241    0.62591
 35 Ni   -1.01802    0.18785   -0.08326
 36 Ni   -0.48881   -0.69083    1.04580
 37 Cr    0.14672    0.57849    0.10365
 38 Fe    0.48401    0.54774    0.60742
 39 Cr   -0.94050   -0.12794   -0.00347
 40 Fe   -0.64416    1.16177    0.35450
 41 Ni   -0.52571    0.55075    1.10320
 42 Co    0.56498    0.18239    0.00350
 43 Ni    0.50774   -1.37468    0.76438
 44 Co    0.04944   -0.11817    0.91985
 45 Cr    0.64641    0.38439   -0.48080
 46 Ni   -0.29367    2.32554   -0.79823
 47 Co   -0.00233    0.77513   -0.04648
 48 Ni   -0.39138   -1.35766   -0.56088
 49 Fe    0.00818    0.81226    0.52365
 50 Co    1.06669    0.45494    0.33643
 51 Fe   -0.51834    0.95517   -0.10157
 52 Cr    0.97414    0.66994    0.55959
 53 Fe    1.15891   -0.18591   -1.49726
 54 Cr   -1.08327    0.38534    0.31293
 55 Fe    0.72626    1.07053    0.87551
 56 Co   -1.35527   -0.24846   -0.57207
 57 Co   -1.20792   -0.79901    0.18764
 58 Co    0.78259   -0.09389   -0.13921
 59 Cr   -0.86236    0.82608    0.48299
 60 Co    0.03036   -0.27491    0.53748
 61 Cr   -0.23066    0.49481    0.77259
 62 Co   -0.04942    0.07813    0.04100
 63 Fe    0.17689   -0.43215   -1.13294
 64 Co    0.41229   -0.54171   -0.89160
 65 Fe   -1.14422   -0.38027   -0.11690
 66 Ni    0.98176   -1.43689    0.21892
 67 Cr   -0.15995   -0.64805   -0.29152
 68 Fe    0.36101    0.25687   -1.16300
 69 Cr   -0.52140   -0.83199   -0.40314
 70 Cr    0.71787    0.23070    0.04071
 71 Ni    0.03567   -0.46581   -1.40167
 72 Ni   -0.30108    0.10386    0.08036
 73 Co    0.59652    0.99642    0.36976
 74 Fe   -0.64064   -0.13589   -0.07104
 75 Fe    0.16373   -0.21947   -0.72384
 76 Ni    1.35874   -0.72765   -0.58228
 77 Ni   -0.46330   -1.45209    0.88786
 78 Fe   -1.71252    0.08525   -0.36863
 79 Co    1.13357   -0.41081   -0.05374
 80 Co    1.46659    0.29324   -1.37642
 81 Fe   -0.00949    0.17591   -0.30650
 82 Ni    0.17226    0.97054   -0.78337
 83 Co    0.72647    1.07530    0.23512
 84 Fe   -0.30901    0.01815    0.08984
 85 Ni    0.59013    0.00363    0.49874
 86 Ni    0.40129   -0.52788    0.09991
 87 Co   -0.40257   -0.27223    0.08930
 88 Fe   -0.52212    0.53856    0.92437
 89 Fe   -0.67735   -0.16311    1.12005
 90 Fe    0.31231   -0.08142   -0.14867
 91 Co   -1.38276    0.08102   -0.02011
 92 Ni    0.40331    0.65409   -0.33793
 93 Fe    0.90737    0.17051    0.01010
 94 Fe    0.93170    0.62137   -0.24530
 95 Co   -0.70883    0.37500    0.05203
 96 Co   -0.13830   -0.18081    0.36386
 97 Fe    0.73799    0.16414    0.34942
 98 Co   -0.40591    0.58084   -0.00964
 99 Fe    0.55387   -0.32915    0.16325
100 Co   -0.06647   -0.64147   -0.69379
101 Co    0.01860   -0.32294   -0.82120
102 Ni   -1.13007    0.19862    0.17562
103 Fe    1.03588   -0.60257    0.20587
104 Co    0.47570   -0.63610   -0.88914
105 Co    0.03466   -0.18002    1.78022
106 Ni   -0.17298    0.16813   -0.79331
107 Fe   -0.62411    0.40352   -0.06028
108 Ni   -0.36455   -0.13674    0.76012
109 Cr   -0.05344   -0.20382   -0.25552
110 Co    0.13019   -0.57223   -0.28064
111 Ni   -0.29709    0.77746    0.22655
112 Ni   -0.37422    0.00466   -0.20392
113 Ni   -0.20713   -0.44478   -0.47154
114 Cr    0.18302    0.77576    0.31193
115 Cr    0.35923   -0.10846    0.35090
116 Ni   -0.06112    0.10946   -0.67345
117 Cr    0.04368   -0.85583    0.83424
118 Co    0.45363   -0.15350    0.20741
119 Cr   -0.62041   -0.01879   -0.31817
120 Ni   -0.26640    0.46774    0.94577
121 Ni    0.76339   -0.58587    0.38960
122 Co   -0.81290    0.24911   -0.82244
123 Cr   -0.48769    0.55995    0.11804
124 Cr    0.10310    0.08852   -0.12109

Timing:                              incl.     excl.
-----------------------------------------------------------
Forces:                             41.800    41.800   0.2% |
Hamiltonian:                         1.744     0.010   0.0% |
 Atomic:                             0.384     0.001   0.0% |
  XC Correction:                     0.383     0.383   0.0% |
 Calculate atomic Hamiltonians:      0.849     0.849   0.0% |
 Communicate:                        0.099     0.099   0.0% |
 Initialize Hamiltonian:             0.000     0.000   0.0% |
 Poisson:                            0.087     0.087   0.0% |
 XC 3D grid:                         0.314     0.314   0.0% |
LCAO initialization:               282.886     0.418   0.0% |
 LCAO eigensolver:                  14.186     0.011   0.0% |
  Calculate projections:             0.000     0.000   0.0% |
  DenseAtomicCorrection:             0.000     0.000   0.0% |
  Distribute overlap matrix:         8.815     8.815   0.0% |
  Orbital Layouts:                   5.328     5.328   0.0% |
  Potential matrix:                  0.003     0.003   0.0% |
  Sum over cells:                    0.028     0.028   0.0% |
 LCAO to grid:                     265.974   265.974   1.2% |
 Set positions (LCAO WFS):           2.308     2.018   0.0% |
  Basic WFS set positions:           0.004     0.004   0.0% |
  Basis functions set positions:     0.001     0.001   0.0% |
  P tci:                             0.000     0.000   0.0% |
  ST tci:                            0.113     0.113   0.0% |
  mktci:                             0.173     0.173   0.0% |
PWDescriptor:                        0.097     0.097   0.0% |
SCF-cycle:                       21701.611     1.291   0.0% |
 Davidson:                       21171.222  6805.844  30.9% |-----------|
  Apply H:                         345.912   340.534   1.5% ||
   HMM T:                            5.377     5.377   0.0% |
  Subspace diag:                  2284.065     0.046   0.0% |
   calc_h_matrix:                  908.386   603.168   2.7% ||
    Apply H:                       305.217   299.476   1.4% ||
     HMM T:                          5.741     5.741   0.0% |
   diagonalize:                    217.770   217.770   1.0% |
   rotate_psi:                    1157.863  1157.863   5.3% |-|
  calc. matrices:                 5324.640  4757.570  21.6% |--------|
   Apply H:                        567.071   556.514   2.5% ||
    HMM T:                          10.557    10.557   0.0% |
  diagonalize:                    3953.674  3953.674  17.9% |------|
  rotate_psi:                     2457.087  2457.087  11.2% |---|
 Density:                          285.706     0.004   0.0% |
  Atomic density matrices:           3.470     3.470   0.0% |
  Mix:                             129.577   129.577   0.6% |
  Multipole moments:                 0.092     0.092   0.0% |
  Pseudo density:                  152.564   152.557   0.7% |
   Symmetrize density:               0.007     0.007   0.0% |
 Hamiltonian:                      224.085     1.371   0.0% |
  Atomic:                           52.509     0.183   0.0% |
   XC Correction:                   52.325    52.325   0.2% |
  Calculate atomic Hamiltonians:   109.883   109.883   0.5% |
  Communicate:                      14.097    14.097   0.1% |
  Poisson:                           4.847     4.847   0.0% |
  XC 3D grid:                       41.378    41.378   0.2% |
 Orthonormalize:                    19.307     0.001   0.0% |
  calc_s_matrix:                     2.386     2.386   0.0% |
  inverse-cholesky:                  0.935     0.935   0.0% |
  projections:                      11.792    11.792   0.1% |
  rotate_psi_s:                      4.193     4.193   0.0% |
Set symmetry:                        0.001     0.001   0.0% |
Other:                               7.157     7.157   0.0% |
-----------------------------------------------------------
Total:                                     22035.295 100.0%

Date: Mon Apr 17 10:31:45 2023
