
  ___ ___ ___ _ _ _  
 |   |   |_  | | | | 
 | | | | | . | | | | 
 |__ |  _|___|_____|  22.8.0
 |___|_|             

User:   c.zeng@d0143
Date:   Sat Apr  8 05:16:03 2023
Arch:   x86_64
Pid:    63073
CWD:    /home/c.zeng/projects/hea-corrosion/hea-mlp/data-curation/volume/dft-jobs/144
Python: 3.8.1
gpaw:   /home/c.zeng/usr/installs/gpaw/source/gpaw-22.8.0/gpaw
_gpaw:  /home/c.zeng/usr/installs/gpaw/source/gpaw-22.8.0/
        _gpaw.cpython-38-x86_64-linux-gnu.so
ase:    /home/c.zeng/.local/lib/python3.8/site-packages/ase-3.22.1-py3.8.egg/ase (version 3.22.1)
numpy:  /shared/centos7/python/3.8.1/lib/python3.8/site-packages/numpy (version 1.17.4)
scipy:  /shared/centos7/python/3.8.1/lib/python3.8/site-packages/scipy (version 1.4.1)
libxc:  4.2.3
units:  Angstrom and eV
cores: 64
OpenMP: False
OMP_NUM_THREADS: 1

Input parameters:
  convergence: {energy: 0.0001}
  kpts: [2 2 2]
  maxiter: 666
  mode: {ecut: 350.0,
         name: pw}
  occupations: {fixmagmom: False,
                name: fermi-dirac,
                width: 0.1}
  spinpol: True
  xc: PBE

System changes: positions, numbers, cell, pbc, initial_charges, initial_magmoms 

Initialize ...

species:
  Al:
    name: Aluminium
    id: 0292cae29f5d6237e50f6abdd43a7bdd
    Z: 13.0
    valence: 3
    core: 10
    charge: 0.0
    file: /home/c.zeng/usr/data/gpaw-setups-0.9.20000/Al.PBE.gz
    compensation charges: {type: gauss,
                           rc: 0.34,
                           lmax: 2}
    cutoffs: {filter: 1.91,
              core: 2.36}
    valence states:
      #              energy  rcut
      - 3s(2.00)    -7.753   1.085
      - 3p(1.00)    -2.712   1.085
      -  s          19.459   1.085
      -  p          24.499   1.085
      -  d           0.000   1.085
  
    # Using partial waves for Al as LCAO basis

  Fe:
    name: Iron
    id: 37abbd8d6c3c35915a9b583b742da910
    Z: 26.0
    valence: 8
    core: 18
    charge: 0.0
    file: /home/c.zeng/usr/data/gpaw-setups-0.9.20000/Fe.PBE.gz
    compensation charges: {type: gauss,
                           rc: 0.33,
                           lmax: 2}
    cutoffs: {filter: 2.06,
              core: 2.67}
    valence states:
      #              energy  rcut
      - 4s(2.00)    -5.291   1.164
      - 4p(0.00)    -1.326   1.058
      - 3d(6.00)    -7.505   1.058
      -  s          21.920   1.164
      -  p          25.885   1.058
      -  d          19.706   1.058
  
    # Using partial waves for Fe as LCAO basis

  Cr:
    name: Chromium
    id: 33f258bda2ca9f93018e70263a35547b
    Z: 24.0
    valence: 6
    core: 18
    charge: 0.0
    file: /home/c.zeng/usr/data/gpaw-setups-0.9.20000/Cr.PBE.gz
    compensation charges: {type: gauss,
                           rc: 0.35,
                           lmax: 2}
    cutoffs: {filter: 2.14,
              core: 3.04}
    valence states:
      #              energy  rcut
      - 4s(1.00)    -4.007   1.164
      - 4p(0.00)    -0.989   1.217
      - 3d(5.00)    -2.913   1.111
      -  s          23.205   1.164
      -  p          26.223   1.217
      -  d          24.299   1.111
  
    # Using partial waves for Cr as LCAO basis

  Ni:
    name: Nickel
    id: 0d9f38a9d6e76a2886f07bb4381f212b
    Z: 28.0
    valence: 16
    core: 12
    charge: 0.0
    file: /home/c.zeng/usr/data/gpaw-setups-0.9.20000/Ni.PBE.gz
    compensation charges: {type: gauss,
                           rc: 0.36,
                           lmax: 2}
    cutoffs: {filter: 2.14,
              core: 1.98}
    valence states:
      #              energy  rcut
      - 4s(2.00)    -5.642   1.164
      - 3p(6.00)   -71.394   1.207
      - 4p(0.00)    -1.226   1.207
      - 3d(8.00)    -8.875   1.138
      -  s          21.570   1.164
      -  d          18.337   1.138
  
    # Using partial waves for Ni as LCAO basis

  Co:
    name: Cobalt
    id: 339d20d5b0b93d2de9531a1bee871d91
    Z: 27.0
    valence: 9
    core: 18
    charge: 0.0
    file: /home/c.zeng/usr/data/gpaw-setups-0.9.20000/Co.PBE.gz
    compensation charges: {type: gauss,
                           rc: 0.32,
                           lmax: 2}
    cutoffs: {filter: 1.87,
              core: 2.55}
    valence states:
      #              energy  rcut
      - 4s(2.00)    -5.469   1.005
      - 4p(0.00)    -1.277   1.058
      - 3d(7.00)    -8.205   1.005
      -  s          21.742   1.005
      -  p          25.934   1.058
      -  d          19.007   1.005
  
    # Using partial waves for Co as LCAO basis

Reference energy: -3235165.067515  # eV

Spin-polarized calculation.
Magnetic moment: 121.100000

Convergence criteria:
 Maximum [total energy] change in last 3 cyles: 0.0001 eV / electron
 Maximum integral of absolute [dens]ity change: 0.0001 electrons / valence electron
 Maximum integral of absolute [eigenst]ate change: 4e-08 eV^2 / valence electron
 Maximum number of scf [iter]ations: 666
 (Square brackets indicate name in SCF output, whereas a 'c' in
 the SCF output indicates the quantity has converged.)

Symmetries present (total): 1

  ( 1  0  0)
  ( 0  1  0)
  ( 0  0  1)

8 k-points: 2 x 2 x 2 Monkhorst-Pack grid
4 k-points in the irreducible part of the Brillouin zone
       k-points in crystal coordinates                weights
   0:     0.25000000   -0.25000000   -0.25000000          2/8
   1:     0.25000000   -0.25000000    0.25000000          2/8
   2:     0.25000000    0.25000000   -0.25000000          2/8
   3:     0.25000000    0.25000000    0.25000000          2/8

Wave functions: Plane wave expansion
  Cutoff energy: 350.000 eV
  Number of coefficients (min, max): 19084, 19084
  Pulay-stress correction: 0.000000 eV/Ang^3 (de/decut=0.000000)
  Using FFTW library
  ScaLapack parameters: grid=1x1, blocksize=None
  Wavefunction extrapolation:
    Improved wavefunction reuse through dual PAW basis 

Occupation numbers: Fermi-Dirac:
  width: 0.1000  # eV
 

Eigensolver
   Davidson(niter=2) 

Densities:
  Coarse grid: 48*48*48 grid
  Fine grid: 96*96*96 grid
  Total Charge: 0.000000 

Density mixing:
  Method: difference
  Backend: pulay
  Linear mixing parameter: 0.05
  old densities: 5
  Damping of long wavelength oscillations: 50 

Hamiltonian:
  XC and Coulomb potentials evaluated on a 96*96*96 grid
  Using the PBE Exchange-Correlation functional
  External potential:
    NoExternalPotential
 

XC parameters: PBE with 2 nearest neighbor stencil

Memory estimate:
  Process memory now: 176.07 MiB
  Calculator: 619.44 MiB
    Density: 5.13 MiB
      Arrays: 1.85 MiB
      Localized functions: 2.55 MiB
      Mixer: 0.74 MiB
    Hamiltonian: 1.45 MiB
      Arrays: 1.37 MiB
      XC: 0.00 MiB
      Poisson: 0.00 MiB
      vbar: 0.08 MiB
    Wavefunctions: 612.85 MiB
      Arrays psit_nG: 363.42 MiB
      Eigensolver: 242.60 MiB
      Projections: 2.19 MiB
      Projectors: 0.35 MiB
      PW-descriptor: 4.31 MiB

Total number of cores used: 64
Parallelization over k-points: 4
Domain decomposition: 4 x 2 x 2

Number of atoms: 108
Number of atomic orbitals: 933
Number of bands in calculation: 624
Number of valence electrons: 912
Bands to converge: occupied

... initialized

Initializing position-dependent things.

Density initialized from atomic densities
Creating initial wave functions:
  624 bands from LCAO basis set

        .--------Ni----------------.  
       /|           Ni             |  
      / |    CrFe     Co           |  
     / Al       Co       Ni        |  
    /   |Co      CoAl       Al     |  
   /    | FeFe      FCr            |  
  /    Cr  CorAlNi    Co Fe  CrCr  |  
 *      Cr     FeCoFe   CoNi     Al|  
 |      |AlAl   NiNiFe   NiFeAl   Cr  
 |      | FeCr   AlCoCrNi AlFeCr   |  
 |     Co  Fe NiCr  CrCr Fe  CrFe  |  
 |      Al  Cr AlNiNi AlNiNiCo   Co|  
 |      |CoAl   NiCoCo   CrCrCo   Al  
 |      .-NiCo-----NiAl-Cr--FeFe---.  
 |     Ni  Cr AlAl    Co Ni  Ni Co/   
 |    / Cr              Co       Ni   
 |   /           Fee      AlFe  /     
 |  /      Al       Co     FeFe/      
 | /                   Ni     /e      
 |/                          /        
 *--------------------------Al        

Positions:
   0 Al    10.797848    0.093654    0.085780    ( 0.0000,  0.0000,  0.0000)
   1 Fe    10.831824    1.844742    1.870716    ( 0.0000,  0.0000,  2.0000)
   2 Cr     1.786803   10.847372    1.827346    ( 0.0000,  0.0000,  0.0000)
   3 Cr     1.769614    1.870542   -0.031265    ( 0.0000,  0.0000,  0.0000)
   4 Ni     3.620857   10.822050   10.833629    ( 0.0000,  0.0000,  1.5000)
   5 Al     3.571246    1.883176    1.708402    ( 0.0000,  0.0000,  0.0000)
   6 Al     5.521113   10.788052    1.666217    ( 0.0000,  0.0000,  0.0000)
   7 Ni     5.520831    1.813962   10.830911    ( 0.0000,  0.0000,  1.5000)
   8 Fe     7.330846    0.011023   10.815668    ( 0.0000,  0.0000,  2.0000)
   9 Co     7.282018    1.809483    1.793250    ( 0.0000,  0.0000,  2.1000)
  10 Ni     9.030007    0.022005    1.811929    ( 0.0000,  0.0000,  1.5000)
  11 Fe     9.007196    1.868639   10.825714    ( 0.0000,  0.0000,  2.0000)
  12 Fe    10.861310    3.649723    0.014170    ( 0.0000,  0.0000,  2.0000)
  13 Co    10.867442    5.463457    1.819235    ( 0.0000,  0.0000,  2.1000)
  14 Cr     1.756088    3.650267    1.845949    ( 0.0000,  0.0000,  0.0000)
  15 Co     1.790358    5.439081   10.869084    ( 0.0000,  0.0000,  2.1000)
  16 Fe     3.687842    3.622792   -0.049290    ( 0.0000,  0.0000,  2.0000)
  17 Al     3.667347    5.391145    1.745357    ( 0.0000,  0.0000,  0.0000)
  18 Fe     5.497988    3.634426    1.792370    ( 0.0000,  0.0000,  2.0000)
  19 Fe     5.524908    5.448029    0.002549    ( 0.0000,  0.0000,  2.0000)
  20 Cr     7.223340    3.611877   10.834270    ( 0.0000,  0.0000,  0.0000)
  21 Co     7.217762    5.474830    1.807776    ( 0.0000,  0.0000,  2.1000)
  22 Al     9.073442    3.654355    1.775148    ( 0.0000,  0.0000,  0.0000)
  23 Fe     9.008740    5.418608    0.007690    ( 0.0000,  0.0000,  2.0000)
  24 Ni    10.859201    7.178720    0.014480    ( 0.0000,  0.0000,  1.5000)
  25 Al    -0.018105    8.970937    1.875402    ( 0.0000,  0.0000,  0.0000)
  26 Ni     1.817615    7.224025    1.802546    ( 0.0000,  0.0000,  1.5000)
  27 Cr     1.880719    8.993475   10.874031    ( 0.0000,  0.0000,  0.0000)
  28 Fe     3.684428    7.260447   -0.001357    ( 0.0000,  0.0000,  2.0000)
  29 Ni     3.612605    9.025636    1.761807    ( 0.0000,  0.0000,  1.5000)
  30 Ni     5.481440    7.275114    1.811211    ( 0.0000,  0.0000,  1.5000)
  31 Ni     5.461250    9.048153   10.833988    ( 0.0000,  0.0000,  1.5000)
  32 Co     7.245704    7.257881    0.056891    ( 0.0000,  0.0000,  2.1000)
  33 Cr     7.301969    9.004609    1.790315    ( 0.0000,  0.0000,  0.0000)
  34 Fe     9.029354    7.181764    1.815549    ( 0.0000,  0.0000,  2.0000)
  35 Ni     9.030561    9.042010    0.020234    ( 0.0000,  0.0000,  1.5000)
  36 Fe    -0.031049    0.001949    3.645701    ( 0.0000,  0.0000,  2.0000)
  37 Co    10.825910    1.804362    5.434602    ( 0.0000,  0.0000,  2.1000)
  38 Cr     1.743552   10.849296    5.484376    ( 0.0000,  0.0000,  0.0000)
  39 Ni     1.769755    1.791891    3.636068    ( 0.0000,  0.0000,  1.5000)
  40 Al     3.516667   10.719828    3.663227    ( 0.0000,  0.0000,  0.0000)
  41 Al     3.644244    1.785205    5.586728    ( 0.0000,  0.0000,  0.0000)
  42 Cr     5.484789   10.815439    5.504022    ( 0.0000,  0.0000,  0.0000)
  43 Al     5.457934    1.842230    3.658769    ( 0.0000,  0.0000,  0.0000)
  44 Al     7.360615   10.815439    3.672229    ( 0.0000,  0.0000,  0.0000)
  45 Co     7.266884    1.811614    5.485528    ( 0.0000,  0.0000,  2.1000)
  46 Cr     9.077986    0.023591    5.491921    ( 0.0000,  0.0000,  0.0000)
  47 Ni     9.066777    1.824226    3.671175    ( 0.0000,  0.0000,  1.5000)
  48 Fe    -0.047136    3.649615    3.617291    ( 0.0000,  0.0000,  2.0000)
  49 Fe    10.809253    5.435983    5.379805    ( 0.0000,  0.0000,  2.0000)
  50 Al     1.752316    3.624989    5.344676    ( 0.0000,  0.0000,  0.0000)
  51 Co     1.805786    5.472046    3.619389    ( 0.0000,  0.0000,  2.1000)
  52 Co     3.649408    3.633491    3.631251    ( 0.0000,  0.0000,  2.1000)
  53 Ni     3.657628    5.433797    5.434015    ( 0.0000,  0.0000,  1.5000)
  54 Ni     5.413368    3.672642    5.480309    ( 0.0000,  0.0000,  1.5000)
  55 Co     5.413835    5.465588    3.639666    ( 0.0000,  0.0000,  2.1000)
  56 Al     7.223449    3.731734    3.720829    ( 0.0000,  0.0000,  0.0000)
  57 Cr     7.220557    5.483180    5.485572    ( 0.0000,  0.0000,  0.0000)
  58 Ni     9.069039    3.623673    5.469720    ( 0.0000,  0.0000,  1.5000)
  59 Cr     9.064766    5.503837    3.636731    ( 0.0000,  0.0000,  0.0000)
  60 Co    -0.007800    7.208303    3.671501    ( 0.0000,  0.0000,  2.1000)
  61 Cr    -0.032909    9.095361    5.398690    ( 0.0000,  0.0000,  0.0000)
  62 Fe     1.823693    7.248716    5.440766    ( 0.0000,  0.0000,  2.0000)
  63 Fe     1.739856    8.989170    3.676448    ( 0.0000,  0.0000,  2.0000)
  64 Al     3.645353    7.306090    3.692343    ( 0.0000,  0.0000,  0.0000)
  65 Ni     3.652300    9.051545    5.521635    ( 0.0000,  0.0000,  1.5000)
  66 Co     5.474253    7.265362    5.482886    ( 0.0000,  0.0000,  2.1000)
  67 Cr     5.473601    9.034877    3.664390    ( 0.0000,  0.0000,  0.0000)
  68 Ni     7.218436    7.243160    3.634643    ( 0.0000,  0.0000,  1.5000)
  69 Ni     7.240823    9.039172    5.472851    ( 0.0000,  0.0000,  1.5000)
  70 Fe     8.972600    7.234060    5.399136    ( 0.0000,  0.0000,  2.0000)
  71 Cr     9.065505    8.978221    3.651180    ( 0.0000,  0.0000,  0.0000)
  72 Co    10.856755    0.017917    7.210891    ( 0.0000,  0.0000,  2.1000)
  73 Al    10.824670    1.882186    8.982799    ( 0.0000,  0.0000,  0.0000)
  74 Cr     1.860768   10.856646    9.009784    ( 0.0000,  0.0000,  0.0000)
  75 Co     1.767189    1.801926    7.237202    ( 0.0000,  0.0000,  2.1000)
  76 Co     3.637144   10.797772    7.275701    ( 0.0000,  0.0000,  2.1000)
  77 Al     3.668032    1.775833    9.018743    ( 0.0000,  0.0000,  0.0000)
  78 Co     5.482495   10.845165    9.071409    ( 0.0000,  0.0000,  2.1000)
  79 Cr     5.527517    1.773408    7.253489    ( 0.0000,  0.0000,  0.0000)
  80 Ni     7.260502    0.005379    7.255185    ( 0.0000,  0.0000,  1.5000)
  81 Fe     7.265112    1.802383    9.014883    ( 0.0000,  0.0000,  2.0000)
  82 Ni     9.024788    0.026384    9.025244    ( 0.0000,  0.0000,  1.5000)
  83 Fe     9.016296    1.814658    7.226449    ( 0.0000,  0.0000,  2.0000)
  84 Cr    10.804426    3.613888    7.198159    ( 0.0000,  0.0000,  0.0000)
  85 Cr    10.834662    5.395809    9.098948    ( 0.0000,  0.0000,  0.0000)
  86 Cr     1.818746    3.628870    9.065668    ( 0.0000,  0.0000,  0.0000)
  87 Al     1.809776    5.464294    7.231157    ( 0.0000,  0.0000,  0.0000)
  88 Cr     3.671588    3.637100    7.249553    ( 0.0000,  0.0000,  0.0000)
  89 Al     3.679546    5.412074    9.119606    ( 0.0000,  0.0000,  0.0000)
  90 Co     5.499651    3.591088    9.044978    ( 0.0000,  0.0000,  2.1000)
  91 Ni     5.468306    5.448464    7.223046    ( 0.0000,  0.0000,  1.5000)
  92 Cr     7.241888    3.617400    7.225112    ( 0.0000,  0.0000,  0.0000)
  93 Co     7.214631    5.385893    9.048577    ( 0.0000,  0.0000,  2.1000)
  94 Ni     8.994291    3.655975    9.039237    ( 0.0000,  0.0000,  1.5000)
  95 Fe     9.006577    5.423262    7.223307    ( 0.0000,  0.0000,  2.0000)
  96 Al    -0.070637    7.291945    7.110419    ( 0.0000,  0.0000,  0.0000)
  97 Al     0.073012    9.104580    9.068364    ( 0.0000,  0.0000,  0.0000)
  98 Fe     1.863247    7.257392    9.054785    ( 0.0000,  0.0000,  2.0000)
  99 Co     1.858343    9.053708    7.225808    ( 0.0000,  0.0000,  2.1000)
 100 Fe     3.683906    7.292467    7.235550    ( 0.0000,  0.0000,  2.0000)
 101 Co     3.628218    9.069550    9.051262    ( 0.0000,  0.0000,  2.1000)
 102 Al     5.530605    7.331890    9.040129    ( 0.0000,  0.0000,  0.0000)
 103 Fe     5.476232    9.097209    7.250456    ( 0.0000,  0.0000,  2.0000)
 104 Co     7.256827    7.264242    7.208456    ( 0.0000,  0.0000,  2.1000)
 105 Ni     7.272559    9.136437    9.056861    ( 0.0000,  0.0000,  1.5000)
 106 Al     8.936493    7.190875    9.109767    ( 0.0000,  0.0000,  0.0000)
 107 Cr     8.994682    9.112169    7.218480    ( 0.0000,  0.0000,  0.0000)

Unit cell:
           periodic     x           y           z      points  spacing
  1. axis:    yes   10.872400    0.000000    0.000000    48     0.2265
  2. axis:    yes    0.000000   10.872400    0.000000    48     0.2265
  3. axis:    yes    0.000000    0.000000   10.872400    48     0.2265

  Lengths:  10.872400  10.872400  10.872400
  Angles:   90.000000  90.000000  90.000000

Effective grid spacing dv^(1/3) = 0.2265

     iter     time        total  log10-change:  magmom
                         energy  eigst   dens
iter:   1 05:18:02  -974.537408                  +121.3860
iter:   2 05:18:48  -859.630655  -0.18  -1.16    +64.8611
iter:   3 05:19:36  -844.854270  -0.85  -1.20    +55.9876
iter:   4 05:20:24  -831.561578  -1.24  -1.26    +51.9976
iter:   5 05:21:14  -819.838912  -1.54  -1.29    +49.8278
iter:   6 05:22:03  -813.402222  -1.35  -1.35    +50.1046
iter:   7 05:22:53  -816.006423  -1.35  -1.48    +49.5105
iter:   8 05:23:44  -810.726638  -1.66  -1.52    +50.0357
iter:   9 05:24:34  -806.639642  -2.07  -1.64    +51.0666
iter:  10 05:25:26  -806.648677  -2.52  -1.77    +51.9930
iter:  11 05:26:16  -807.110902  -2.50  -1.80    +53.0120
iter:  12 05:27:08  -808.028470  -2.40  -1.85    +54.2342
iter:  13 05:27:59  -807.869335  -2.52  -1.87    +54.6390
iter:  14 05:28:51  -807.630996  -2.68  -1.93    +55.3420
iter:  15 05:29:40  -807.607098  -2.92  -1.99    +55.7685
iter:  16 05:30:30  -807.863137  -2.94  -2.04    +56.0243
iter:  17 05:31:18  -807.833492  -2.87  -2.08    +56.4314
iter:  18 05:32:08  -807.639582  -3.10  -2.14    +56.3517
iter:  19 05:32:56  -807.746148  -3.16  -2.25    +56.3987
iter:  20 05:33:44  -807.730773  -3.30  -2.28    +56.4181
iter:  21 05:34:33  -807.722888c -3.38  -2.33    +56.2465
iter:  22 05:35:23  -807.780602c -3.35  -2.40    +56.0924
iter:  23 05:36:11  -807.782769c -3.64  -2.43    +56.0194
iter:  24 05:37:02  -807.821411c -3.70  -2.48    +55.7082
iter:  25 05:37:49  -807.885656  -3.70  -2.51    +55.4704
iter:  26 05:38:37  -807.912471c -3.88  -2.53    +55.3058
iter:  27 05:39:25  -807.932610c -3.87  -2.56    +54.9763
iter:  28 05:40:13  -807.990949c -3.96  -2.62    +54.7004
iter:  29 05:41:00  -808.017432c -4.00  -2.64    +54.4995
iter:  30 05:41:49  -808.046301c -4.19  -2.67    +54.1545
iter:  31 05:42:36  -808.092071c -4.11  -2.71    +53.8362
iter:  32 05:43:25  -808.134345c -4.21  -2.74    +53.4683
iter:  33 05:44:13  -808.186172  -4.08  -2.77    +52.9930
iter:  34 05:45:00  -808.255812  -3.83  -2.80    +52.3406
iter:  35 05:45:48  -808.290461  -4.00  -2.81    +52.0035
iter:  36 05:46:37  -808.337863c -3.92  -2.81    +51.5602
iter:  37 05:47:24  -808.377887c -3.94  -2.75    +51.1969
iter:  38 05:48:13  -808.364644c -4.12  -2.75    +51.1694
iter:  39 05:49:02  -808.359696c -4.39  -2.87    +51.1616
iter:  40 05:49:49  -808.362598c -4.85  -2.91    +51.1267
iter:  41 05:50:36  -808.371266c -4.54  -2.93    +51.1123
iter:  42 05:51:23  -808.361941c -4.50  -2.92    +51.1239
iter:  43 05:52:11  -808.363596c -5.09  -2.99    +51.1273
iter:  44 05:53:00  -808.364342c -4.86  -3.01    +51.0903
iter:  45 05:53:46  -808.366004c -4.77  -3.06    +51.0985
iter:  46 05:54:34  -808.362075c -4.88  -3.13    +51.1143
iter:  47 05:55:21  -808.363382c -5.07  -3.21    +51.1012
iter:  48 05:56:09  -808.362149c -5.23  -3.26    +51.1129
iter:  49 05:56:57  -808.365872c -5.05  -3.34    +51.1429
iter:  50 05:57:44  -808.363466c -5.28  -3.34    +51.1310
iter:  51 05:58:31  -808.363305c -5.46  -3.44    +51.1288
iter:  52 05:59:18  -808.363968c -5.76  -3.52    +51.1431
iter:  53 06:00:06  -808.364108c -5.80  -3.57    +51.1481
iter:  54 06:00:54  -808.365639c -5.92  -3.59    +51.1473
iter:  55 06:01:41  -808.365407c -5.77  -3.61    +51.1492
iter:  56 06:02:28  -808.365599c -6.06  -3.69    +51.1382
iter:  57 06:03:15  -808.366354c -6.08  -3.76    +51.1403
iter:  58 06:04:04  -808.366735c -6.11  -3.80    +51.1309
iter:  59 06:04:51  -808.367055c -6.32  -3.78    +51.1280
iter:  60 06:05:39  -808.367450c -6.25  -3.87    +51.1222
iter:  61 06:06:27  -808.368309c -6.35  -3.92    +51.1182
iter:  62 06:07:15  -808.368184c -6.48  -3.95    +51.1146
iter:  63 06:08:03  -808.368856c -6.40  -4.00    +51.1107
iter:  64 06:08:55  -808.369503c -6.29  -4.06c   +51.1031
iter:  65 06:09:43  -808.369700c -6.57  -4.05c   +51.1054
iter:  66 06:10:31  -808.369971c -6.65  -4.11c   +51.1005
iter:  67 06:11:20  -808.370474c -6.44  -4.19c   +51.0941
iter:  68 06:12:08  -808.371001c -6.34  -4.18c   +51.0924
iter:  69 06:12:57  -808.371653c -6.32  -4.21c   +51.0910
iter:  70 06:13:46  -808.373744c -5.51  -4.16c   +51.0947
iter:  71 06:14:34  -808.373477c -6.68  -3.96    +51.1031
iter:  72 06:15:26  -808.373637c -6.90  -3.99    +51.1119
iter:  73 06:16:15  -808.374023c -6.49  -3.98    +51.1292
iter:  74 06:17:02  -808.374124c -6.53  -3.94    +51.1397
iter:  75 06:17:49  -808.374504c -6.39  -3.93    +51.1397
iter:  76 06:18:38  -808.373867c -6.48  -3.86    +51.1366
iter:  77 06:19:27  -808.373928c -6.62  -3.88    +51.1303
iter:  78 06:20:17  -808.373664c -5.79  -3.84    +51.1315
iter:  79 06:21:05  -808.373760c -6.28  -3.75    +51.1247
iter:  80 06:21:51  -808.373741c -6.82  -3.99    +51.1135
iter:  81 06:22:38  -808.373593c -6.67  -4.05c   +51.1103
iter:  82 06:23:26  -808.373413c -6.64  -3.99    +51.1033
iter:  83 06:24:17  -808.374105c -6.31  -4.04c   +51.0997
iter:  84 06:25:06  -808.374303c -6.15  -3.99    +51.0983
iter:  85 06:25:56  -808.373430c -6.33  -3.94    +51.0955
iter:  86 06:26:45  -808.373500c -6.59  -4.15c   +51.0946
iter:  87 06:27:35  -808.373555c -6.65  -4.18c   +51.0913
iter:  88 06:28:24  -808.373570c -6.98  -4.20c   +51.0950
iter:  89 06:29:11  -808.373339c -7.38  -4.33c   +51.0930
iter:  90 06:30:00  -808.373318c -7.47c -4.40c   +51.0915

Converged after 90 iterations.

Dipole moment: (29.758890, 17.236862, 7.636489) |e|*Ang

Total magnetic moment: (0.000000, 0.000000, 51.091487)
Local magnetic moments:
   0 Al ( 0.000000,  0.000000, -0.004723)
   1 Fe ( 0.000000,  0.000000,  2.091196)
   2 Cr ( 0.000000,  0.000000, -2.125418)
   3 Cr ( 0.000000,  0.000000,  1.611663)
   4 Ni ( 0.000000,  0.000000,  0.066326)
   5 Al ( 0.000000,  0.000000, -0.009338)
   6 Al ( 0.000000,  0.000000, -0.014673)
   7 Ni ( 0.000000,  0.000000,  0.302562)
   8 Fe ( 0.000000,  0.000000,  2.327953)
   9 Co ( 0.000000,  0.000000,  0.956807)
  10 Ni ( 0.000000,  0.000000,  0.253760)
  11 Fe ( 0.000000,  0.000000,  2.058828)
  12 Fe ( 0.000000,  0.000000,  2.062422)
  13 Co ( 0.000000,  0.000000,  1.328482)
  14 Cr ( 0.000000,  0.000000, -2.062207)
  15 Co ( 0.000000,  0.000000,  0.944964)
  16 Fe ( 0.000000,  0.000000,  2.064293)
  17 Al ( 0.000000,  0.000000, -0.037871)
  18 Fe ( 0.000000,  0.000000,  2.247625)
  19 Fe ( 0.000000,  0.000000,  2.203701)
  20 Cr ( 0.000000,  0.000000, -1.947728)
  21 Co ( 0.000000,  0.000000,  1.129448)
  22 Al ( 0.000000,  0.000000, -0.035470)
  23 Fe ( 0.000000,  0.000000,  2.193102)
  24 Ni ( 0.000000,  0.000000,  0.082399)
  25 Al ( 0.000000,  0.000000, -0.013678)
  26 Ni ( 0.000000,  0.000000,  0.296881)
  27 Cr ( 0.000000,  0.000000, -1.293632)
  28 Fe ( 0.000000,  0.000000,  2.356997)
  29 Ni ( 0.000000,  0.000000,  0.206173)
  30 Ni ( 0.000000,  0.000000,  0.322467)
  31 Ni ( 0.000000,  0.000000,  0.268405)
  32 Co ( 0.000000,  0.000000,  1.189924)
  33 Cr ( 0.000000,  0.000000, -2.024075)
  34 Fe ( 0.000000,  0.000000,  2.091356)
  35 Ni ( 0.000000,  0.000000,  0.164274)
  36 Fe ( 0.000000,  0.000000,  1.912336)
  37 Co ( 0.000000,  0.000000,  0.840914)
  38 Cr ( 0.000000,  0.000000, -1.714643)
  39 Ni ( 0.000000,  0.000000, -0.006534)
  40 Al ( 0.000000,  0.000000,  0.001874)
  41 Al ( 0.000000,  0.000000, -0.000230)
  42 Cr ( 0.000000,  0.000000, -1.776006)
  43 Al ( 0.000000,  0.000000, -0.005427)
  44 Al ( 0.000000,  0.000000, -0.003463)
  45 Co ( 0.000000,  0.000000,  0.266752)
  46 Cr ( 0.000000,  0.000000, -1.626391)
  47 Ni ( 0.000000,  0.000000,  0.234031)
  48 Fe ( 0.000000,  0.000000,  2.200254)
  49 Fe ( 0.000000,  0.000000,  1.961693)
  50 Al ( 0.000000,  0.000000, -0.029913)
  51 Co ( 0.000000,  0.000000,  1.266210)
  52 Co ( 0.000000,  0.000000,  1.023059)
  53 Ni ( 0.000000,  0.000000,  0.361409)
  54 Ni ( 0.000000,  0.000000,  0.098111)
  55 Co ( 0.000000,  0.000000,  1.144652)
  56 Al ( 0.000000,  0.000000, -0.009640)
  57 Cr ( 0.000000,  0.000000, -1.509199)
  58 Ni ( 0.000000,  0.000000,  0.119088)
  59 Cr ( 0.000000,  0.000000, -1.688372)
  60 Co ( 0.000000,  0.000000,  1.018073)
  61 Cr ( 0.000000,  0.000000, -1.081549)
  62 Fe ( 0.000000,  0.000000,  2.206840)
  63 Fe ( 0.000000,  0.000000,  2.135151)
  64 Al ( 0.000000,  0.000000, -0.028518)
  65 Ni ( 0.000000,  0.000000,  0.329244)
  66 Co ( 0.000000,  0.000000,  1.079602)
  67 Cr ( 0.000000,  0.000000,  2.097417)
  68 Ni ( 0.000000,  0.000000,  0.171367)
  69 Ni ( 0.000000,  0.000000,  0.183821)
  70 Fe ( 0.000000,  0.000000,  1.667555)
  71 Cr ( 0.000000,  0.000000,  1.217956)
  72 Co ( 0.000000,  0.000000,  0.478094)
  73 Al ( 0.000000,  0.000000, -0.014420)
  74 Cr ( 0.000000,  0.000000, -1.878209)
  75 Co ( 0.000000,  0.000000,  0.058275)
  76 Co ( 0.000000,  0.000000,  0.964340)
  77 Al ( 0.000000,  0.000000, -0.021017)
  78 Co ( 0.000000,  0.000000,  1.348997)
  79 Cr ( 0.000000,  0.000000,  0.972304)
  80 Ni ( 0.000000,  0.000000,  0.321478)
  81 Fe ( 0.000000,  0.000000,  2.061250)
  82 Ni ( 0.000000,  0.000000,  0.246883)
  83 Fe ( 0.000000,  0.000000,  2.156142)
  84 Cr ( 0.000000,  0.000000, -1.415114)
  85 Cr ( 0.000000,  0.000000, -1.489108)
  86 Cr ( 0.000000,  0.000000, -1.544876)
  87 Al ( 0.000000,  0.000000, -0.019179)
  88 Cr ( 0.000000,  0.000000,  1.705587)
  89 Al ( 0.000000,  0.000000, -0.045384)
  90 Co ( 0.000000,  0.000000,  1.079363)
  91 Ni ( 0.000000,  0.000000,  0.179539)
  92 Cr ( 0.000000,  0.000000, -1.651839)
  93 Co ( 0.000000,  0.000000,  1.278917)
  94 Ni ( 0.000000,  0.000000,  0.223433)
  95 Fe ( 0.000000,  0.000000,  1.985748)
  96 Al ( 0.000000,  0.000000, -0.033087)
  97 Al ( 0.000000,  0.000000, -0.008821)
  98 Fe ( 0.000000,  0.000000,  2.060970)
  99 Co ( 0.000000,  0.000000,  1.034463)
 100 Fe ( 0.000000,  0.000000,  2.328817)
 101 Co ( 0.000000,  0.000000,  1.220390)
 102 Al ( 0.000000,  0.000000, -0.046167)
 103 Fe ( 0.000000,  0.000000,  2.333143)
 104 Co ( 0.000000,  0.000000,  1.113586)
 105 Ni ( 0.000000,  0.000000,  0.321900)
 106 Al ( 0.000000,  0.000000, -0.029671)
 107 Cr ( 0.000000,  0.000000,  1.513487)

Energy contributions relative to reference atoms: (reference = -3235165.067515)

Kinetic:       +244.492803
Potential:     -238.423832
External:        +0.000000
XC:            -843.786505
Entropy (-ST):   -3.918996
Local:          +31.303714
--------------------------
Free energy:   -810.332817
Extrapolated:  -808.373318

Spin contamination: 32.123172 electrons
Showing only first 2 kpts
                      Up                     Down
 Kpt  Band  Eigenvalues  Occupancy  Eigenvalues  Occupancy
  0   454      9.01914    0.99493      9.88114    0.03419
  0   455      9.03856    0.99385      9.88904    0.03168
  0   456      9.05336    0.99287      9.90371    0.02747
  0   457      9.07661    0.99102      9.91594    0.02439

  1   454      9.02421    0.99467      9.87279    0.03706
  1   455      9.04278    0.99358      9.88165    0.03402
  1   456      9.05772    0.99256      9.89366    0.03029
  1   457      9.07307    0.99133      9.90993    0.02586


Fermi level: 9.54703

No gap

Forces in eV/Ang:
  0 Al   -0.43150   -0.60104   -0.36898
  1 Fe    0.26684    0.01233    0.21760
  2 Cr   -0.09805    0.20502   -0.24665
  3 Cr    0.09744   -0.29507   -0.42240
  4 Ni   -0.22200    0.18176    0.04573
  5 Al    0.49257   -0.12051    0.26791
  6 Al   -0.67392    0.24489   -0.29850
  7 Ni   -0.27827   -0.12875    0.14311
  8 Fe    0.20397   -0.01614   -0.01818
  9 Co   -0.14871    0.11878    0.18691
 10 Ni    0.03111   -0.11525    0.12587
 11 Fe   -0.17176    0.10563    0.40396
 12 Fe   -0.02946    0.32407   -0.16448
 13 Co    0.57396    0.05367    0.00084
 14 Cr   -0.85893   -0.02631   -0.12284
 15 Co   -0.12284   -0.15533   -0.10704
 16 Fe    0.02964    0.31214    0.01692
 17 Al   -0.06933    0.36367    0.35378
 18 Fe    0.08986   -0.08873    0.11144
 19 Fe    0.30479   -0.06032   -0.11526
 20 Cr   -0.41147    0.06787   -0.18721
 21 Co   -0.11164   -0.03704    0.24336
 22 Al   -0.11339   -0.24743    0.36792
 23 Fe   -0.14790   -0.00741   -0.19282
 24 Ni    0.21714    0.34067   -0.29141
 25 Al   -0.25823   -0.34534   -0.57940
 26 Ni    0.00448   -0.22341    0.08272
 27 Cr    0.29234   -0.09794   -0.22453
 28 Fe   -0.42624    0.30150   -0.06234
 29 Ni    0.15422    0.11277    0.45633
 30 Ni   -0.30089   -0.28580   -0.12829
 31 Ni   -0.01991    0.03158    0.09701
 32 Co   -0.02435   -0.14767    0.24677
 33 Cr    0.34268   -0.36841   -0.20306
 34 Fe   -0.24578   -0.34743   -0.15816
 35 Ni    0.56235    0.16606   -0.28462
 36 Fe    0.15817    0.48148    0.18774
 37 Co    0.23537   -0.39267    0.16653
 38 Cr   -0.80226   -0.10192    0.74545
 39 Ni    0.24201   -0.12799   -0.00083
 40 Al    0.50907    0.14144    0.04544
 41 Al   -0.50042   -0.07296   -0.68102
 42 Cr   -0.00535   -0.03383    0.03606
 43 Al    0.19605    0.25560    0.24670
 44 Al   -0.04762    0.79375   -0.20577
 45 Co   -0.30355   -0.22871   -0.11591
 46 Cr    0.29406    0.11158    0.36743
 47 Ni    0.03956    0.04490   -0.41015
 48 Fe   -0.07313    0.07119   -0.06683
 49 Fe    0.03256   -0.12036    0.08449
 50 Al    0.41939   -0.14760   -0.33157
 51 Co   -0.18297   -0.09712    0.12270
 52 Co    0.03943    0.18197   -0.23154
 53 Ni   -0.11577   -0.01716    0.09868
 54 Ni    0.27957   -0.28725   -0.27752
 55 Co    0.03430   -0.13940   -0.07431
 56 Al    0.21920   -0.70456   -0.28607
 57 Cr   -0.29250    0.99479    0.31032
 58 Ni   -0.29244    0.11619   -0.12150
 59 Cr    0.56567    0.66268    0.14386
 60 Co    0.04099   -0.18446   -0.05047
 61 Cr    0.05908    0.04877   -0.27690
 62 Fe   -0.27586    0.09242   -0.04109
 63 Fe   -0.11663    0.08450    0.09264
 64 Al   -0.16450   -0.35679   -0.26503
 65 Ni   -0.42704    0.23325   -0.02306
 66 Co    0.04684   -0.22488    0.22110
 67 Cr    0.80939    0.15741    0.14480
 68 Ni   -0.01559   -0.14639    0.14305
 69 Ni    0.24722    0.07440   -0.15872
 70 Fe    0.08405   -0.31143   -0.26865
 71 Cr   -0.16641   -0.19070    0.82026
 72 Co    0.37550   -0.20259   -0.30262
 73 Al   -0.42748   -0.57531    0.04210
 74 Cr    0.09140    0.17341    0.10950
 75 Co    0.05041    0.34974   -0.08464
 76 Co   -0.05358   -0.25390    0.07226
 77 Al    0.44085   -0.20352    0.43918
 78 Co   -0.04122   -0.23019   -0.02270
 79 Cr    0.49373    0.09572    0.01919
 80 Ni   -0.21595   -0.05140   -0.29624
 81 Fe   -0.15242    0.14858    0.22645
 82 Ni    0.44396   -0.05002    0.29441
 83 Fe    0.15800    0.14758   -0.33861
 84 Cr   -0.33063    0.36913   -0.41144
 85 Cr    0.30782   -0.11071    0.48286
 86 Cr    0.01062   -0.04975    0.24766
 87 Al    0.16595    0.24516   -0.21217
 88 Cr    0.02201    0.37587    0.38534
 89 Al    0.21935    0.26215   -0.01463
 90 Co    0.14751    0.20852    0.01136
 91 Ni   -0.28014   -0.01175    0.33822
 92 Cr    0.05596   -0.29834    0.13592
 93 Co    0.02454   -0.20443   -0.10974
 94 Ni    0.25235    0.12317   -0.11991
 95 Fe    0.05031   -0.31895    0.05621
 96 Al    0.29364   -0.54443    0.54540
 97 Al   -0.83198   -0.17217   -0.16170
 98 Fe   -0.24373   -0.02778    0.28107
 99 Co   -0.13838   -0.01611   -0.09033
100 Fe   -0.25857   -0.13140   -0.09568
101 Co   -0.26498    0.35427   -0.12929
102 Al    0.51352   -0.12129    0.14172
103 Fe    0.06906    0.35949   -0.30815
104 Co   -0.02988   -0.03995   -0.29914
105 Ni   -0.07364   -0.28682    0.04807
106 Al   -0.29385    0.58996    0.17622
107 Cr    0.18160    0.20754   -0.33110

Timing:                              incl.     excl.
-----------------------------------------------------------
Forces:                             12.861    12.861   0.3% |
Hamiltonian:                         0.765     0.027   0.0% |
 Atomic:                             0.222     0.150   0.0% |
  XC Correction:                     0.072     0.072   0.0% |
 Calculate atomic Hamiltonians:      0.312     0.312   0.0% |
 Communicate:                        0.041     0.041   0.0% |
 Initialize Hamiltonian:             0.000     0.000   0.0% |
 Poisson:                            0.001     0.001   0.0% |
 XC 3D grid:                         0.164     0.164   0.0% |
LCAO initialization:                57.350     1.131   0.0% |
 LCAO eigensolver:                   5.345     0.005   0.0% |
  Calculate projections:             0.073     0.073   0.0% |
  DenseAtomicCorrection:             0.075     0.075   0.0% |
  Distribute overlap matrix:         1.129     1.129   0.0% |
  Orbital Layouts:                   2.566     2.566   0.1% |
  Potential matrix:                  1.291     1.291   0.0% |
  Sum over cells:                    0.205     0.205   0.0% |
 LCAO to grid:                      48.892    48.892   1.1% |
 Set positions (LCAO WFS):           1.982     1.309   0.0% |
  Basic WFS set positions:           0.004     0.004   0.0% |
  Basis functions set positions:     0.001     0.001   0.0% |
  P tci:                             0.154     0.154   0.0% |
  ST tci:                            0.175     0.175   0.0% |
  mktci:                             0.339     0.339   0.0% |
PWDescriptor:                        0.090     0.090   0.0% |
SCF-cycle:                        4375.592    69.764   1.6% ||
 Davidson:                        4153.245  1294.527  29.1% |-----------|
  Apply H:                          41.462    40.029   0.9% |
   HMM T:                            1.433     1.433   0.0% |
  Subspace diag:                   365.511     0.037   0.0% |
   calc_h_matrix:                  137.352    92.378   2.1% ||
    Apply H:                        44.974    43.659   1.0% |
     HMM T:                          1.315     1.315   0.0% |
   diagonalize:                     62.837    62.837   1.4% ||
   rotate_psi:                     165.285   165.285   3.7% ||
  calc. matrices:                  805.097   716.097  16.1% |-----|
   Apply H:                         89.000    86.173   1.9% ||
    HMM T:                           2.827     2.827   0.1% |
  diagonalize:                    1282.273  1282.273  28.8% |-----------|
  rotate_psi:                      364.374   364.374   8.2% |--|
 Density:                           70.719     0.002   0.0% |
  Atomic density matrices:           1.386     1.386   0.0% |
  Mix:                              48.571    48.571   1.1% |
  Multipole moments:                 0.072     0.072   0.0% |
  Pseudo density:                   20.688    20.683   0.5% |
   Symmetrize density:               0.005     0.005   0.0% |
 Hamiltonian:                       76.908     1.094   0.0% |
  Atomic:                           17.780    11.372   0.3% |
   XC Correction:                    6.408     6.408   0.1% |
  Calculate atomic Hamiltonians:    43.154    43.154   1.0% |
  Communicate:                       3.521     3.521   0.1% |
  Poisson:                           0.036     0.036   0.0% |
  XC 3D grid:                       11.321    11.321   0.3% |
 Orthonormalize:                     4.957     0.001   0.0% |
  calc_s_matrix:                     0.580     0.580   0.0% |
  inverse-cholesky:                  0.515     0.515   0.0% |
  projections:                       2.893     2.893   0.1% |
  rotate_psi_s:                      0.968     0.968   0.0% |
Set symmetry:                        0.001     0.001   0.0% |
Other:                               4.662     4.662   0.1% |
-----------------------------------------------------------
Total:                                      4451.321 100.0%

Date: Sat Apr  8 06:30:15 2023
