
  ___ ___ ___ _ _ _  
 |   |   |_  | | | | 
 | | | | | . | | | | 
 |__ |  _|___|_____|  22.8.0
 |___|_|             

User:   c.zeng@d0031
Date:   Mon Apr 17 04:51:43 2023
Arch:   x86_64
Pid:    177155
CWD:    /home/c.zeng/projects/hea-corrosion/hea-mlp/data-curation/surface-md/dft-jobs/25
Python: 3.8.1
gpaw:   /home/c.zeng/usr/installs/gpaw/source/gpaw-22.8.0/gpaw
_gpaw:  /home/c.zeng/usr/installs/gpaw/source/gpaw-22.8.0/
        _gpaw.cpython-38-x86_64-linux-gnu.so
ase:    /home/c.zeng/.local/lib/python3.8/site-packages/ase-3.22.1-py3.8.egg/ase (version 3.22.1)
numpy:  /home/c.zeng/.local/lib/python3.8/site-packages/numpy (version 1.24.2)
scipy:  /home/c.zeng/.local/lib/python3.8/site-packages/scipy (version 1.10.1)
libxc:  4.2.3
units:  Angstrom and eV
cores: 30
OpenMP: False
OMP_NUM_THREADS: 1

Input parameters:
  convergence: {energy: 0.0001}
  kpts: [2 2 1]
  maxiter: 666
  mode: {ecut: 350.0,
         name: pw}
  occupations: {fixmagmom: False,
                name: fermi-dirac,
                width: 0.1}
  poissonsolver: {dipolelayer: xy}
  spinpol: True
  symmetry: {point_group: False}
  xc: PBE

System changes: positions, numbers, cell, pbc, initial_charges, initial_magmoms 

Initialize ...

species:
  Ni:
    name: Nickel
    id: 0d9f38a9d6e76a2886f07bb4381f212b
    Z: 28.0
    valence: 16
    core: 12
    charge: 0.0
    file: /home/c.zeng/usr/data/gpaw-setups-0.9.20000/Ni.PBE.gz
    compensation charges: {type: gauss,
                           rc: 0.36,
                           lmax: 2}
    cutoffs: {filter: 2.14,
              core: 1.98}
    valence states:
      #              energy  rcut
      - 4s(2.00)    -5.642   1.164
      - 3p(6.00)   -71.394   1.207
      - 4p(0.00)    -1.226   1.207
      - 3d(8.00)    -8.875   1.138
      -  s          21.570   1.164
      -  d          18.337   1.138
  
    # Using partial waves for Ni as LCAO basis

  Fe:
    name: Iron
    id: 37abbd8d6c3c35915a9b583b742da910
    Z: 26.0
    valence: 8
    core: 18
    charge: 0.0
    file: /home/c.zeng/usr/data/gpaw-setups-0.9.20000/Fe.PBE.gz
    compensation charges: {type: gauss,
                           rc: 0.33,
                           lmax: 2}
    cutoffs: {filter: 2.06,
              core: 2.67}
    valence states:
      #              energy  rcut
      - 4s(2.00)    -5.291   1.164
      - 4p(0.00)    -1.326   1.058
      - 3d(6.00)    -7.505   1.058
      -  s          21.920   1.164
      -  p          25.885   1.058
      -  d          19.706   1.058
  
    # Using partial waves for Fe as LCAO basis

  Co:
    name: Cobalt
    id: 339d20d5b0b93d2de9531a1bee871d91
    Z: 27.0
    valence: 9
    core: 18
    charge: 0.0
    file: /home/c.zeng/usr/data/gpaw-setups-0.9.20000/Co.PBE.gz
    compensation charges: {type: gauss,
                           rc: 0.32,
                           lmax: 2}
    cutoffs: {filter: 1.87,
              core: 2.55}
    valence states:
      #              energy  rcut
      - 4s(2.00)    -5.469   1.005
      - 4p(0.00)    -1.277   1.058
      - 3d(7.00)    -8.205   1.005
      -  s          21.742   1.005
      -  p          25.934   1.058
      -  d          19.007   1.005
  
    # Using partial waves for Co as LCAO basis

  Cr:
    name: Chromium
    id: 33f258bda2ca9f93018e70263a35547b
    Z: 24.0
    valence: 6
    core: 18
    charge: 0.0
    file: /home/c.zeng/usr/data/gpaw-setups-0.9.20000/Cr.PBE.gz
    compensation charges: {type: gauss,
                           rc: 0.35,
                           lmax: 2}
    cutoffs: {filter: 2.14,
              core: 3.04}
    valence states:
      #              energy  rcut
      - 4s(1.00)    -4.007   1.164
      - 4p(0.00)    -0.989   1.217
      - 3d(5.00)    -2.913   1.111
      -  s          23.205   1.164
      -  p          26.223   1.217
      -  d          24.299   1.111
  
    # Using partial waves for Cr as LCAO basis

  Al:
    name: Aluminium
    id: 0292cae29f5d6237e50f6abdd43a7bdd
    Z: 13.0
    valence: 3
    core: 10
    charge: 0.0
    file: /home/c.zeng/usr/data/gpaw-setups-0.9.20000/Al.PBE.gz
    compensation charges: {type: gauss,
                           rc: 0.34,
                           lmax: 2}
    cutoffs: {filter: 1.91,
              core: 2.36}
    valence states:
      #              energy  rcut
      - 3s(2.00)    -7.753   1.085
      - 3p(1.00)    -2.712   1.085
      -  s          19.459   1.085
      -  p          24.499   1.085
      -  d           0.000   1.085
  
    # Using partial waves for Al as LCAO basis

Reference energy: -4275894.041763  # eV

Spin-polarized calculation.
Magnetic moment: 165.900000

Convergence criteria:
 Maximum [total energy] change in last 3 cyles: 0.0001 eV / electron
 Maximum integral of absolute [dens]ity change: 0.0001 electrons / valence electron
 Maximum integral of absolute [eigenst]ate change: 4e-08 eV^2 / valence electron
 Maximum number of scf [iter]ations: 666
 (Square brackets indicate name in SCF output, whereas a 'c' in
 the SCF output indicates the quantity has converged.)

Symmetries present (total): 1

  ( 1  0  0)
  ( 0  1  0)
  ( 0  0  1)

4 k-points: 2 x 2 x 1 Monkhorst-Pack grid
2 k-points in the irreducible part of the Brillouin zone
       k-points in crystal coordinates                weights
   0:     0.25000000   -0.25000000    0.00000000          2/4
   1:     0.25000000    0.25000000    0.00000000          2/4

Wave functions: Plane wave expansion
  Cutoff energy: 350.000 eV
  Number of coefficients (min, max): 58901, 58943
  Pulay-stress correction: 0.000000 eV/Ang^3 (de/decut=0.000000)
  Using FFTW library
  ScaLapack parameters: grid=1x1, blocksize=None
  Wavefunction extrapolation:
    Improved wavefunction reuse through dual PAW basis 

Occupation numbers: Fermi-Dirac:
  width: 0.1000  # eV
 

Eigensolver
   Davidson(niter=2) 

Densities:
  Coarse grid: 54*54*128 grid
  Fine grid: 108*108*256 grid
  Total Charge: 0.000000 

Density mixing:
  Method: difference
  Backend: pulay
  Linear mixing parameter: 0.05
  old densities: 5
  Damping of long wavelength oscillations: 50 

Hamiltonian:
  XC and Coulomb potentials evaluated on a 108*108*256 grid
  Using the PBE Exchange-Correlation functional
  External potential:
    NoExternalPotential
 

XC parameters: PBE with 2 nearest neighbor stencil

Memory estimate:
  Process memory now: 371.87 MiB
  Calculator: 2335.53 MiB
    Density: 17.84 MiB
      Arrays: 6.75 MiB
      Localized functions: 8.39 MiB
      Mixer: 2.70 MiB
    Hamiltonian: 5.27 MiB
      Arrays: 5.01 MiB
      XC: 0.00 MiB
      Poisson: 0.00 MiB
      vbar: 0.25 MiB
    Wavefunctions: 2312.43 MiB
      Arrays psit_nG: 1458.82 MiB
      Eigensolver: 834.29 MiB
      Projections: 3.66 MiB
      Projectors: 1.14 MiB
      PW-descriptor: 14.51 MiB

Total number of cores used: 30
Parallelization over k-points: 2
Domain decomposition: 1 x 3 x 5

Number of atoms: 125
Number of atomic orbitals: 1185
Number of bands in calculation: 811
Number of valence electrons: 1179
Bands to converge: occupied

... initialized

Initializing position-dependent things.

Density initialized from atomic densities
Creating initial wave functions:
  811 bands from LCAO basis set

                                                                   
                                                                   
                                                                   
                                                                   
                             Co                       Ni           
                                                                   
                                Ni    Co    Cr    Co    Cr         
                            Cr  CrNi   Co    Cr    FFe   Fe        
                      Cr     Co    Fe  CrAl                        
                Co      Cr  Cr    Cr    Cr    Ni     Fe            
            Co    Co    NiCr CFe    Ni   NNi    Cr   Ni            
              Fe   FNi   Cr        CrFe     Co Fe                  
                     Fe  NiNi  CoFe  Co    Al   NCo                
               Ni   Fe     Ni   Ni     Ni    Fe                    
                Ni    Fe AlCr  Fe Fe CrCr  Co    Cr                
                  Ni   Co  CoFe CCo   Co    NCr   NCo              
           Co          Cr    Fe    FCo NiCr    Ni        Co        
            Fe    Cr        FNi   Fe    Cr    Fe     Cr            
              Co       ACr    Ni   CoCr         Ni                 
       Al          NNi   Fe    FCo   Cr   CCo                      
              Fe    Co     Fe                                      
                                Co    Ni                           
                                                                   
                                                                   
                                                                   
                                                                   
                                                                   

Positions:
   0 Ni    12.150747    1.161887   10.099028    ( 0.0000,  0.0000,  1.5000)
   1 Fe     2.292056    1.445909   10.573501    ( 0.0000,  0.0000,  2.0000)
   2 Co     4.855775    1.493009   10.618808    ( 0.0000,  0.0000,  2.1000)
   3 Fe     7.417178    1.503371   10.571449    ( 0.0000,  0.0000,  2.0000)
   4 Co     9.668580    1.195587   10.505778    ( 0.0000,  0.0000,  2.1000)
   5 Co    13.415269    3.562612   10.507286    ( 0.0000,  0.0000,  2.1000)
   6 Ni     3.634534    3.430674   10.379988    ( 0.0000,  0.0000,  1.5000)
   7 Fe     6.085619    3.470899   10.381816    ( 0.0000,  0.0000,  2.0000)
   8 Fe     8.647478    3.589138   10.444745    ( 0.0000,  0.0000,  2.0000)
   9 Cr    11.137664    3.582695   10.577966    ( 0.0000,  0.0000,  0.0000)
  10 Ni    14.912824    5.674177   10.207968    ( 0.0000,  0.0000,  1.5000)
  11 Al     5.010303    5.732087   10.479650    ( 0.0000,  0.0000,  0.0000)
  12 Ni     7.389601    5.886607   10.801357    ( 0.0000,  0.0000,  1.5000)
  13 Co     9.761514    5.693529   10.180705    ( 0.0000,  0.0000,  2.1000)
  14 Cr    12.450626    5.714105    9.964582    ( 0.0000,  0.0000,  0.0000)
  15 Cr    16.287583    7.996662    9.886302    ( 0.0000,  0.0000,  0.0000)
  16 Fe     6.281974    7.825521   10.477472    ( 0.0000,  0.0000,  2.0000)
  17 Fe     8.767708    7.815097   10.469974    ( 0.0000,  0.0000,  2.0000)
  18 Cr    11.324136    8.260244    9.806791    ( 0.0000,  0.0000,  0.0000)
  19 Fe    13.695420    7.807343   10.064633    ( 0.0000,  0.0000,  2.0000)
  20 Co    17.505408    9.834537   10.340650    ( 0.0000,  0.0000,  2.1000)
  21 Co     7.522340   10.062541   10.554967    ( 0.0000,  0.0000,  2.1000)
  22 Co     9.887540   10.336624   10.609081    ( 0.0000,  0.0000,  2.1000)
  23 Ni    12.452037   10.138578   10.642674    ( 0.0000,  0.0000,  1.5000)
  24 Ni    14.873671   10.005637   10.396529    ( 0.0000,  0.0000,  1.5000)
  25 Al    -0.147114    0.162240   12.661271    ( 0.0000,  0.0000,  0.0000)
  26 Co     2.670084    0.098002   12.817457    ( 0.0000,  0.0000,  2.1000)
  27 Ni     4.994712    0.140830   12.646782    ( 0.0000,  0.0000,  1.5000)
  28 Ni    13.674634   10.789877   12.478945    ( 0.0000,  0.0000,  1.5000)
  29 Co     9.709773    0.007616   12.752061    ( 0.0000,  0.0000,  2.1000)
  30 Fe     1.139916    2.229638   12.898344    ( 0.0000,  0.0000,  2.0000)
  31 Cr     3.770335    2.415463   12.549848    ( 0.0000,  0.0000,  0.0000)
  32 Cr     6.230353    2.226100   12.386307    ( 0.0000,  0.0000,  0.0000)
  33 Ni     8.754731    2.114045   12.554407    ( 0.0000,  0.0000,  1.5000)
  34 Cr    11.315479    2.391905   12.360007    ( 0.0000,  0.0000,  0.0000)
  35 Ni    14.773340    4.317795   12.400077    ( 0.0000,  0.0000,  1.5000)
  36 Cr     5.022927    4.457944   12.554917    ( 0.0000,  0.0000,  0.0000)
  37 Fe     7.559875    4.353838   12.713200    ( 0.0000,  0.0000,  2.0000)
  38 Fe    10.002972    4.376218   12.421126    ( 0.0000,  0.0000,  2.0000)
  39 Cr    12.315048    4.422673   12.573722    ( 0.0000,  0.0000,  0.0000)
  40 Co    16.066246    6.352320   12.708624    ( 0.0000,  0.0000,  2.1000)
  41 Co     6.195011    6.546968   12.612223    ( 0.0000,  0.0000,  2.1000)
  42 Co     8.727226    6.441467   12.715741    ( 0.0000,  0.0000,  2.1000)
  43 Ni    11.188213    6.477468   12.001407    ( 0.0000,  0.0000,  1.5000)
  44 Cr    13.569095    6.620235   12.433316    ( 0.0000,  0.0000,  0.0000)
  45 Al     4.931804    8.578016   12.646775    ( 0.0000,  0.0000,  0.0000)
  46 Fe     7.491596    8.548185   12.407024    ( 0.0000,  0.0000,  2.0000)
  47 Cr     9.911448    8.839237   12.382070    ( 0.0000,  0.0000,  0.0000)
  48 Co    12.355153    8.723745   12.322864    ( 0.0000,  0.0000,  2.1000)
  49 Cr    14.868276    8.499093   12.393681    ( 0.0000,  0.0000,  0.0000)
  50 Co     1.364551    0.649163   14.827486    ( 0.0000,  0.0000,  2.1000)
  51 Ni     3.798574    0.978101   14.942964    ( 0.0000,  0.0000,  1.5000)
  52 Co     6.171149    0.776301   14.898002    ( 0.0000,  0.0000,  2.1000)
  53 Fe     8.592539    0.662575   14.922960    ( 0.0000,  0.0000,  2.0000)
  54 Co    11.172493    0.780104   14.800675    ( 0.0000,  0.0000,  2.1000)
  55 Ni     2.480286    3.033941   14.763406    ( 0.0000,  0.0000,  1.5000)
  56 Fe     4.938812    3.121961   14.682467    ( 0.0000,  0.0000,  2.0000)
  57 Cr     7.362844    2.865669   14.811234    ( 0.0000,  0.0000,  0.0000)
  58 Fe     9.967152    2.867342   14.614993    ( 0.0000,  0.0000,  2.0000)
  59 Cr    12.139539    2.969562   14.731800    ( 0.0000,  0.0000,  0.0000)
  60 Fe     3.910865    5.300342   14.696901    ( 0.0000,  0.0000,  2.0000)
  61 Ni     6.510334    5.220807   14.790940    ( 0.0000,  0.0000,  1.5000)
  62 Ni     8.811031    4.911016   14.680869    ( 0.0000,  0.0000,  1.5000)
  63 Ni    11.323347    5.143237   14.547891    ( 0.0000,  0.0000,  1.5000)
  64 Fe    13.848772    5.056981   14.482233    ( 0.0000,  0.0000,  2.0000)
  65 Ni     5.242306    7.291657   14.801969    ( 0.0000,  0.0000,  1.5000)
  66 Cr     7.655722    7.233233   14.598321    ( 0.0000,  0.0000,  0.0000)
  67 Co    10.101776    7.247513   14.521887    ( 0.0000,  0.0000,  2.1000)
  68 Al    12.499908    7.313673   14.727397    ( 0.0000,  0.0000,  0.0000)
  69 Co    15.145349    7.262274   14.676746    ( 0.0000,  0.0000,  2.1000)
  70 Co     6.212134    9.432611   14.784255    ( 0.0000,  0.0000,  2.1000)
  71 Cr     8.816475    9.261707   14.661971    ( 0.0000,  0.0000,  0.0000)
  72 Ni    11.184978    9.597836   14.594490    ( 0.0000,  0.0000,  1.5000)
  73 Fe    13.841149    9.375135   14.599768    ( 0.0000,  0.0000,  2.0000)
  74 Ni    16.220191    9.472276   14.910094    ( 0.0000,  0.0000,  1.5000)
  75 Ni    12.531398    1.382195   16.715953    ( 0.0000,  0.0000,  1.5000)
  76 Ni     2.464391    1.462129   16.752327    ( 0.0000,  0.0000,  1.5000)
  77 Fe     4.968207    1.450499   16.922047    ( 0.0000,  0.0000,  2.0000)
  78 Ni     7.531056    1.587912   17.009751    ( 0.0000,  0.0000,  1.5000)
  79 Fe     9.811473    1.387537   16.948772    ( 0.0000,  0.0000,  2.0000)
  80 Co    13.734444    3.483343   16.784403    ( 0.0000,  0.0000,  2.1000)
  81 Fe     3.775626    3.740591   16.914915    ( 0.0000,  0.0000,  2.0000)
  82 Cr     6.088693    3.481402   16.926657    ( 0.0000,  0.0000,  0.0000)
  83 Co     8.675675    3.490603   16.578512    ( 0.0000,  0.0000,  2.1000)
  84 Fe    11.029109    3.542450   16.732106    ( 0.0000,  0.0000,  2.0000)
  85 Cr    15.109006    5.690653   16.646093    ( 0.0000,  0.0000,  0.0000)
  86 Ni     5.120881    5.827248   16.949782    ( 0.0000,  0.0000,  1.5000)
  87 Fe     7.657678    5.806678   16.735101    ( 0.0000,  0.0000,  2.0000)
  88 Fe    10.196365    5.691318   16.759565    ( 0.0000,  0.0000,  2.0000)
  89 Ni    12.642351    5.706372   16.800956    ( 0.0000,  0.0000,  1.5000)
  90 Fe    16.471539    7.864066   16.863766    ( 0.0000,  0.0000,  2.0000)
  91 Cr     6.532826    7.952097   16.791093    ( 0.0000,  0.0000,  0.0000)
  92 Cr     8.958176    8.014985   16.764837    ( 0.0000,  0.0000,  0.0000)
  93 Cr    11.311793    7.945312   16.789032    ( 0.0000,  0.0000,  0.0000)
  94 Ni    13.717399    7.891584   16.742175    ( 0.0000,  0.0000,  1.5000)
  95 Fe    17.638035    9.984703   17.025391    ( 0.0000,  0.0000,  2.0000)
  96 Cr     7.550338   10.038945   16.772524    ( 0.0000,  0.0000,  0.0000)
  97 Cr    10.099977   10.022498   16.489820    ( 0.0000,  0.0000,  0.0000)
  98 Al    12.555516   10.044140   16.848950    ( 0.0000,  0.0000,  0.0000)
  99 Fe    14.945014   10.083727   17.185903    ( 0.0000,  0.0000,  2.0000)
 100 Co     6.230816   10.889276   19.106875    ( 0.0000,  0.0000,  2.1000)
 101 Fe     2.570907    0.097442   18.532645    ( 0.0000,  0.0000,  2.0000)
 102 Ni     5.107177    0.116339   19.100615    ( 0.0000,  0.0000,  1.5000)
 103 Cr     7.690839   -0.111563   19.393385    ( 0.0000,  0.0000,  0.0000)
 104 Ni    16.271573   10.751364   19.025409    ( 0.0000,  0.0000,  1.5000)
 105 Co     1.123872    2.099458   18.701068    ( 0.0000,  0.0000,  2.1000)
 106 Co     3.673699    2.153633   18.942561    ( 0.0000,  0.0000,  2.1000)
 107 Cr     6.259015    2.347105   19.038644    ( 0.0000,  0.0000,  0.0000)
 108 Fe     8.597459    1.960934   18.918987    ( 0.0000,  0.0000,  2.0000)
 109 Ni    11.191839    2.154567   18.742163    ( 0.0000,  0.0000,  1.5000)
 110 Co     2.547085    4.245390   18.714304    ( 0.0000,  0.0000,  2.1000)
 111 Cr     4.969601    4.289262   18.912837    ( 0.0000,  0.0000,  0.0000)
 112 Co     7.585203    4.325684   18.785474    ( 0.0000,  0.0000,  2.1000)
 113 Fe     9.888773    4.233328   18.816655    ( 0.0000,  0.0000,  2.0000)
 114 Al    12.307474    4.267493   18.796363    ( 0.0000,  0.0000,  0.0000)
 115 Fe    16.304248    6.241539   18.935694    ( 0.0000,  0.0000,  2.0000)
 116 Cr     6.536351    6.363260   18.827874    ( 0.0000,  0.0000,  0.0000)
 117 Ni     9.021765    6.540308   18.707599    ( 0.0000,  0.0000,  1.5000)
 118 Co    11.290408    6.487122   19.202658    ( 0.0000,  0.0000,  2.1000)
 119 Cr    13.735356    6.432058   18.902197    ( 0.0000,  0.0000,  0.0000)
 120 Cr    17.726997    8.285245   19.062232    ( 0.0000,  0.0000,  0.0000)
 121 Ni     7.817952    8.582075   19.000750    ( 0.0000,  0.0000,  1.5000)
 122 Co    10.199847    8.815990   18.717041    ( 0.0000,  0.0000,  2.1000)
 123 Cr    12.653477    8.544580   18.817367    ( 0.0000,  0.0000,  0.0000)
 124 Co    14.955283    8.397908   18.770433    ( 0.0000,  0.0000,  2.1000)

Unit cell:
           periodic     x           y           z      points  spacing
  1. axis:    yes   12.474800    0.000000    0.000000    54     0.2001
  2. axis:    yes    6.246240   10.818800    0.000000    54     0.2003
  3. axis:    no     0.000000    0.000000   29.353100   128     0.2293

  Lengths:  12.474800  12.492476  29.353100
  Angles:   90.000000  90.000000  59.999988

Effective grid spacing dv^(1/3) = 0.2198

     iter     time        total  log10-change:  magmom
                         energy  eigst   dens
iter:   1 05:01:33 -1203.071075                  +166.2219
iter:   2 05:04:48 -1049.314602  -0.13  -1.12    +89.5405
iter:   3 05:08:04 -1080.362088  -0.66  -1.16    +77.6995
iter:   4 05:11:20 -1489.243858  -0.35  -1.13    +71.5166
iter:   5 05:14:36 -1044.805730  -0.62  -0.89    +57.1549
iter:   6 05:17:53 -1005.160258  -1.40  -1.20    +47.9653
iter:   7 05:21:09  -981.159082  -1.50  -1.27    +47.1869
iter:   8 05:24:26  -979.691881  -1.52  -1.36    +48.7923
iter:   9 05:27:44  -963.426088  -1.28  -1.35    +50.4520
iter:  10 05:31:01 -1085.493073  -1.31  -1.46    +52.2896
iter:  11 05:34:17 -1001.003896  -1.30  -1.16    +52.6964
iter:  12 05:37:34  -962.730126  -1.61  -1.33    +50.0070
iter:  13 05:40:51  -962.307402  -1.78  -1.58    +52.8885
iter:  14 05:44:07  -956.231890  -1.96  -1.60    +54.1860
iter:  15 05:47:24  -951.212088  -2.44  -1.61    +56.2478
iter:  16 05:50:40  -952.135541  -2.37  -1.69    +60.6823
iter:  17 05:53:57  -957.259930  -2.22  -1.72    +63.0254
iter:  18 05:57:14  -973.685139  -2.17  -1.67    +65.9886
iter:  19 06:00:31  -989.080725  -1.69  -1.51    +67.2579
iter:  20 06:03:48  -955.584625  -1.96  -1.44    +66.5408
iter:  21 06:07:05  -959.876521  -2.44  -1.80    +67.2423
iter:  22 06:10:23  -953.593823  -2.60  -1.71    +68.4274
iter:  23 06:13:40  -955.428681  -2.90  -1.88    +70.6494
iter:  24 06:16:57  -953.993930  -2.88  -1.85    +71.8437
iter:  25 06:20:14  -953.997537  -2.75  -1.93    +72.9008
iter:  26 06:23:31  -956.652873  -2.69  -2.05    +73.7253
iter:  27 06:26:48  -955.295303  -2.78  -1.94    +74.5526
iter:  28 06:30:04  -961.235923  -2.61  -2.16    +74.7142
iter:  29 06:33:21  -974.589854  -2.11  -1.84    +75.2771
iter:  30 06:36:38  -956.149866  -2.49  -1.60    +75.2407
iter:  31 06:39:54  -956.085294  -2.99  -2.25    +75.5778
iter:  32 06:43:06  -956.110790c -3.26  -2.32    +75.7559
iter:  33 06:46:18  -956.128854c -3.65  -2.35    +75.9744
iter:  34 06:49:30  -957.946707  -3.05  -2.39    +76.8321
iter:  35 06:52:41  -957.338065  -3.18  -2.11    +76.8919
iter:  36 06:55:53  -956.820960  -3.34  -2.19    +77.7607
iter:  37 06:59:04  -956.534440  -3.64  -2.29    +78.1710
iter:  38 07:02:15  -956.587177  -3.96  -2.37    +78.4258
iter:  39 07:05:26  -956.624068c -3.35  -2.37    +78.6786
iter:  40 07:08:38  -956.824513  -3.70  -2.38    +78.5170
iter:  41 07:11:49  -957.932547  -3.28  -2.35    +78.4737
iter:  42 07:15:00  -956.619267  -3.57  -2.14    +78.4833
iter:  43 07:18:12  -956.804101  -3.30  -2.47    +78.4299
iter:  44 07:21:24  -956.751199  -3.43  -2.48    +78.2897
iter:  45 07:24:35  -956.726166c -3.59  -2.55    +78.0727
iter:  46 07:27:47  -957.007499  -3.67  -2.61    +78.3712
iter:  47 07:30:59  -957.760960  -3.35  -2.43    +78.3096
iter:  48 07:34:11  -956.686776  -3.67  -2.22    +78.0921
iter:  49 07:37:23  -956.694965  -4.31  -2.70    +78.0755
iter:  50 07:40:35  -956.724166c -4.42  -2.74    +78.1437
iter:  51 07:43:46  -956.732967c -4.68  -2.73    +78.1488
iter:  52 07:46:58  -956.742361c -4.35  -2.76    +78.1422
iter:  53 07:50:10  -957.072001  -3.81  -2.80    +78.2025
iter:  54 07:53:22  -956.972341  -3.79  -2.48    +78.3111
iter:  55 07:56:34  -956.771886  -4.04  -2.54    +78.0857
iter:  56 07:59:46  -956.829080  -4.06  -2.89    +78.1592
iter:  57 08:02:57  -956.774748c -4.15  -2.81    +78.3136
iter:  58 08:06:08  -956.763886c -4.56  -2.97    +78.3753
iter:  59 08:09:20  -956.799879c -4.71  -3.06    +78.3329
iter:  60 08:12:32  -956.766781c -4.90  -2.90    +78.3338
iter:  61 08:15:44  -956.764486c -5.37  -3.08    +78.4151
iter:  62 08:18:56  -956.769789c -5.25  -3.15    +78.4594
iter:  63 08:22:08  -956.778659c -4.94  -3.16    +78.4359
iter:  64 08:25:20  -956.779940c -4.76  -3.19    +78.4570
iter:  65 08:28:33  -956.790364c -4.64  -3.17    +78.5373
iter:  66 08:31:45  -956.863347c -4.53  -3.12    +78.5399
iter:  67 08:34:56  -956.791720c -4.52  -2.78    +78.4768
iter:  68 08:38:08  -956.787530c -4.94  -3.13    +78.5225
iter:  69 08:41:20  -956.780018c -5.23  -3.23    +78.6608
iter:  70 08:44:32  -956.781540c -5.54  -3.44    +78.6993
iter:  71 08:47:43  -956.782356c -5.87  -3.47    +78.7208
iter:  72 08:50:55  -956.790222c -5.14  -3.49    +78.7597
iter:  73 08:54:05  -956.783759c -5.67  -3.33    +78.7416
iter:  74 08:57:16  -956.788255c -5.67  -3.55    +78.7407
iter:  75 09:00:27  -956.785527c -5.57  -3.43    +78.7622
iter:  76 09:03:37  -956.786238c -5.75  -3.71    +78.7588
iter:  77 09:06:48  -956.787003c -5.89  -3.84    +78.7658
iter:  78 09:09:58  -956.786979c -6.27  -3.72    +78.7875
iter:  79 09:13:09  -956.787559c -6.19  -3.92    +78.8030
iter:  80 09:16:20  -956.788685c -5.87  -3.99    +78.8293
iter:  81 09:19:31  -956.788321c -6.50  -4.05c   +78.8204
iter:  82 09:22:42  -956.789134c -6.34  -4.15c   +78.8120
iter:  83 09:25:54  -956.789573c -6.42  -4.14c   +78.8197
iter:  84 09:29:06  -956.791552c -5.62  -4.13c   +78.8487
iter:  85 09:32:18  -956.793884c -6.20  -3.89    +78.8521
iter:  86 09:35:29  -956.791977c -6.12  -3.51    +78.8645
iter:  87 09:38:41  -956.792285c -6.22  -3.93    +78.8757
iter:  88 09:41:53  -956.792808c -6.30  -4.03c   +78.8848
iter:  89 09:45:05  -956.794953c -5.63  -4.03c   +78.9009
iter:  90 09:48:18  -956.793317c -6.50  -3.61    +78.8877
iter:  91 09:51:31  -956.795087c -5.98  -3.97    +78.8802
iter:  92 09:54:45  -956.793660c -6.38  -3.63    +78.8833
iter:  93 09:57:57  -956.793609c -6.37  -4.04c   +78.8829
iter:  94 10:01:10  -956.794140c -6.55  -4.11c   +78.8823
iter:  95 10:04:22  -956.794544c -6.43  -4.09c   +78.8834
iter:  96 10:07:35  -956.794326c -6.66  -4.09c   +78.8890
iter:  97 10:10:47  -956.794765c -6.66  -4.19c   +78.8918
iter:  98 10:14:00  -956.794728c -6.60  -4.03c   +78.8885
iter:  99 10:17:13  -956.794880c -6.81  -4.04c   +78.8906
iter: 100 10:20:25  -956.794944c -6.76  -4.33c   +78.8959
iter: 101 10:23:37  -956.795008c -7.20  -4.30c   +78.8979
iter: 102 10:26:50  -956.795480c -6.68  -4.38c   +78.9053
iter: 103 10:30:03  -956.795453c -6.91  -4.21c   +78.9074
iter: 104 10:33:20  -956.795670c -6.87  -4.28c   +78.9069
iter: 105 10:36:38  -956.795671c -6.92  -4.26c   +78.9112
iter: 106 10:39:56  -956.795808c -7.05  -4.17c   +78.9157
iter: 107 10:43:14  -956.795841c -7.11  -4.50c   +78.9197
iter: 108 10:46:32  -956.795874c -7.13  -4.44c   +78.9232
iter: 109 10:49:50  -956.796109c -6.61  -4.47c   +78.9291
iter: 110 10:53:08  -956.796184c -7.24  -4.66c   +78.9276
iter: 111 10:56:25  -956.796305c -7.07  -4.43c   +78.9307
iter: 112 10:59:42  -956.796332c -7.34  -4.54c   +78.9305
iter: 113 11:02:59  -956.796353c -7.26  -4.67c   +78.9343
iter: 114 11:06:16  -956.796456c -7.46c -4.54c   +78.9356

Converged after 114 iterations.

Dipole moment: (64.463440, 5.530073, -0.019655) |e|*Ang

Total magnetic moment: (0.000000, 0.000000, 78.935603)
Local magnetic moments:
   0 Ni ( 0.000000,  0.000000,  0.464213)
   1 Fe ( 0.000000,  0.000000,  2.774165)
   2 Co ( 0.000000,  0.000000,  0.839373)
   3 Fe ( 0.000000,  0.000000,  2.334658)
   4 Co ( 0.000000,  0.000000,  1.604394)
   5 Co ( 0.000000,  0.000000,  1.045788)
   6 Ni ( 0.000000,  0.000000,  0.254268)
   7 Fe ( 0.000000,  0.000000,  2.320361)
   8 Fe ( 0.000000,  0.000000,  2.629105)
   9 Cr ( 0.000000,  0.000000, -0.745466)
  10 Ni ( 0.000000,  0.000000,  0.230655)
  11 Al ( 0.000000,  0.000000, -0.033127)
  12 Ni ( 0.000000,  0.000000,  0.540130)
  13 Co ( 0.000000,  0.000000,  1.541291)
  14 Cr ( 0.000000,  0.000000, -2.833824)
  15 Cr ( 0.000000,  0.000000, -3.046296)
  16 Fe ( 0.000000,  0.000000,  2.344233)
  17 Fe ( 0.000000,  0.000000,  2.520343)
  18 Cr ( 0.000000,  0.000000, -3.217512)
  19 Fe ( 0.000000,  0.000000,  2.535246)
  20 Co ( 0.000000,  0.000000,  1.282930)
  21 Co ( 0.000000,  0.000000,  1.639597)
  22 Co ( 0.000000,  0.000000,  1.303861)
  23 Ni ( 0.000000,  0.000000,  0.390426)
  24 Ni ( 0.000000,  0.000000,  0.321456)
  25 Al ( 0.000000,  0.000000, -0.044614)
  26 Co ( 0.000000,  0.000000,  1.274128)
  27 Ni ( 0.000000,  0.000000,  0.306608)
  28 Ni ( 0.000000,  0.000000,  0.416766)
  29 Co ( 0.000000,  0.000000,  1.406473)
  30 Fe ( 0.000000,  0.000000,  2.155332)
  31 Cr ( 0.000000,  0.000000,  0.726561)
  32 Cr ( 0.000000,  0.000000, -1.502714)
  33 Ni ( 0.000000,  0.000000,  0.430698)
  34 Cr ( 0.000000,  0.000000,  0.109219)
  35 Ni ( 0.000000,  0.000000,  0.355704)
  36 Cr ( 0.000000,  0.000000, -1.530589)
  37 Fe ( 0.000000,  0.000000,  2.236900)
  38 Fe ( 0.000000,  0.000000,  1.846380)
  39 Cr ( 0.000000,  0.000000, -0.526082)
  40 Co ( 0.000000,  0.000000,  0.813791)
  41 Co ( 0.000000,  0.000000,  0.896401)
  42 Co ( 0.000000,  0.000000,  1.189404)
  43 Ni ( 0.000000,  0.000000,  0.196046)
  44 Cr ( 0.000000,  0.000000,  1.629747)
  45 Al ( 0.000000,  0.000000, -0.028550)
  46 Fe ( 0.000000,  0.000000,  2.203292)
  47 Cr ( 0.000000,  0.000000, -1.835644)
  48 Co ( 0.000000,  0.000000,  0.912128)
  49 Cr ( 0.000000,  0.000000, -2.044186)
  50 Co ( 0.000000,  0.000000,  1.315386)
  51 Ni ( 0.000000,  0.000000,  0.390836)
  52 Co ( 0.000000,  0.000000,  1.189935)
  53 Fe ( 0.000000,  0.000000,  2.399327)
  54 Co ( 0.000000,  0.000000,  1.334186)
  55 Ni ( 0.000000,  0.000000,  0.492428)
  56 Fe ( 0.000000,  0.000000,  2.028595)
  57 Cr ( 0.000000,  0.000000, -1.886634)
  58 Fe ( 0.000000,  0.000000,  2.032987)
  59 Cr ( 0.000000,  0.000000, -1.660564)
  60 Fe ( 0.000000,  0.000000,  2.183056)
  61 Ni ( 0.000000,  0.000000,  0.267903)
  62 Ni ( 0.000000,  0.000000,  0.395380)
  63 Ni ( 0.000000,  0.000000,  0.151018)
  64 Fe ( 0.000000,  0.000000,  2.276930)
  65 Ni ( 0.000000,  0.000000,  0.299993)
  66 Cr ( 0.000000,  0.000000, -0.627038)
  67 Co ( 0.000000,  0.000000,  1.000901)
  68 Al ( 0.000000,  0.000000, -0.026347)
  69 Co ( 0.000000,  0.000000,  1.197135)
  70 Co ( 0.000000,  0.000000,  0.859237)
  71 Cr ( 0.000000,  0.000000,  0.221859)
  72 Ni ( 0.000000,  0.000000,  0.173089)
  73 Fe ( 0.000000,  0.000000,  2.439194)
  74 Ni ( 0.000000,  0.000000,  0.529864)
  75 Ni ( 0.000000,  0.000000,  0.435938)
  76 Ni ( 0.000000,  0.000000,  0.559778)
  77 Fe ( 0.000000,  0.000000,  2.112372)
  78 Ni ( 0.000000,  0.000000,  0.319715)
  79 Fe ( 0.000000,  0.000000,  2.250471)
  80 Co ( 0.000000,  0.000000,  1.389242)
  81 Fe ( 0.000000,  0.000000,  1.756269)
  82 Cr ( 0.000000,  0.000000,  0.096240)
  83 Co ( 0.000000,  0.000000,  1.170127)
  84 Fe ( 0.000000,  0.000000,  2.155407)
  85 Cr ( 0.000000,  0.000000, -1.903584)
  86 Ni ( 0.000000,  0.000000,  0.286959)
  87 Fe ( 0.000000,  0.000000,  2.075737)
  88 Fe ( 0.000000,  0.000000,  2.396619)
  89 Ni ( 0.000000,  0.000000,  0.171353)
  90 Fe ( 0.000000,  0.000000,  2.352346)
  91 Cr ( 0.000000,  0.000000,  0.124893)
  92 Cr ( 0.000000,  0.000000, -0.351113)
  93 Cr ( 0.000000,  0.000000, -1.084227)
  94 Ni ( 0.000000,  0.000000,  0.181748)
  95 Fe ( 0.000000,  0.000000,  2.281209)
  96 Cr ( 0.000000,  0.000000, -0.864521)
  97 Cr ( 0.000000,  0.000000,  0.355344)
  98 Al ( 0.000000,  0.000000, -0.023506)
  99 Fe ( 0.000000,  0.000000,  2.277095)
 100 Co ( 0.000000,  0.000000,  1.770349)
 101 Fe ( 0.000000,  0.000000,  2.412628)
 102 Ni ( 0.000000,  0.000000,  0.323920)
 103 Cr ( 0.000000,  0.000000, -2.850586)
 104 Ni ( 0.000000,  0.000000,  0.481913)
 105 Co ( 0.000000,  0.000000,  1.589366)
 106 Co ( 0.000000,  0.000000,  1.381693)
 107 Cr ( 0.000000,  0.000000, -1.861415)
 108 Fe ( 0.000000,  0.000000,  2.249424)
 109 Ni ( 0.000000,  0.000000,  0.534926)
 110 Co ( 0.000000,  0.000000,  1.197845)
 111 Cr ( 0.000000,  0.000000, -1.363141)
 112 Co ( 0.000000,  0.000000,  0.747510)
 113 Fe ( 0.000000,  0.000000,  2.657180)
 114 Al ( 0.000000,  0.000000, -0.042855)
 115 Fe ( 0.000000,  0.000000,  2.304880)
 116 Cr ( 0.000000,  0.000000,  1.496070)
 117 Ni ( 0.000000,  0.000000,  0.427174)
 118 Co ( 0.000000,  0.000000,  1.462691)
 119 Cr ( 0.000000,  0.000000, -2.170174)
 120 Cr ( 0.000000,  0.000000, -2.660018)
 121 Ni ( 0.000000,  0.000000,  0.165775)
 122 Co ( 0.000000,  0.000000,  0.890297)
 123 Cr ( 0.000000,  0.000000,  2.028368)
 124 Co ( 0.000000,  0.000000,  1.064597)

Energy contributions relative to reference atoms: (reference = -4275894.041763)

Kinetic:       +359.903255
Potential:     -379.073697
External:        +0.000000
XC:            -977.025035
Entropy (-ST):   -5.418261
Local:          +42.108152
--------------------------
Free energy:   -959.505587
Extrapolated:  -956.796456

Dipole-layer corrected work functions: 4.821213, 4.847565 eV

Spin contamination: 44.781847 electrons
Showing all kpts
                      Up                     Down
 Kpt  Band  Eigenvalues  Occupancy  Eigenvalues  Occupancy
  0   587     -0.02113    0.99787      0.95115    0.02735
  0   588     -0.00995    0.99762      0.95951    0.02521
  0   589      0.00203    0.99732      0.96738    0.02335
  0   590      0.00687    0.99719      0.98321    0.02000

  1   587     -0.01023    0.99763      0.95497    0.02635
  1   588      0.00665    0.99720      0.96625    0.02361
  1   589      0.01455    0.99697      0.98150    0.02034
  1   590      0.02346    0.99668      0.98874    0.01894


Fermi level: 0.59402

No gap

Forces in eV/Ang:
  0 Ni    0.47039    0.94117    1.12134
  1 Fe   -0.66356    0.17219    0.38580
  2 Co    0.11752   -0.55137   -0.16893
  3 Fe   -0.36648   -0.86953   -0.65171
  4 Co    1.83502    0.89287    0.32494
  5 Co    0.89528   -0.42359    0.45791
  6 Ni   -0.39153    1.42509    0.48495
  7 Fe    0.52863    0.78532    0.31592
  8 Fe   -0.20590    0.07067    0.34079
  9 Cr   -0.58185   -1.05671   -1.01390
 10 Ni    0.21107   -0.01184    1.13441
 11 Al   -1.13578    0.05419   -1.03169
 12 Ni    0.88991   -1.94348   -1.55517
 13 Co    0.68446   -0.02824    0.75701
 14 Cr   -0.14882    0.08246    0.47083
 15 Cr   -0.80273   -0.65532    0.06205
 16 Fe   -0.31723    1.25294   -0.30664
 17 Fe    0.67643    0.75944   -0.03110
 18 Cr   -1.01143   -0.61043    0.60379
 19 Fe    0.19241    0.60292    0.82565
 20 Co   -0.16650    0.89743    1.31516
 21 Co   -0.45525   -0.06063    0.21450
 22 Co    0.27358   -0.93182   -0.19709
 23 Ni   -0.36901    1.01602   -1.61220
 24 Ni    0.03940   -0.58960    0.45120
 25 Al    0.88129   -1.26912   -0.43625
 26 Co   -1.47353    0.40486   -0.42592
 27 Ni    0.06177    0.22160    0.27670
 28 Ni    0.01482    0.41327    1.30986
 29 Co    1.58237   -0.62916   -0.25857
 30 Fe    0.74756    0.15494   -0.63241
 31 Cr    0.36118   -0.72898    0.28511
 32 Cr    0.08964   -0.08753    0.98091
 33 Ni   -0.44615    0.77656    0.56447
 34 Cr   -1.03148   -0.76068   -0.62616
 35 Ni    0.76992    0.14142   -0.40371
 36 Cr   -0.02310   -1.15160    0.81244
 37 Fe   -0.87009   -0.68050   -0.21205
 38 Fe   -1.12570    0.70068    0.70611
 39 Cr    1.29046   -0.11544   -0.72595
 40 Co    0.34297    0.88887   -1.01815
 41 Co   -0.26231   -0.36045    1.12672
 42 Co    0.66709    0.42589   -0.59427
 43 Ni   -0.73887    0.92963    0.14572
 44 Cr    0.72851   -0.31983   -0.55659
 45 Al   -0.33987    0.10731    0.17105
 46 Fe    0.03908    1.35900    0.87453
 47 Cr    0.52942   -1.09891    0.32796
 48 Co   -0.13975   -1.19713    1.07966
 49 Cr   -0.63308    0.58547   -0.07735
 50 Co   -0.56034    0.41116   -0.93023
 51 Ni   -0.43386   -0.34427   -2.41339
 52 Co    0.48229    0.50484   -0.61503
 53 Fe    0.28680    0.43670   -0.70267
 54 Co   -0.21004   -0.47987   -0.11593
 55 Ni    0.28509   -0.32072   -0.31795
 56 Fe    0.60087   -0.42019   -0.06127
 57 Cr   -0.00578   -0.09147   -0.81407
 58 Fe   -0.50576   -0.45323   -0.76955
 59 Cr    2.48102   -0.82076    0.40023
 60 Fe    0.28490   -1.36248    0.39324
 61 Ni   -2.10856   -1.21528   -0.33482
 62 Ni    0.99250    1.28403   -0.11280
 63 Ni   -0.62733    0.38622    0.31432
 64 Fe   -0.56857    0.28293    0.78269
 65 Ni   -0.97271   -0.12249   -0.17031
 66 Cr    0.16195    0.75942    0.05626
 67 Co   -0.39618   -0.03630    0.30827
 68 Al    0.47081   -0.53136   -1.08303
 69 Co   -0.66078    0.55807   -0.04594
 70 Co    0.70549    0.35221   -0.27350
 71 Cr   -1.20875    0.63784   -0.27375
 72 Ni    1.22176   -1.69346   -0.92870
 73 Fe   -0.45653    0.29167   -0.35099
 74 Ni    0.40809   -0.67557    0.01247
 75 Ni   -1.01922   -0.05731    0.34581
 76 Ni    0.55934    0.79899   -0.00637
 77 Fe    0.12269    0.13942    0.90806
 78 Ni   -2.19643   -1.96522   -0.71654
 79 Fe    2.15153   -0.42376   -0.73110
 80 Co   -0.47796    1.08611   -0.27398
 81 Fe   -0.02007   -1.11388   -1.12063
 82 Cr    0.88186    1.30239   -0.12075
 83 Co    0.18384    1.31531    1.24506
 84 Fe    1.10761   -0.11384   -0.23568
 85 Cr   -0.46562    0.54690    0.24736
 86 Ni    0.59976   -0.59680   -0.77554
 87 Fe    0.56727   -0.56058    0.29406
 88 Fe   -0.65528    0.76652   -0.19828
 89 Ni   -0.38466   -0.18859   -0.41184
 90 Fe   -1.29371    0.58503   -0.19170
 91 Cr   -0.16656   -0.33562    0.00585
 92 Cr   -0.27737   -0.83881    0.56241
 93 Cr   -0.68645   -0.95028    0.81478
 94 Ni    1.38856   -0.00232   -0.26040
 95 Fe   -0.73974    0.76506   -0.08794
 96 Cr   -0.26954    0.57790    0.48868
 97 Cr   -1.39915    0.08853    1.74517
 98 Al    0.45973    1.64916   -0.26529
 99 Fe    0.66523   -0.36283   -0.96956
100 Co    0.60470   -0.62480   -1.02553
101 Fe    0.12767   -1.08830    1.69011
102 Ni    0.04177   -0.36229   -0.88921
103 Cr   -1.12970   -0.37624   -0.27991
104 Ni    0.84596   -0.04394   -0.06158
105 Co    0.93258    0.25925    0.53997
106 Co    0.30437    0.10988   -0.46373
107 Cr   -0.17504   -0.69238    0.11081
108 Fe    1.18970    1.04177    0.97300
109 Ni   -0.38811   -0.53346    0.42785
110 Co   -1.66778   -0.07149    0.94321
111 Cr    0.15687    0.28903    0.14189
112 Co   -0.16086   -0.44827   -0.49564
113 Fe   -0.38731    0.25106    0.21272
114 Al    1.03504   -0.12481    0.51413
115 Fe   -0.18311    0.93963   -0.11102
116 Cr    0.05111    0.47498    0.40346
117 Ni   -0.49820   -0.07350    0.38662
118 Co    0.24514    0.09731   -1.15056
119 Cr    0.03204    0.09180   -0.20869
120 Cr   -0.47038    0.80627   -0.14400
121 Ni   -0.67446    0.61810   -0.75474
122 Co   -0.09977   -0.24070   -0.02996
123 Cr   -1.06664    0.15077    1.11069
124 Co    1.82040    0.16920    0.44830

Timing:                              incl.     excl.
-----------------------------------------------------------
Forces:                             53.856    53.856   0.2% |
Hamiltonian:                         1.826     0.015   0.0% |
 Atomic:                             0.604     0.002   0.0% |
  XC Correction:                     0.602     0.602   0.0% |
 Calculate atomic Hamiltonians:      0.464     0.464   0.0% |
 Communicate:                        0.212     0.212   0.0% |
 Initialize Hamiltonian:             0.000     0.000   0.0% |
 Poisson:                            0.112     0.112   0.0% |
 XC 3D grid:                         0.419     0.419   0.0% |
LCAO initialization:               364.456     0.852   0.0% |
 LCAO eigensolver:                  17.027     0.012   0.0% |
  Calculate projections:             0.000     0.000   0.0% |
  DenseAtomicCorrection:             0.000     0.000   0.0% |
  Distribute overlap matrix:        11.335    11.335   0.1% |
  Orbital Layouts:                   5.647     5.647   0.0% |
  Potential matrix:                  0.003     0.003   0.0% |
  Sum over cells:                    0.029     0.029   0.0% |
 LCAO to grid:                     343.656   343.656   1.5% ||
 Set positions (LCAO WFS):           2.922     2.515   0.0% |
  Basic WFS set positions:           0.006     0.006   0.0% |
  Basis functions set positions:     0.001     0.001   0.0% |
  P tci:                             0.000     0.000   0.0% |
  ST tci:                            0.168     0.168   0.0% |
  mktci:                             0.232     0.232   0.0% |
PWDescriptor:                        0.290     0.290   0.0% |
SCF-cycle:                       22102.477    18.930   0.1% |
 Davidson:                       21541.917  7171.097  31.8% |------------|
  Apply H:                         363.637   358.428   1.6% ||
   HMM T:                            5.209     5.209   0.0% |
  Subspace diag:                  2415.811     0.045   0.0% |
   calc_h_matrix:                  960.387   652.895   2.9% ||
    Apply H:                       307.492   302.378   1.3% ||
     HMM T:                          5.115     5.115   0.0% |
   diagonalize:                    209.752   209.752   0.9% |
   rotate_psi:                    1245.627  1245.627   5.5% |-|
  calc. matrices:                 5755.136  5173.365  23.0% |--------|
   Apply H:                        581.771   571.433   2.5% ||
    HMM T:                          10.338    10.338   0.0% |
  diagonalize:                    3172.008  3172.008  14.1% |-----|
  rotate_psi:                     2664.227  2664.227  11.8% |----|
 Density:                          272.191     0.004   0.0% |
  Atomic density matrices:           3.157     3.157   0.0% |
  Mix:                             125.760   125.760   0.6% |
  Multipole moments:                 0.115     0.115   0.0% |
  Pseudo density:                  143.154   143.148   0.6% |
   Symmetrize density:               0.006     0.006   0.0% |
 Hamiltonian:                      243.885     1.447   0.0% |
  Atomic:                           68.891     0.185   0.0% |
   XC Correction:                   68.706    68.706   0.3% |
  Calculate atomic Hamiltonians:   106.876   106.876   0.5% |
  Communicate:                      15.443    15.443   0.1% |
  Poisson:                           5.339     5.339   0.0% |
  XC 3D grid:                       45.890    45.890   0.2% |
 Orthonormalize:                    25.554     0.001   0.0% |
  calc_s_matrix:                     3.116     3.116   0.0% |
  inverse-cholesky:                  1.177     1.177   0.0% |
  projections:                      15.422    15.422   0.1% |
  rotate_psi_s:                      5.839     5.839   0.0% |
Set symmetry:                        0.001     0.001   0.0% |
Other:                               9.257     9.257   0.0% |
-----------------------------------------------------------
Total:                                     22532.162 100.0%

Date: Mon Apr 17 11:07:16 2023
