
  ___ ___ ___ _ _ _  
 |   |   |_  | | | | 
 | | | | | . | | | | 
 |__ |  _|___|_____|  22.8.0
 |___|_|             

User:   c.zeng@d0088
Date:   Thu Apr 13 22:22:19 2023
Arch:   x86_64
Pid:    12592
CWD:    /home/c.zeng/projects/hea-corrosion/hea-mlp/data-curation/bulk-md/dft-jobs/5
Python: 3.8.1
gpaw:   /home/c.zeng/usr/installs/gpaw/source/gpaw-22.8.0/gpaw
_gpaw:  /home/c.zeng/usr/installs/gpaw/source/gpaw-22.8.0/
        _gpaw.cpython-38-x86_64-linux-gnu.so
ase:    /home/c.zeng/.local/lib/python3.8/site-packages/ase-3.22.1-py3.8.egg/ase (version 3.22.1)
numpy:  /shared/centos7/python/3.8.1/lib/python3.8/site-packages/numpy (version 1.17.4)
scipy:  /shared/centos7/python/3.8.1/lib/python3.8/site-packages/scipy (version 1.4.1)
libxc:  4.2.3
units:  Angstrom and eV
cores: 30
OpenMP: False
OMP_NUM_THREADS: 1

Input parameters:
  convergence: {energy: 0.0001}
  kpts: [2 2 2]
  maxiter: 666
  mode: {ecut: 350.0,
         name: pw}
  occupations: {fixmagmom: False,
                name: fermi-dirac,
                width: 0.1}
  spinpol: True
  xc: PBE

System changes: positions, numbers, cell, pbc, initial_charges, initial_magmoms 

Initialize ...

species:
  Co:
    name: Cobalt
    id: 339d20d5b0b93d2de9531a1bee871d91
    Z: 27.0
    valence: 9
    core: 18
    charge: 0.0
    file: /home/c.zeng/usr/data/gpaw-setups-0.9.20000/Co.PBE.gz
    compensation charges: {type: gauss,
                           rc: 0.32,
                           lmax: 2}
    cutoffs: {filter: 1.87,
              core: 2.55}
    valence states:
      #              energy  rcut
      - 4s(2.00)    -5.469   1.005
      - 4p(0.00)    -1.277   1.058
      - 3d(7.00)    -8.205   1.005
      -  s          21.742   1.005
      -  p          25.934   1.058
      -  d          19.007   1.005
  
    # Using partial waves for Co as LCAO basis

  Fe:
    name: Iron
    id: 37abbd8d6c3c35915a9b583b742da910
    Z: 26.0
    valence: 8
    core: 18
    charge: 0.0
    file: /home/c.zeng/usr/data/gpaw-setups-0.9.20000/Fe.PBE.gz
    compensation charges: {type: gauss,
                           rc: 0.33,
                           lmax: 2}
    cutoffs: {filter: 2.06,
              core: 2.67}
    valence states:
      #              energy  rcut
      - 4s(2.00)    -5.291   1.164
      - 4p(0.00)    -1.326   1.058
      - 3d(6.00)    -7.505   1.058
      -  s          21.920   1.164
      -  p          25.885   1.058
      -  d          19.706   1.058
  
    # Using partial waves for Fe as LCAO basis

  Cr:
    name: Chromium
    id: 33f258bda2ca9f93018e70263a35547b
    Z: 24.0
    valence: 6
    core: 18
    charge: 0.0
    file: /home/c.zeng/usr/data/gpaw-setups-0.9.20000/Cr.PBE.gz
    compensation charges: {type: gauss,
                           rc: 0.35,
                           lmax: 2}
    cutoffs: {filter: 2.14,
              core: 3.04}
    valence states:
      #              energy  rcut
      - 4s(1.00)    -4.007   1.164
      - 4p(0.00)    -0.989   1.217
      - 3d(5.00)    -2.913   1.111
      -  s          23.205   1.164
      -  p          26.223   1.217
      -  d          24.299   1.111
  
    # Using partial waves for Cr as LCAO basis

  Ni:
    name: Nickel
    id: 0d9f38a9d6e76a2886f07bb4381f212b
    Z: 28.0
    valence: 16
    core: 12
    charge: 0.0
    file: /home/c.zeng/usr/data/gpaw-setups-0.9.20000/Ni.PBE.gz
    compensation charges: {type: gauss,
                           rc: 0.36,
                           lmax: 2}
    cutoffs: {filter: 2.14,
              core: 1.98}
    valence states:
      #              energy  rcut
      - 4s(2.00)    -5.642   1.164
      - 3p(6.00)   -71.394   1.207
      - 4p(0.00)    -1.226   1.207
      - 3d(8.00)    -8.875   1.138
      -  s          21.570   1.164
      -  d          18.337   1.138
  
    # Using partial waves for Ni as LCAO basis

Reference energy: -3846758.590871  # eV

Spin-polarized calculation.
Magnetic moment: 151.200000

Convergence criteria:
 Maximum [total energy] change in last 3 cyles: 0.0001 eV / electron
 Maximum integral of absolute [dens]ity change: 0.0001 electrons / valence electron
 Maximum integral of absolute [eigenst]ate change: 4e-08 eV^2 / valence electron
 Maximum number of scf [iter]ations: 666
 (Square brackets indicate name in SCF output, whereas a 'c' in
 the SCF output indicates the quantity has converged.)

Symmetries present (total): 1

  ( 1  0  0)
  ( 0  1  0)
  ( 0  0  1)

8 k-points: 2 x 2 x 2 Monkhorst-Pack grid
4 k-points in the irreducible part of the Brillouin zone
       k-points in crystal coordinates                weights
   0:     0.25000000   -0.25000000   -0.25000000          2/8
   1:     0.25000000   -0.25000000    0.25000000          2/8
   2:     0.25000000    0.25000000   -0.25000000          2/8
   3:     0.25000000    0.25000000    0.25000000          2/8

Wave functions: Plane wave expansion
  Cutoff energy: 350.000 eV
  Number of coefficients (min, max): 17755, 17755
  Pulay-stress correction: 0.000000 eV/Ang^3 (de/decut=0.000000)
  Using FFTW library
  ScaLapack parameters: grid=1x1, blocksize=None
  Wavefunction extrapolation:
    Improved wavefunction reuse through dual PAW basis 

Occupation numbers: Fermi-Dirac:
  width: 0.1000  # eV
 

Eigensolver
   Davidson(niter=2) 

Densities:
  Coarse grid: 48*48*48 grid
  Fine grid: 96*96*96 grid
  Total Charge: 0.000000 

Density mixing:
  Method: difference
  Backend: pulay
  Linear mixing parameter: 0.05
  old densities: 5
  Damping of long wavelength oscillations: 50 

Hamiltonian:
  XC and Coulomb potentials evaluated on a 96*96*96 grid
  Using the PBE Exchange-Correlation functional
  External potential:
    NoExternalPotential
 

XC parameters: PBE with 2 nearest neighbor stencil

Memory estimate:
  Process memory now: 249.20 MiB
  Calculator: 1084.22 MiB
    Density: 5.08 MiB
      Arrays: 2.05 MiB
      Localized functions: 2.21 MiB
      Mixer: 0.82 MiB
    Hamiltonian: 1.59 MiB
      Arrays: 1.52 MiB
      XC: 0.00 MiB
      Poisson: 0.00 MiB
      vbar: 0.06 MiB
    Wavefunctions: 1077.55 MiB
      Arrays psit_nG: 787.83 MiB
      Eigensolver: 278.98 MiB
      Projections: 5.75 MiB
      Projectors: 0.60 MiB
      PW-descriptor: 4.38 MiB

Total number of cores used: 30
Parallelization over k-points: 2
Domain decomposition: 5 x 3 x 1

Number of atoms: 108
Number of atomic orbitals: 1053
Number of bands in calculation: 727
Number of valence electrons: 1053
Bands to converge: occupied

... initialized

Initializing position-dependent things.

Density initialized from atomic densities
Creating initial wave functions:
  727 bands from LCAO basis set

        .--------Cr---------------.  
       /|           Co            |  
      / |   FeFe              Co  |  
     /  |      Cr                Co  
    /   |Fe      Cr     Co  Cr   Co  
   /    | FeNi     FeCoi     CrCo |  
  /     |    Fe      Cr      Cr   |  
 *      Cr  CrCoiNi    NiNi     Ni|  
 |      |NiCo    CoFe   CoCrCo  Fe|  
 |      | FeCrFe FCoNi   FeCrCr   |  
 |   Cr |  NiFCr    NiFNi    Ni   |  
 |      FCr   FeFeNiCo  FCo   NiNi|  
 |     CoCCo   CrNi Fe  Ni NNi    |  
 |      .-Cr-Co----CoNi-----Ni----.  
 |   Fe/   Cr Co      NNi    Cr  /   
 |    FFer     Fe       Co      /    
 Fe  /           Ni      Cor   /     
 |  /      Cr      Ni       Co/      
 | /  Fe                     /       
 |/    Fe       Cr      Co  /        
 *----------------Fe-------Co        

Positions:
   0 Co    -0.022922    0.092741   10.676386    ( 0.0000,  0.0000,  2.1000)
   1 Co    -0.044769    1.752551    1.755496    ( 0.0000,  0.0000,  2.1000)
   2 Fe     1.904620    0.077098    1.653986    ( 0.0000,  0.0000,  2.0000)
   3 Fe     1.888318    1.879966   10.668110    ( 0.0000,  0.0000,  2.0000)
   4 Cr     3.669157   -0.235159   10.483215    ( 0.0000,  0.0000,  0.0000)
   5 Cr     3.760413    1.651148    1.831597    ( 0.0000,  0.0000,  0.0000)
   6 Co     5.155648   10.407661    1.734481    ( 0.0000,  0.0000,  2.1000)
   7 Cr     5.449583    2.046648   10.700201    ( 0.0000,  0.0000,  0.0000)
   8 Fe     7.005191    0.026936   10.682036    ( 0.0000,  0.0000,  2.0000)
   9 Ni     7.025529    1.602124    1.839577    ( 0.0000,  0.0000,  1.5000)
  10 Ni     8.832553   -0.004919    1.941150    ( 0.0000,  0.0000,  1.5000)
  11 Co     8.832886    1.730772   10.699237    ( 0.0000,  0.0000,  2.1000)
  12 Cr    10.593427    3.289518   -0.034850    ( 0.0000,  0.0000,  0.0000)
  13 Fe    10.876048    5.284602    1.732032    ( 0.0000,  0.0000,  2.0000)
  14 Cr     1.850100    3.602677    1.772875    ( 0.0000,  0.0000,  0.0000)
  15 Fe     1.783457    5.318460   10.446309    ( 0.0000,  0.0000,  2.0000)
  16 Ni     3.679536    3.614284   10.339441    ( 0.0000,  0.0000,  1.5000)
  17 Co     3.788872    5.302193    1.847355    ( 0.0000,  0.0000,  2.1000)
  18 Ni     5.455449    3.490241    1.683540    ( 0.0000,  0.0000,  1.5000)
  19 Cr     5.315115    5.251852   10.502017    ( 0.0000,  0.0000,  0.0000)
  20 Co     7.053183    3.666563   10.549857    ( 0.0000,  0.0000,  2.1000)
  21 Ni     7.118454    5.264297    1.828569    ( 0.0000,  0.0000,  1.5000)
  22 Co     8.830398    3.459747    1.641164    ( 0.0000,  0.0000,  2.1000)
  23 Cr     8.964777    5.326228    0.054580    ( 0.0000,  0.0000,  0.0000)
  24 Fe     0.116852    7.093593   10.714699    ( 0.0000,  0.0000,  2.0000)
  25 Co    10.776798    9.027105    1.787019    ( 0.0000,  0.0000,  2.1000)
  26 Cr     1.826601    7.213426    1.815788    ( 0.0000,  0.0000,  0.0000)
  27 Cr     1.705540    8.856748   10.621413    ( 0.0000,  0.0000,  0.0000)
  28 Fe     3.601386    7.088279   10.598111    ( 0.0000,  0.0000,  2.0000)
  29 Cr     3.492763    8.732188    1.691886    ( 0.0000,  0.0000,  0.0000)
  30 Co     5.402306    7.156538    1.551634    ( 0.0000,  0.0000,  2.1000)
  31 Co     5.480719    8.804865   10.460759    ( 0.0000,  0.0000,  2.1000)
  32 Cr     7.475131    6.980679   10.778413    ( 0.0000,  0.0000,  0.0000)
  33 Ni     7.005174    8.816387    1.750564    ( 0.0000,  0.0000,  1.5000)
  34 Ni     9.017297    6.935709    1.771791    ( 0.0000,  0.0000,  1.5000)
  35 Cr     8.855553    8.868729   10.842605    ( 0.0000,  0.0000,  0.0000)
  36 Fe     0.051194   10.738783    3.602711    ( 0.0000,  0.0000,  2.0000)
  37 Ni    10.549618    2.052380    5.319764    ( 0.0000,  0.0000,  1.5000)
  38 Cr     1.615941   -0.109091    5.264250    ( 0.0000,  0.0000,  0.0000)
  39 Fe     1.789583    1.812345    3.382950    ( 0.0000,  0.0000,  2.0000)
  40 Fe     3.594165   -0.239558    3.628862    ( 0.0000,  0.0000,  2.0000)
  41 Co     3.351082    1.637672    5.306427    ( 0.0000,  0.0000,  2.1000)
  42 Cr     5.377599   -0.016801    5.635614    ( 0.0000,  0.0000,  0.0000)
  43 Fe     5.254513    1.595726    3.599828    ( 0.0000,  0.0000,  2.0000)
  44 Fe     6.911858   -0.249792    3.533469    ( 0.0000,  0.0000,  2.0000)
  45 Fe     7.215923    1.666444    5.275640    ( 0.0000,  0.0000,  2.0000)
  46 Ni     8.954981    0.083319    5.174744    ( 0.0000,  0.0000,  1.5000)
  47 Co     8.935088    1.736699    3.538764    ( 0.0000,  0.0000,  2.1000)
  48 Cr    -0.092538    3.485520    3.421151    ( 0.0000,  0.0000,  0.0000)
  49 Ni     0.059665    5.463557    5.196045    ( 0.0000,  0.0000,  1.5000)
  50 Fe     1.846543    3.464792    5.287733    ( 0.0000,  0.0000,  2.0000)
  51 Co     2.050242    5.214161    3.458649    ( 0.0000,  0.0000,  2.1000)
  52 Co     3.806637    3.427478    3.523275    ( 0.0000,  0.0000,  2.1000)
  53 Fe     3.414308    5.252197    5.428906    ( 0.0000,  0.0000,  2.0000)
  54 Fe     5.288714    3.368354    5.309209    ( 0.0000,  0.0000,  2.0000)
  55 Ni     5.307377    5.253430    3.538748    ( 0.0000,  0.0000,  1.5000)
  56 Ni     7.183113    3.459399    3.462134    ( 0.0000,  0.0000,  1.5000)
  57 Fe     7.105411    5.325435    5.205719    ( 0.0000,  0.0000,  2.0000)
  58 Co     8.760032    3.742019    5.065344    ( 0.0000,  0.0000,  2.1000)
  59 Ni     9.151920    5.267077    3.473978    ( 0.0000,  0.0000,  1.5000)
  60 Ni    -0.061497    7.264257    3.454334    ( 0.0000,  0.0000,  1.5000)
  61 Fe    10.315646    8.706034    5.241455    ( 0.0000,  0.0000,  2.0000)
  62 Fe     1.719667    7.109510    5.279484    ( 0.0000,  0.0000,  2.0000)
  63 Ni     1.720648    8.901831    3.718083    ( 0.0000,  0.0000,  1.5000)
  64 Fe     3.524747    7.214032    3.631664    ( 0.0000,  0.0000,  2.0000)
  65 Ni     3.438977    8.892921    5.423313    ( 0.0000,  0.0000,  1.5000)
  66 Co     5.266333    6.958128    5.244588    ( 0.0000,  0.0000,  2.1000)
  67 Ni     5.306325    8.551218    3.421195    ( 0.0000,  0.0000,  1.5000)
  68 Fe     7.325397    7.206107    3.363650    ( 0.0000,  0.0000,  2.0000)
  69 Co     7.008314    8.589032    5.211086    ( 0.0000,  0.0000,  2.1000)
  70 Cr     8.790754    7.038476    5.358768    ( 0.0000,  0.0000,  0.0000)
  71 Ni     8.823602    9.006002    3.406561    ( 0.0000,  0.0000,  1.5000)
  72 Co    10.420709   10.530622    7.361148    ( 0.0000,  0.0000,  2.1000)
  73 Co    -0.008483    1.886758    8.881858    ( 0.0000,  0.0000,  2.1000)
  74 Fe     1.709595   -0.108956    9.010104    ( 0.0000,  0.0000,  2.0000)
  75 Cr     1.324287    1.726202    7.071701    ( 0.0000,  0.0000,  0.0000)
  76 Cr     3.392524    0.035744    7.180483    ( 0.0000,  0.0000,  0.0000)
  77 Co     3.465626    1.799708    8.932647    ( 0.0000,  0.0000,  2.1000)
  78 Fe     5.302867   10.811626    8.904683    ( 0.0000,  0.0000,  2.0000)
  79 Cr     5.052054    1.639286    7.022335    ( 0.0000,  0.0000,  0.0000)
  80 Ni     7.070941    0.118442    7.120569    ( 0.0000,  0.0000,  1.5000)
  81 Fe     6.975630    1.908074    8.750077    ( 0.0000,  0.0000,  2.0000)
  82 Co     8.883402   -0.068583    9.004543    ( 0.0000,  0.0000,  2.1000)
  83 Ni     8.640894    1.774089    6.978429    ( 0.0000,  0.0000,  1.5000)
  84 Cr    10.557129    3.642101    7.247329    ( 0.0000,  0.0000,  0.0000)
  85 Co    -0.033494    5.445816    8.938170    ( 0.0000,  0.0000,  2.1000)
  86 Cr     1.888087    3.521507    8.904586    ( 0.0000,  0.0000,  0.0000)
  87 Ni     1.613062    5.485325    7.141066    ( 0.0000,  0.0000,  1.5000)
  88 Cr     3.460845    3.534757    7.255752    ( 0.0000,  0.0000,  0.0000)
  89 Fe     3.406562    5.535488    8.827800    ( 0.0000,  0.0000,  2.0000)
  90 Ni     5.426717    3.737199    8.767996    ( 0.0000,  0.0000,  1.5000)
  91 Co     5.145909    5.075943    6.906706    ( 0.0000,  0.0000,  2.1000)
  92 Ni     6.962639    3.600146    7.010028    ( 0.0000,  0.0000,  1.5000)
  93 Ni     7.293215    5.495597    8.912518    ( 0.0000,  0.0000,  1.5000)
  94 Ni     8.826308    3.579874    9.026773    ( 0.0000,  0.0000,  1.5000)
  95 Cr     8.693483    5.342002    6.890200    ( 0.0000,  0.0000,  0.0000)
  96 Ni    -0.033689    7.218464    7.012289    ( 0.0000,  0.0000,  1.5000)
  97 Co    -0.044118    8.898393    9.104932    ( 0.0000,  0.0000,  2.1000)
  98 Fe     1.574057    7.254104    8.733791    ( 0.0000,  0.0000,  2.0000)
  99 Cr     1.570204    8.961164    7.057115    ( 0.0000,  0.0000,  0.0000)
 100 Co     3.443346    7.215680    7.042714    ( 0.0000,  0.0000,  2.1000)
 101 Cr     3.411795    8.889759    8.729077    ( 0.0000,  0.0000,  0.0000)
 102 Fe     5.447801    6.932883    8.898984    ( 0.0000,  0.0000,  2.0000)
 103 Co     5.142799    8.827365    7.250341    ( 0.0000,  0.0000,  2.1000)
 104 Ni     6.998945    7.086604    7.203455    ( 0.0000,  0.0000,  1.5000)
 105 Co     7.121730    8.895529    8.679029    ( 0.0000,  0.0000,  2.1000)
 106 Cr     8.964468    7.210473    9.014274    ( 0.0000,  0.0000,  0.0000)
 107 Cr     8.952999    8.751421    7.051309    ( 0.0000,  0.0000,  0.0000)

Unit cell:
           periodic     x           y           z      points  spacing
  1. axis:    yes   10.614300    0.000000    0.000000    48     0.2211
  2. axis:    yes    0.000000   10.614300    0.000000    48     0.2211
  3. axis:    yes    0.000000    0.000000   10.614300    48     0.2211

  Lengths:  10.614300  10.614300  10.614300
  Angles:   90.000000  90.000000  90.000000

Effective grid spacing dv^(1/3) = 0.2211

     iter     time        total  log10-change:  magmom
                         energy  eigst   dens
iter:   1 22:26:22 -1062.303019                  +151.4733
iter:   2 22:27:54  -935.297868  -0.30  -1.21    +86.2066
iter:   3 22:29:27  -926.033435  -0.96  -1.25    +73.1924
iter:   4 22:31:00  -918.021620  -1.25  -1.31    +68.1714
iter:   5 22:32:33  -896.974340  -1.59  -1.30    +63.2049
iter:   6 22:34:06  -895.032990  -1.28  -1.39    +63.1124
iter:   7 22:35:39  -897.012354  -1.22  -1.48    +62.2296
iter:   8 22:37:12  -876.501012  -1.64  -1.56    +60.8864
iter:   9 22:38:44  -875.589234  -2.25  -1.81    +61.6551
iter:  10 22:40:17  -876.087930  -2.40  -1.85    +63.7209
iter:  11 22:41:50  -875.587309  -2.69  -1.87    +65.0182
iter:  12 22:43:23  -877.409065  -2.49  -1.92    +66.6098
iter:  13 22:44:56  -878.448464  -2.42  -1.94    +67.2723
iter:  14 22:46:29  -877.607421  -2.38  -1.96    +67.7380
iter:  15 22:48:02  -877.233759  -2.62  -2.05    +68.6053
iter:  16 22:49:35  -877.179207  -2.66  -2.12    +68.5814
iter:  17 22:51:07  -876.542633  -2.94  -2.15    +69.1345
iter:  18 22:52:40  -876.483496  -3.13  -2.26    +69.8115
iter:  19 22:54:13  -876.550720c -3.33  -2.35    +69.9950
iter:  20 22:55:46  -876.760039  -3.13  -2.36    +70.2613
iter:  21 22:57:18  -876.787592  -3.11  -2.36    +70.4233
iter:  22 22:58:51  -876.384125  -3.39  -2.36    +71.0631
iter:  23 23:00:23  -876.573898  -3.31  -2.60    +71.0907
iter:  24 23:01:56  -876.368049  -3.68  -2.50    +71.1705
iter:  25 23:03:29  -876.437387  -3.72  -2.72    +71.3981
iter:  26 23:05:03  -876.368797c -3.91  -2.67    +71.4379
iter:  27 23:06:35  -876.368002c -3.93  -2.80    +71.5695
iter:  28 23:08:08  -876.379923c -4.04  -2.85    +71.6489
iter:  29 23:09:41  -876.381477c -4.26  -2.86    +71.8411
iter:  30 23:11:14  -876.368872c -4.43  -2.93    +71.8689
iter:  31 23:12:47  -876.384564c -4.50  -2.95    +71.9328
iter:  32 23:14:19  -876.380450c -4.53  -2.97    +72.0118
iter:  33 23:15:52  -876.388677c -4.61  -2.99    +72.0647
iter:  34 23:17:25  -876.379882c -4.68  -3.01    +72.0962
iter:  35 23:18:57  -876.384135c -4.78  -3.13    +72.0543
iter:  36 23:20:31  -876.398518c -4.58  -3.11    +72.1120
iter:  37 23:22:04  -876.386131c -4.85  -3.10    +72.1543
iter:  38 23:23:38  -876.394408c -4.82  -3.21    +72.1342
iter:  39 23:25:10  -876.391538c -4.94  -3.19    +72.1390
iter:  40 23:26:42  -876.388671c -5.28  -3.22    +72.1530
iter:  41 23:28:15  -876.392124c -5.40  -3.32    +72.1905
iter:  42 23:29:47  -876.391123c -5.62  -3.30    +72.1637
iter:  43 23:31:20  -876.394885c -5.68  -3.34    +72.1652
iter:  44 23:32:52  -876.395058c -5.68  -3.35    +72.1591
iter:  45 23:34:25  -876.398974c -5.36  -3.36    +72.1535
iter:  46 23:35:58  -876.399952c -5.25  -3.38    +72.1451
iter:  47 23:37:31  -876.404452c -5.04  -3.38    +72.1211
iter:  48 23:39:03  -876.403129c -5.15  -3.33    +72.1332
iter:  49 23:40:36  -876.399601c -5.19  -3.50    +72.1203
iter:  50 23:42:09  -876.400918c -5.40  -3.45    +72.1138
iter:  51 23:43:42  -876.399734c -5.81  -3.54    +72.1269
iter:  52 23:45:15  -876.400588c -6.07  -3.68    +72.1272
iter:  53 23:46:47  -876.400962c -6.46  -3.70    +72.1274
iter:  54 23:48:20  -876.401935c -6.26  -3.72    +72.1113
iter:  55 23:49:53  -876.405452c -5.52  -3.75    +72.0856
iter:  56 23:51:26  -876.404375c -5.87  -3.83    +72.0738
iter:  57 23:52:59  -876.405189c -6.03  -3.84    +72.0671
iter:  58 23:54:31  -876.405384c -6.26  -4.04c   +72.0683
iter:  59 23:56:04  -876.405592c -6.56  -4.18c   +72.0698
iter:  60 23:57:37  -876.405869c -6.65  -4.32c   +72.0589
iter:  61 23:59:10  -876.406202c -6.67  -4.38c   +72.0552
iter:  62 00:00:43  -876.408311c -5.40  -4.36c   +72.0301
iter:  63 00:02:15  -876.411541c -4.93  -4.18c   +71.9875
iter:  64 00:03:48  -876.413069c -5.17  -3.98    +71.9612
iter:  65 00:05:21  -876.413894c -5.45  -3.88    +71.9439
iter:  66 00:06:54  -876.414875c -5.39  -3.84    +71.9167
iter:  67 00:08:27  -876.416377c -5.66  -3.78    +71.9031
iter:  68 00:10:00  -876.415576c -6.18  -3.69    +71.9142
iter:  69 00:11:33  -876.415844c -6.01  -3.70    +71.9027
iter:  70 00:13:05  -876.416448c -6.24  -3.73    +71.9023
iter:  71 00:14:38  -876.417289c -5.51  -3.66    +71.9018
iter:  72 00:16:11  -876.415498c -5.45  -3.62    +71.9028
iter:  73 00:17:44  -876.414285c -6.01  -3.57    +71.8825
iter:  74 00:19:16  -876.416049c -5.83  -3.83    +71.8832
iter:  75 00:20:49  -876.415077c -6.05  -3.67    +71.8796
iter:  76 00:22:22  -876.414202c -5.78  -3.76    +71.8751
iter:  77 00:23:55  -876.413647c -5.61  -3.77    +71.8889
iter:  78 00:25:28  -876.415581c -5.73  -3.66    +71.9008
iter:  79 00:27:01  -876.414521c -5.87  -3.78    +71.8988
iter:  80 00:28:33  -876.413537c -6.14  -3.81    +71.8985
iter:  81 00:30:07  -876.413492c -6.26  -3.92    +71.9147
iter:  82 00:31:39  -876.413875c -6.60  -4.00    +71.9199
iter:  83 00:33:12  -876.413947c -6.64  -4.05c   +71.9147
iter:  84 00:34:45  -876.412979c -6.68  -4.07c   +71.9189
iter:  85 00:36:18  -876.413660c -6.39  -4.08c   +71.9247
iter:  86 00:37:51  -876.413655c -6.61  -3.98    +71.9295
iter:  87 00:39:24  -876.413672c -6.58  -4.15c   +71.9274
iter:  88 00:40:57  -876.413127c -6.74  -4.07c   +71.9277
iter:  89 00:42:29  -876.413020c -6.93  -4.17c   +71.9384
iter:  90 00:44:02  -876.413556c -7.08  -4.24c   +71.9407
iter:  91 00:45:35  -876.413342c -7.11  -4.32c   +71.9406
iter:  92 00:47:08  -876.413155c -7.11  -4.26c   +71.9408
iter:  93 00:48:41  -876.413181c -7.07  -4.34c   +71.9452
iter:  94 00:50:13  -876.413493c -7.01  -4.27c   +71.9472
iter:  95 00:51:46  -876.413454c -7.03  -4.28c   +71.9437
iter:  96 00:53:19  -876.412856c -7.11  -4.34c   +71.9451
iter:  97 00:54:51  -876.413088c -7.35  -4.36c   +71.9489
iter:  98 00:56:24  -876.413205c -7.26  -4.43c   +71.9518
iter:  99 00:57:59  -876.413181c -7.57c -4.47c   +71.9508

Converged after 99 iterations.

Dipole moment: (14.819896, 26.972490, -0.997274) |e|*Ang

Total magnetic moment: (0.000000, 0.000000, 71.950773)
Local magnetic moments:
   0 Co ( 0.000000,  0.000000,  1.222158)
   1 Co ( 0.000000,  0.000000,  0.790358)
   2 Fe ( 0.000000,  0.000000,  1.980645)
   3 Fe ( 0.000000,  0.000000,  1.767703)
   4 Cr ( 0.000000,  0.000000, -0.242945)
   5 Cr ( 0.000000,  0.000000, -1.127986)
   6 Co ( 0.000000,  0.000000,  0.686451)
   7 Cr ( 0.000000,  0.000000, -0.784533)
   8 Fe ( 0.000000,  0.000000,  2.409020)
   9 Ni ( 0.000000,  0.000000,  0.399791)
  10 Ni ( 0.000000,  0.000000,  0.468388)
  11 Co ( 0.000000,  0.000000,  1.414239)
  12 Cr ( 0.000000,  0.000000, -0.702075)
  13 Fe ( 0.000000,  0.000000,  1.639788)
  14 Cr ( 0.000000,  0.000000, -1.501042)
  15 Fe ( 0.000000,  0.000000,  1.707658)
  16 Ni ( 0.000000,  0.000000,  0.086012)
  17 Co ( 0.000000,  0.000000,  1.398041)
  18 Ni ( 0.000000,  0.000000,  0.101864)
  19 Cr ( 0.000000,  0.000000, -1.486215)
  20 Co ( 0.000000,  0.000000,  0.859973)
  21 Ni ( 0.000000,  0.000000,  0.288221)
  22 Co ( 0.000000,  0.000000,  1.116299)
  23 Cr ( 0.000000,  0.000000, -0.626515)
  24 Fe ( 0.000000,  0.000000,  1.175678)
  25 Co ( 0.000000,  0.000000,  0.911201)
  26 Cr ( 0.000000,  0.000000, -0.742610)
  27 Cr ( 0.000000,  0.000000, -0.634802)
  28 Fe ( 0.000000,  0.000000,  1.961237)
  29 Cr ( 0.000000,  0.000000, -0.542579)
  30 Co ( 0.000000,  0.000000,  1.221470)
  31 Co ( 0.000000,  0.000000,  1.187702)
  32 Cr ( 0.000000,  0.000000,  0.383739)
  33 Ni ( 0.000000,  0.000000,  0.379462)
  34 Ni ( 0.000000,  0.000000,  0.182520)
  35 Cr ( 0.000000,  0.000000, -1.253969)
  36 Fe ( 0.000000,  0.000000,  2.004695)
  37 Ni ( 0.000000,  0.000000,  0.205741)
  38 Cr ( 0.000000,  0.000000, -0.339394)
  39 Fe ( 0.000000,  0.000000,  1.899995)
  40 Fe ( 0.000000,  0.000000,  2.301237)
  41 Co ( 0.000000,  0.000000,  0.834727)
  42 Cr ( 0.000000,  0.000000, -0.773354)
  43 Fe ( 0.000000,  0.000000,  2.151250)
  44 Fe ( 0.000000,  0.000000,  2.610552)
  45 Fe ( 0.000000,  0.000000,  2.429491)
  46 Ni ( 0.000000,  0.000000,  0.539104)
  47 Co ( 0.000000,  0.000000,  1.204379)
  48 Cr ( 0.000000,  0.000000, -1.353889)
  49 Ni ( 0.000000,  0.000000,  0.309820)
  50 Fe ( 0.000000,  0.000000,  2.240126)
  51 Co ( 0.000000,  0.000000,  1.200459)
  52 Co ( 0.000000,  0.000000,  1.161831)
  53 Fe ( 0.000000,  0.000000,  2.365848)
  54 Fe ( 0.000000,  0.000000,  2.349243)
  55 Ni ( 0.000000,  0.000000,  0.649050)
  56 Ni ( 0.000000,  0.000000,  0.487312)
  57 Fe ( 0.000000,  0.000000,  2.190262)
  58 Co ( 0.000000,  0.000000,  1.117040)
  59 Ni ( 0.000000,  0.000000,  0.308081)
  60 Ni ( 0.000000,  0.000000,  0.313398)
  61 Fe ( 0.000000,  0.000000,  1.462547)
  62 Fe ( 0.000000,  0.000000,  2.351225)
  63 Ni ( 0.000000,  0.000000,  0.286624)
  64 Fe ( 0.000000,  0.000000,  2.198022)
  65 Ni ( 0.000000,  0.000000,  0.283255)
  66 Co ( 0.000000,  0.000000,  1.631887)
  67 Ni ( 0.000000,  0.000000,  0.527196)
  68 Fe ( 0.000000,  0.000000,  2.483756)
  69 Co ( 0.000000,  0.000000,  1.302168)
  70 Cr ( 0.000000,  0.000000, -0.161110)
  71 Ni ( 0.000000,  0.000000,  0.556686)
  72 Co ( 0.000000,  0.000000,  0.882464)
  73 Co ( 0.000000,  0.000000,  0.295740)
  74 Fe ( 0.000000,  0.000000,  1.283260)
  75 Cr ( 0.000000,  0.000000,  0.273473)
  76 Cr ( 0.000000,  0.000000,  0.007020)
  77 Co ( 0.000000,  0.000000,  0.445923)
  78 Fe ( 0.000000,  0.000000,  1.467095)
  79 Cr ( 0.000000,  0.000000, -0.084180)
  80 Ni ( 0.000000,  0.000000,  0.322672)
  81 Fe ( 0.000000,  0.000000,  2.348596)
  82 Co ( 0.000000,  0.000000,  1.358092)
  83 Ni ( 0.000000,  0.000000,  0.542136)
  84 Cr ( 0.000000,  0.000000, -1.218765)
  85 Co ( 0.000000,  0.000000,  0.466401)
  86 Cr ( 0.000000,  0.000000, -0.029884)
  87 Ni ( 0.000000,  0.000000,  0.342677)
  88 Cr ( 0.000000,  0.000000, -1.313862)
  89 Fe ( 0.000000,  0.000000,  1.974644)
  90 Ni ( 0.000000,  0.000000,  0.215807)
  91 Co ( 0.000000,  0.000000,  1.336838)
  92 Ni ( 0.000000,  0.000000,  0.409468)
  93 Ni ( 0.000000,  0.000000,  0.213941)
  94 Ni ( 0.000000,  0.000000,  0.127459)
  95 Cr ( 0.000000,  0.000000, -0.674367)
  96 Ni ( 0.000000,  0.000000,  0.130904)
  97 Co ( 0.000000,  0.000000,  0.527402)
  98 Fe ( 0.000000,  0.000000,  1.688145)
  99 Cr ( 0.000000,  0.000000, -0.797784)
 100 Co ( 0.000000,  0.000000,  1.133016)
 101 Cr ( 0.000000,  0.000000, -0.267489)
 102 Fe ( 0.000000,  0.000000,  2.232815)
 103 Co ( 0.000000,  0.000000,  1.048555)
 104 Ni ( 0.000000,  0.000000,  0.280604)
 105 Co ( 0.000000,  0.000000,  1.312846)
 106 Cr ( 0.000000,  0.000000,  0.605200)
 107 Cr ( 0.000000,  0.000000, -1.094253)

Energy contributions relative to reference atoms: (reference = -3846758.590871)

Kinetic:       +330.195149
Potential:     -356.478347
External:        +0.000000
XC:            -887.578677
Entropy (-ST):   -4.585877
Local:          +39.741632
--------------------------
Free energy:   -878.706120
Extrapolated:  -876.413181

Spin contamination: 22.151896 electrons
Showing only first 2 kpts
                      Up                     Down
 Kpt  Band  Eigenvalues  Occupancy  Eigenvalues  Occupancy
  0   524      9.82008    0.99672     10.78702    0.01885
  0   525      9.83567    0.99617     10.80607    0.01563
  0   526      9.84530    0.99579     10.81331    0.01455
  0   527      9.85495    0.99536     10.82170    0.01340

  1   524      9.81164    0.99699     10.80022    0.01656
  1   525      9.82578    0.99653     10.80894    0.01520
  1   526      9.84077    0.99597     10.82155    0.01342
  1   527      9.85183    0.99550     10.83110    0.01221


Fermi level: 10.39179

No gap

Forces in eV/Ang:
  0 Co    0.17703   -0.14055   -0.01263
  1 Co    0.54532    0.32739    0.13199
  2 Fe   -0.20577   -0.22889    0.77829
  3 Fe   -0.39818   -0.65541    0.20616
  4 Cr    0.03853    1.37226   -0.13482
  5 Cr   -0.53992    0.30866   -0.72751
  6 Co    0.67321    0.50240    0.16658
  7 Cr   -0.73239   -2.52526   -1.94800
  8 Fe    0.23981   -0.20516   -0.50135
  9 Ni    0.21747    0.61952    0.29416
 10 Ni   -0.14999    1.18777   -1.96683
 11 Co   -0.82654   -0.29597   -0.62851
 12 Cr    0.48174    1.68157    0.50212
 13 Fe   -0.49725   -0.14813    0.20335
 14 Cr    0.87630   -0.14592   -0.72014
 15 Fe    0.14012    0.12651    1.18337
 16 Ni   -0.74639    0.30206    2.53512
 17 Co   -1.02840    0.01503   -1.19828
 18 Ni   -0.65742    0.96629    1.79337
 19 Cr    0.58667    1.18741    1.16300
 20 Co    0.62138   -0.28202    0.37798
 21 Ni    0.15766    0.25110   -0.06960
 22 Co    0.17041    0.33522    0.58531
 23 Cr    0.45420   -0.69307    0.39857
 24 Fe   -0.01453    0.35006    0.07639
 25 Co   -0.58478   -0.53302    0.21067
 26 Cr   -0.05780   -1.18695    0.12095
 27 Cr   -0.20011    0.03522    0.14120
 28 Fe   -0.60899    0.23453   -0.05741
 29 Cr    0.49894    0.22551    0.50031
 30 Co   -0.32984   -1.34918    0.27307
 31 Co   -0.59503   -0.22216   -0.05758
 32 Cr   -2.20589    0.84273   -1.11343
 33 Ni    0.73405    0.77399   -0.80287
 34 Ni    0.35189    0.84961    0.40673
 35 Cr    0.49466    0.25976   -0.64667
 36 Fe    0.40842   -0.43609   -0.63543
 37 Ni   -0.44492   -1.13062   -0.48028
 38 Cr   -0.06649    1.79013    1.29194
 39 Fe    0.37471    0.03486    0.57077
 40 Fe    0.19101    0.99135   -0.47065
 41 Co    0.06756    0.12898   -0.09925
 42 Cr   -1.16743   -0.29864   -1.41476
 43 Fe    0.57440   -0.02313   -0.00998
 44 Fe    0.14465    1.19471    0.64584
 45 Fe   -1.23873    1.03263   -0.94054
 46 Ni   -0.55326   -1.04866    1.45561
 47 Co   -0.72161    0.86077   -0.41413
 48 Cr    0.99038   -0.17400    0.41460
 49 Ni    0.29778   -1.19951    0.62601
 50 Fe   -0.34764    0.52625    0.00154
 51 Co   -1.08351    0.39633    0.60543
 52 Co   -1.61010    0.38292   -0.31831
 53 Fe    0.36680    0.52564   -0.82851
 54 Fe   -0.03493    0.24150   -0.25488
 55 Ni    0.57146    0.51189    0.46136
 56 Ni   -1.21194    0.05896    0.18388
 57 Fe   -0.98905    0.22327   -0.28695
 58 Co    0.99624   -1.56558    2.34037
 59 Ni   -1.92498    1.31330   -0.98661
 60 Ni    0.94745   -1.02912    0.28298
 61 Fe    1.39618    1.61031    0.14278
 62 Fe    0.14078   -0.04227    0.13924
 63 Ni   -0.14494   -0.62662   -1.75914
 64 Fe   -0.45367   -1.65486   -0.45783
 65 Ni    0.87133   -0.03071    0.01946
 66 Co    0.07455    0.41099    0.95969
 67 Ni    0.23004    1.34182    0.95317
 68 Fe   -1.30340   -1.69213    0.86457
 69 Co    0.06151    1.05188    1.04182
 70 Cr   -0.02511   -0.50557   -0.70784
 71 Ni    0.56967   -1.62428    1.23680
 72 Co    0.67991    0.71123   -1.72204
 73 Co   -0.57452   -1.11760   -0.01716
 74 Fe   -0.21924    1.72838   -0.43346
 75 Cr    2.12266   -0.09131    0.51102
 76 Cr   -0.42762    0.45496    0.12915
 77 Co    0.42682   -1.22125   -0.50951
 78 Fe    0.38243   -0.98415   -0.30503
 79 Cr    1.12632    0.53883    0.04631
 80 Ni    0.36465   -1.60397    0.41907
 81 Fe    0.83584   -0.47804    0.77834
 82 Co   -1.30884    0.60037   -0.02136
 83 Ni    2.49210    1.04284    1.31832
 84 Cr    0.04877    0.14719   -1.05933
 85 Co   -0.26486   -0.92432   -0.55353
 86 Cr   -1.50796    0.43361   -0.62845
 87 Ni    0.50920   -1.42560   -0.50188
 88 Cr   -0.78381   -0.32051   -0.90840
 89 Fe    0.72742   -0.20036   -0.95899
 90 Ni   -0.43544   -0.87009   -0.10620
 91 Co    0.71623    2.20344    0.36459
 92 Ni    1.24815   -0.30962   -0.21977
 93 Ni   -0.51540   -1.79594   -0.53849
 94 Ni    0.09712   -0.25897   -1.51481
 95 Cr    1.00818    0.08808    0.80545
 96 Ni   -0.20548   -1.74034    0.87953
 97 Co   -0.39842    0.14589   -1.05932
 98 Fe    0.97423   -0.54634    0.97187
 99 Cr    0.05538    0.45966   -0.13597
100 Co    0.26900   -1.35294    0.33053
101 Cr    1.15839   -0.92927    0.75154
102 Fe   -0.93114    0.74300   -0.09002
103 Co    1.32481    0.19914   -0.67726
104 Ni    0.31503   -0.08152   -1.46575
105 Co   -0.19386    0.28756    1.20735
106 Cr   -0.34471   -0.30472   -1.21048
107 Cr   -1.80680    1.07436    0.49609

Timing:                              incl.     excl.
-----------------------------------------------------------
Forces:                             18.272    18.272   0.2% |
Hamiltonian:                         0.494     0.003   0.0% |
 Atomic:                             0.301     0.075   0.0% |
  XC Correction:                     0.226     0.226   0.0% |
 Calculate atomic Hamiltonians:      0.108     0.108   0.0% |
 Communicate:                        0.001     0.001   0.0% |
 Initialize Hamiltonian:             0.000     0.000   0.0% |
 Poisson:                            0.000     0.000   0.0% |
 XC 3D grid:                         0.079     0.079   0.0% |
LCAO initialization:               140.031     0.679   0.0% |
 LCAO eigensolver:                  14.634     0.013   0.0% |
  Calculate projections:             0.332     0.332   0.0% |
  DenseAtomicCorrection:             0.487     0.487   0.0% |
  Distribute overlap matrix:         1.495     1.495   0.0% |
  Orbital Layouts:                   7.216     7.216   0.1% |
  Potential matrix:                  4.379     4.379   0.0% |
  Sum over cells:                    0.712     0.712   0.0% |
 LCAO to grid:                     123.060   123.060   1.3% ||
 Set positions (LCAO WFS):           1.658     0.857   0.0% |
  Basic WFS set positions:           0.002     0.002   0.0% |
  Basis functions set positions:     0.000     0.000   0.0% |
  P tci:                             0.406     0.406   0.0% |
  ST tci:                            0.162     0.162   0.0% |
  mktci:                             0.230     0.230   0.0% |
PWDescriptor:                        0.044     0.044   0.0% |
SCF-cycle:                        9198.900     0.732   0.0% |
 Davidson:                        9070.871  2073.832  22.2% |--------|
  Apply H:                          76.129    74.296   0.8% |
   HMM T:                            1.833     1.833   0.0% |
  Subspace diag:                   848.444     0.062   0.0% |
   calc_h_matrix:                  303.809   208.918   2.2% ||
    Apply H:                        94.892    92.975   1.0% |
     HMM T:                          1.917     1.917   0.0% |
   diagonalize:                    167.237   167.237   1.8% ||
   rotate_psi:                     377.335   377.335   4.0% |-|
  calc. matrices:                 1721.566  1588.918  17.0% |------|
   Apply H:                        132.647   128.997   1.4% ||
    HMM T:                           3.650     3.650   0.0% |
  diagonalize:                    3518.870  3518.870  37.6% |--------------|
  rotate_psi:                      832.030   832.030   8.9% |---|
 Density:                           67.955     0.002   0.0% |
  Atomic density matrices:           1.834     1.834   0.0% |
  Mix:                              14.599    14.599   0.2% |
  Multipole moments:                 0.030     0.030   0.0% |
  Pseudo density:                   51.489    51.486   0.6% |
   Symmetrize density:               0.003     0.003   0.0% |
 Hamiltonian:                       50.184     0.412   0.0% |
  Atomic:                           30.245     7.571   0.1% |
   XC Correction:                   22.674    22.674   0.2% |
  Calculate atomic Hamiltonians:    11.355    11.355   0.1% |
  Communicate:                       0.327     0.327   0.0% |
  Poisson:                           0.046     0.046   0.0% |
  XC 3D grid:                        7.799     7.799   0.1% |
 Orthonormalize:                     9.158     0.001   0.0% |
  calc_s_matrix:                     1.248     1.248   0.0% |
  inverse-cholesky:                  0.765     0.765   0.0% |
  projections:                       5.149     5.149   0.1% |
  rotate_psi_s:                      1.996     1.996   0.0% |
Set symmetry:                        0.001     0.001   0.0% |
Other:                               2.724     2.724   0.0% |
-----------------------------------------------------------
Total:                                      9360.466 100.0%

Date: Fri Apr 14 00:58:19 2023
