
  ___ ___ ___ _ _ _  
 |   |   |_  | | | | 
 | | | | | . | | | | 
 |__ |  _|___|_____|  22.8.0
 |___|_|             

User:   c.zeng@d0085
Date:   Thu Apr 13 20:07:05 2023
Arch:   x86_64
Pid:    122826
CWD:    /home/c.zeng/projects/hea-corrosion/hea-mlp/data-curation/bulk-md/dft-jobs/34
Python: 3.8.1
gpaw:   /home/c.zeng/usr/installs/gpaw/source/gpaw-22.8.0/gpaw
_gpaw:  /home/c.zeng/usr/installs/gpaw/source/gpaw-22.8.0/
        _gpaw.cpython-38-x86_64-linux-gnu.so
ase:    /home/c.zeng/.local/lib/python3.8/site-packages/ase-3.22.1-py3.8.egg/ase (version 3.22.1)
numpy:  /shared/centos7/python/3.8.1/lib/python3.8/site-packages/numpy (version 1.17.4)
scipy:  /shared/centos7/python/3.8.1/lib/python3.8/site-packages/scipy (version 1.4.1)
libxc:  4.2.3
units:  Angstrom and eV
cores: 30
OpenMP: False
OMP_NUM_THREADS: 1

Input parameters:
  convergence: {energy: 0.0001}
  kpts: [2 2 2]
  maxiter: 666
  mode: {ecut: 350.0,
         name: pw}
  occupations: {fixmagmom: False,
                name: fermi-dirac,
                width: 0.1}
  spinpol: True
  xc: PBE

System changes: positions, numbers, cell, pbc, initial_charges, initial_magmoms 

Initialize ...

species:
  Cr:
    name: Chromium
    id: 33f258bda2ca9f93018e70263a35547b
    Z: 24.0
    valence: 6
    core: 18
    charge: 0.0
    file: /home/c.zeng/usr/data/gpaw-setups-0.9.20000/Cr.PBE.gz
    compensation charges: {type: gauss,
                           rc: 0.35,
                           lmax: 2}
    cutoffs: {filter: 2.14,
              core: 3.04}
    valence states:
      #              energy  rcut
      - 4s(1.00)    -4.007   1.164
      - 4p(0.00)    -0.989   1.217
      - 3d(5.00)    -2.913   1.111
      -  s          23.205   1.164
      -  p          26.223   1.217
      -  d          24.299   1.111
  
    # Using partial waves for Cr as LCAO basis

  Al:
    name: Aluminium
    id: 0292cae29f5d6237e50f6abdd43a7bdd
    Z: 13.0
    valence: 3
    core: 10
    charge: 0.0
    file: /home/c.zeng/usr/data/gpaw-setups-0.9.20000/Al.PBE.gz
    compensation charges: {type: gauss,
                           rc: 0.34,
                           lmax: 2}
    cutoffs: {filter: 1.91,
              core: 2.36}
    valence states:
      #              energy  rcut
      - 3s(2.00)    -7.753   1.085
      - 3p(1.00)    -2.712   1.085
      -  s          19.459   1.085
      -  p          24.499   1.085
      -  d           0.000   1.085
  
    # Using partial waves for Al as LCAO basis

  Co:
    name: Cobalt
    id: 339d20d5b0b93d2de9531a1bee871d91
    Z: 27.0
    valence: 9
    core: 18
    charge: 0.0
    file: /home/c.zeng/usr/data/gpaw-setups-0.9.20000/Co.PBE.gz
    compensation charges: {type: gauss,
                           rc: 0.32,
                           lmax: 2}
    cutoffs: {filter: 1.87,
              core: 2.55}
    valence states:
      #              energy  rcut
      - 4s(2.00)    -5.469   1.005
      - 4p(0.00)    -1.277   1.058
      - 3d(7.00)    -8.205   1.005
      -  s          21.742   1.005
      -  p          25.934   1.058
      -  d          19.007   1.005
  
    # Using partial waves for Co as LCAO basis

  Fe:
    name: Iron
    id: 37abbd8d6c3c35915a9b583b742da910
    Z: 26.0
    valence: 8
    core: 18
    charge: 0.0
    file: /home/c.zeng/usr/data/gpaw-setups-0.9.20000/Fe.PBE.gz
    compensation charges: {type: gauss,
                           rc: 0.33,
                           lmax: 2}
    cutoffs: {filter: 2.06,
              core: 2.67}
    valence states:
      #              energy  rcut
      - 4s(2.00)    -5.291   1.164
      - 4p(0.00)    -1.326   1.058
      - 3d(6.00)    -7.505   1.058
      -  s          21.920   1.164
      -  p          25.885   1.058
      -  d          19.706   1.058
  
    # Using partial waves for Fe as LCAO basis

  Ni:
    name: Nickel
    id: 0d9f38a9d6e76a2886f07bb4381f212b
    Z: 28.0
    valence: 16
    core: 12
    charge: 0.0
    file: /home/c.zeng/usr/data/gpaw-setups-0.9.20000/Ni.PBE.gz
    compensation charges: {type: gauss,
                           rc: 0.36,
                           lmax: 2}
    cutoffs: {filter: 2.14,
              core: 1.98}
    valence states:
      #              energy  rcut
      - 4s(2.00)    -5.642   1.164
      - 3p(6.00)   -71.394   1.207
      - 4p(0.00)    -1.226   1.207
      - 3d(8.00)    -8.875   1.138
      -  s          21.570   1.164
      -  d          18.337   1.138
  
    # Using partial waves for Ni as LCAO basis

Reference energy: -3699400.456887  # eV

Spin-polarized calculation.
Magnetic moment: 143.500000

Convergence criteria:
 Maximum [total energy] change in last 3 cyles: 0.0001 eV / electron
 Maximum integral of absolute [dens]ity change: 0.0001 electrons / valence electron
 Maximum integral of absolute [eigenst]ate change: 4e-08 eV^2 / valence electron
 Maximum number of scf [iter]ations: 666
 (Square brackets indicate name in SCF output, whereas a 'c' in
 the SCF output indicates the quantity has converged.)

Symmetries present (total): 1

  ( 1  0  0)
  ( 0  1  0)
  ( 0  0  1)

8 k-points: 2 x 2 x 2 Monkhorst-Pack grid
4 k-points in the irreducible part of the Brillouin zone
       k-points in crystal coordinates                weights
   0:     0.25000000   -0.25000000   -0.25000000          2/8
   1:     0.25000000   -0.25000000    0.25000000          2/8
   2:     0.25000000    0.25000000   -0.25000000          2/8
   3:     0.25000000    0.25000000    0.25000000          2/8

Wave functions: Plane wave expansion
  Cutoff energy: 350.000 eV
  Number of coefficients (min, max): 18052, 18052
  Pulay-stress correction: 0.000000 eV/Ang^3 (de/decut=0.000000)
  Using FFTW library
  ScaLapack parameters: grid=1x1, blocksize=None
  Wavefunction extrapolation:
    Improved wavefunction reuse through dual PAW basis 

Occupation numbers: Fermi-Dirac:
  width: 0.1000  # eV
 

Eigensolver
   Davidson(niter=2) 

Densities:
  Coarse grid: 48*48*48 grid
  Fine grid: 96*96*96 grid
  Total Charge: 0.000000 

Density mixing:
  Method: difference
  Backend: pulay
  Linear mixing parameter: 0.05
  old densities: 5
  Damping of long wavelength oscillations: 50 

Hamiltonian:
  XC and Coulomb potentials evaluated on a 96*96*96 grid
  Using the PBE Exchange-Correlation functional
  External potential:
    NoExternalPotential
 

XC parameters: PBE with 2 nearest neighbor stencil

Memory estimate:
  Process memory now: 248.29 MiB
  Calculator: 1062.64 MiB
    Density: 5.44 MiB
      Arrays: 2.05 MiB
      Localized functions: 2.57 MiB
      Mixer: 0.82 MiB
    Hamiltonian: 1.60 MiB
      Arrays: 1.52 MiB
      XC: 0.00 MiB
      Poisson: 0.00 MiB
      vbar: 0.08 MiB
    Wavefunctions: 1055.59 MiB
      Arrays psit_nG: 774.57 MiB
      Eigensolver: 270.45 MiB
      Projections: 5.49 MiB
      Projectors: 0.70 MiB
      PW-descriptor: 4.38 MiB

Total number of cores used: 30
Parallelization over k-points: 2
Domain decomposition: 5 x 3 x 1

Number of atoms: 108
Number of atomic orbitals: 1025
Number of bands in calculation: 703
Number of valence electrons: 1020
Bands to converge: occupied

... initialized

Initializing position-dependent things.

Density initialized from atomic densities
Creating initial wave functions:
  703 bands from LCAO basis set

        .Cr--------------Cr-------.  
       /|  Ni      Cr       Cr    |  
      Cr|                         |  
     / Ni      Cr      Ale        |  
    /   |Fe       Co       Crr    Cr 
   /o   | Ni Fe    Cr Ni     Ni   |  
  /   Co|  Fe Co   CrNi       Ni  |  
 *      CFe   Ni Ni    CoCo    Fe |  
 |      |CoCr  CoNi Co   Cr Fe  NiFe 
 |    Fe|Fe  CAl  NiNi CoFeNiNi   |  
 |     Cr Ni CoCo  Fe FeCr  FeFe  |  
 |     Ni CrCr CoFCr NiNi      Cr |  
 |Co    |NiNi  CoCrCo   CNie     Ni  
 |  FCr .-FCr------CoCoFe--Cr-----.  
 |  CoFe     Fe       Ni         /   
 |    / Fe    CAlr      Nio     /    
 |   /   Co                    /     
 | Al     Cr       Co         /      
 | /                 FeNi    /       
 |/            Fe       Fe  /        
 *-------------------------*         

Positions:
   0 Cr     0.424963   -0.241118   10.490886    ( 0.0000,  0.0000,  0.0000)
   1 Al    10.894504    1.714529    1.787731    ( 0.0000,  0.0000,  0.0000)
   2 Cr     1.563543   10.543762    1.913237    ( 0.0000,  0.0000,  0.0000)
   3 Co     1.698635    1.983386   10.605294    ( 0.0000,  0.0000,  2.1000)
   4 Fe     3.261063    0.031150   -0.053889    ( 0.0000,  0.0000,  2.0000)
   5 Cr     3.306105    1.925181    1.802660    ( 0.0000,  0.0000,  0.0000)
   6 Ni     5.327132   10.578993    1.587866    ( 0.0000,  0.0000,  1.5000)
   7 Fe     5.243880    1.773349    0.083958    ( 0.0000,  0.0000,  2.0000)
   8 Cr     6.965775   -0.203168   -0.068391    ( 0.0000,  0.0000,  0.0000)
   9 Co     7.046789    1.886603    1.623283    ( 0.0000,  0.0000,  2.1000)
  10 Ni     8.877704   10.675499    1.654246    ( 0.0000,  0.0000,  1.5000)
  11 Fe     9.003557    1.853546   10.686723    ( 0.0000,  0.0000,  2.0000)
  12 Co     0.063920    3.495908   10.539274    ( 0.0000,  0.0000,  2.1000)
  13 Co     0.002682    5.316495    1.689474    ( 0.0000,  0.0000,  2.1000)
  14 Fe     1.844285    3.724622    1.748148    ( 0.0000,  0.0000,  2.0000)
  15 Fe     1.721231    5.328259   -0.095404    ( 0.0000,  0.0000,  2.0000)
  16 Fe     3.827847    3.618363   -0.160125    ( 0.0000,  0.0000,  2.0000)
  17 Fe     3.416267    5.462596    1.792736    ( 0.0000,  0.0000,  2.0000)
  18 Cr     5.207006    3.692999    1.790727    ( 0.0000,  0.0000,  0.0000)
  19 Co     5.485631    5.372438   -0.068155    ( 0.0000,  0.0000,  2.1000)
  20 Fe     7.147881    3.554953   10.705891    ( 0.0000,  0.0000,  2.0000)
  21 Ni     7.322742    5.313620    1.654846    ( 0.0000,  0.0000,  1.5000)
  22 Co     9.120203    3.460622    1.888443    ( 0.0000,  0.0000,  2.1000)
  23 Cr     9.093587    5.301965   -0.013711    ( 0.0000,  0.0000,  0.0000)
  24 Cr     0.051507    7.128862   -0.073345    ( 0.0000,  0.0000,  0.0000)
  25 Ni    -0.116146    8.842638    1.846181    ( 0.0000,  0.0000,  1.5000)
  26 Fe     1.777582    6.985266    1.726466    ( 0.0000,  0.0000,  2.0000)
  27 Ni     1.872100    8.600688   10.615673    ( 0.0000,  0.0000,  1.5000)
  28 Co     3.525147    7.072862    0.102167    ( 0.0000,  0.0000,  2.1000)
  29 Co     3.382673    8.939057    1.720008    ( 0.0000,  0.0000,  2.1000)
  30 Co     5.419554    7.062498    1.817576    ( 0.0000,  0.0000,  2.1000)
  31 Cr     5.098314    9.116255   -0.098121    ( 0.0000,  0.0000,  0.0000)
  32 Al     7.130554    7.097327   10.504929    ( 0.0000,  0.0000,  0.0000)
  33 Cr     7.258756    8.764271    1.682961    ( 0.0000,  0.0000,  0.0000)
  34 Cr     8.807078    6.921725    1.733958    ( 0.0000,  0.0000,  0.0000)
  35 Cr     8.908539    8.742378   10.640680    ( 0.0000,  0.0000,  0.0000)
  36 Fe    10.539477   10.630273    3.757577    ( 0.0000,  0.0000,  2.0000)
  37 Co    10.684816    1.762929    5.365911    ( 0.0000,  0.0000,  2.1000)
  38 Cr     1.717032   10.747865    5.357041    ( 0.0000,  0.0000,  0.0000)
  39 Fe     1.743078    1.805209    3.718363    ( 0.0000,  0.0000,  2.0000)
  40 Co     3.369326   10.760938    3.466037    ( 0.0000,  0.0000,  2.1000)
  41 Ni     3.648839    2.036638    5.418040    ( 0.0000,  0.0000,  1.5000)
  42 Ni     5.163158   -0.095139    5.414253    ( 0.0000,  0.0000,  1.5000)
  43 Al     5.145679    1.751617    3.551062    ( 0.0000,  0.0000,  0.0000)
  44 Fe     6.960131   10.546041    3.344441    ( 0.0000,  0.0000,  2.0000)
  45 Co     7.054588    1.705239    5.429239    ( 0.0000,  0.0000,  2.1000)
  46 Fe     8.945371   10.887351    5.583638    ( 0.0000,  0.0000,  2.0000)
  47 Ni     8.738074    1.866418    3.459489    ( 0.0000,  0.0000,  1.5000)
  48 Fe     0.195257    3.498332    3.594089    ( 0.0000,  0.0000,  2.0000)
  49 Fe    10.406475    5.297266    5.393868    ( 0.0000,  0.0000,  2.0000)
  50 Ni     1.594063    3.902424    5.445099    ( 0.0000,  0.0000,  1.5000)
  51 Ni     1.801139    5.368418    3.474594    ( 0.0000,  0.0000,  1.5000)
  52 Cr     3.285743    3.735242    3.689477    ( 0.0000,  0.0000,  0.0000)
  53 Co     3.450423    5.268935    5.347157    ( 0.0000,  0.0000,  2.1000)
  54 Fe     5.500550    3.701416    5.268861    ( 0.0000,  0.0000,  2.0000)
  55 Cr     5.117584    5.305134    3.486173    ( 0.0000,  0.0000,  0.0000)
  56 Co     7.045790    3.715999    3.614433    ( 0.0000,  0.0000,  2.1000)
  57 Fe     7.192845    5.314251    5.481062    ( 0.0000,  0.0000,  2.0000)
  58 Ni     8.936976    3.465661    5.073551    ( 0.0000,  0.0000,  1.5000)
  59 Fe     8.902195    5.266468    3.489490    ( 0.0000,  0.0000,  2.0000)
  60 Cr    -0.234292    7.055425    3.509399    ( 0.0000,  0.0000,  0.0000)
  61 Ni    -0.166862    8.745520    5.428372    ( 0.0000,  0.0000,  1.5000)
  62 Fe     1.505854    6.957930    5.180305    ( 0.0000,  0.0000,  2.0000)
  63 Ni     1.493314    8.875151    3.693202    ( 0.0000,  0.0000,  1.5000)
  64 Co     3.665184    7.139164    3.467760    ( 0.0000,  0.0000,  2.1000)
  65 Co     3.377813    8.963257    5.129916    ( 0.0000,  0.0000,  2.1000)
  66 Ni     5.165653    6.914481    5.406838    ( 0.0000,  0.0000,  1.5000)
  67 Fe     5.127852    9.048987    3.508431    ( 0.0000,  0.0000,  2.0000)
  68 Ni     7.141679    7.143514    3.696514    ( 0.0000,  0.0000,  1.5000)
  69 Al     7.126069    8.918197    5.585867    ( 0.0000,  0.0000,  0.0000)
  70 Ni     8.699980    7.009536    5.450338    ( 0.0000,  0.0000,  1.5000)
  71 Fe     8.886232    8.897084    3.558166    ( 0.0000,  0.0000,  2.0000)
  72 Cr    -0.119657   10.624971    7.435704    ( 0.0000,  0.0000,  0.0000)
  73 Fe    10.610744    1.849662    8.793305    ( 0.0000,  0.0000,  2.0000)
  74 Fe     1.959946   10.930445    8.657166    ( 0.0000,  0.0000,  2.0000)
  75 Cr     1.836349    1.944798    6.965929    ( 0.0000,  0.0000,  0.0000)
  76 Cr     3.677154   10.675175    6.985810    ( 0.0000,  0.0000,  0.0000)
  77 Cr     3.522128    1.863386    8.936861    ( 0.0000,  0.0000,  0.0000)
  78 Al     5.168655    0.052723    8.880994    ( 0.0000,  0.0000,  0.0000)
  79 Co     5.240268    1.632226    7.103784    ( 0.0000,  0.0000,  2.1000)
  80 Cr     6.946973    0.133562    7.128508    ( 0.0000,  0.0000,  0.0000)
  81 Co     7.368485    1.576991    9.136784    ( 0.0000,  0.0000,  2.1000)
  82 Co     8.993476    0.016233    9.109055    ( 0.0000,  0.0000,  2.1000)
  83 Cr     8.827882    1.965984    7.074563    ( 0.0000,  0.0000,  0.0000)
  84 Ni    -0.133608    3.430961    7.004172    ( 0.0000,  0.0000,  1.5000)
  85 Ni    -0.064391    5.041454    8.837641    ( 0.0000,  0.0000,  1.5000)
  86 Co     2.054676    3.479150    8.824384    ( 0.0000,  0.0000,  2.1000)
  87 Co     1.860544    5.338271    7.287741    ( 0.0000,  0.0000,  2.1000)
  88 Co     3.773665    3.600181    7.204615    ( 0.0000,  0.0000,  2.1000)
  89 Co     3.718624    5.363329    8.905673    ( 0.0000,  0.0000,  2.1000)
  90 Ni     5.555641    3.355124    8.922110    ( 0.0000,  0.0000,  1.5000)
  91 Ni     5.367289    5.154739    7.199564    ( 0.0000,  0.0000,  1.5000)
  92 Ni     6.993125    3.549385    7.127642    ( 0.0000,  0.0000,  1.5000)
  93 Ni     7.202864    5.354199    9.038390    ( 0.0000,  0.0000,  1.5000)
  94 Co     8.817615    3.423520    8.901829    ( 0.0000,  0.0000,  2.1000)
  95 Cr     8.706216    4.907284    7.155107    ( 0.0000,  0.0000,  0.0000)
  96 Fe    -0.060482    7.076193    7.159154    ( 0.0000,  0.0000,  2.0000)
  97 Ni     0.185715    8.674427    8.881986    ( 0.0000,  0.0000,  1.5000)
  98 Ni     1.738697    6.935415    8.918999    ( 0.0000,  0.0000,  1.5000)
  99 Fe     1.833342    8.957926    7.002099    ( 0.0000,  0.0000,  2.0000)
 100 Ni     3.356525    7.147699    6.906659    ( 0.0000,  0.0000,  1.5000)
 101 Cr     3.363559    9.015845    8.823299    ( 0.0000,  0.0000,  0.0000)
 102 Cr     5.490860    7.162711    8.807138    ( 0.0000,  0.0000,  0.0000)
 103 Cr     4.967519    8.833105    7.128394    ( 0.0000,  0.0000,  0.0000)
 104 Co     7.118272    7.026732    7.206012    ( 0.0000,  0.0000,  2.1000)
 105 Fe     6.832808    9.054832    8.687806    ( 0.0000,  0.0000,  2.0000)
 106 Cr     9.019013    7.200069    9.045626    ( 0.0000,  0.0000,  0.0000)
 107 Ni     8.936704    8.839784    7.152095    ( 0.0000,  0.0000,  1.5000)

Unit cell:
           periodic     x           y           z      points  spacing
  1. axis:    yes   10.671700    0.000000    0.000000    48     0.2223
  2. axis:    yes    0.000000   10.671700    0.000000    48     0.2223
  3. axis:    yes    0.000000    0.000000   10.671700    48     0.2223

  Lengths:  10.671700  10.671700  10.671700
  Angles:   90.000000  90.000000  90.000000

Effective grid spacing dv^(1/3) = 0.2223

     iter     time        total  log10-change:  magmom
                         energy  eigst   dens
iter:   1 20:10:52 -1032.607361                  +143.7778
iter:   2 20:12:18  -921.048018  -0.26  -1.21    +82.7319
iter:   3 20:13:44  -902.739270  -0.93  -1.23    +70.1991
iter:   4 20:15:11  -889.138053  -1.31  -1.30    +66.4774
iter:   5 20:16:37  -874.428543  -1.56  -1.32    +62.7665
iter:   6 20:18:04  -876.703064  -1.26  -1.38    +63.1606
iter:   7 20:19:30  -874.076592  -1.19  -1.46    +62.0669
iter:   8 20:20:56  -857.926923  -1.68  -1.53    +60.4045
iter:   9 20:22:25  -856.375345  -2.09  -1.75    +61.3009
iter:  10 20:23:51  -856.505696  -2.38  -1.82    +62.3696
iter:  11 20:25:18  -856.264154  -2.59  -1.84    +63.3131
iter:  12 20:26:44  -857.889553  -2.41  -1.88    +64.7359
iter:  13 20:28:10  -858.111570  -2.35  -1.88    +65.0956
iter:  14 20:29:37  -857.452352  -2.38  -1.93    +65.4190
iter:  15 20:31:03  -857.003318  -2.57  -2.02    +66.2032
iter:  16 20:32:29  -856.687024  -2.82  -2.09    +66.6493
iter:  17 20:33:56  -856.887932  -2.97  -2.19    +67.0414
iter:  18 20:35:22  -857.006383  -2.97  -2.18    +67.2656
iter:  19 20:36:48  -856.593711  -3.12  -2.20    +67.6343
iter:  20 20:38:15  -856.844933  -3.22  -2.29    +67.9095
iter:  21 20:39:41  -856.596159  -3.05  -2.27    +67.9459
iter:  22 20:41:08  -856.816145  -3.13  -2.43    +68.1963
iter:  23 20:42:34  -856.707917  -3.09  -2.37    +68.3080
iter:  24 20:44:00  -856.683171  -3.29  -2.48    +68.3745
iter:  25 20:45:27  -856.643241c -3.38  -2.52    +68.3997
iter:  26 20:46:53  -856.599637c -3.55  -2.54    +68.4311
iter:  27 20:48:19  -856.479784  -3.93  -2.59    +68.6106
iter:  28 20:49:45  -856.500541  -4.06  -2.77    +68.6294
iter:  29 20:51:11  -856.497364c -4.34  -2.77    +68.6845
iter:  30 20:52:37  -856.514298c -4.21  -2.82    +68.7238
iter:  31 20:54:04  -856.548396c -4.06  -2.80    +68.7515
iter:  32 20:55:30  -856.537436c -4.05  -2.81    +68.7782
iter:  33 20:56:56  -856.527863c -4.21  -2.88    +68.7693
iter:  34 20:58:22  -856.551871c -4.20  -2.93    +68.8199
iter:  35 20:59:49  -856.524922c -4.40  -2.89    +68.7965
iter:  36 21:01:15  -856.526642c -4.60  -3.01    +68.7795
iter:  37 21:02:41  -856.525071c -5.02  -3.06    +68.7904
iter:  38 21:04:08  -856.529460c -5.19  -3.12    +68.7889
iter:  39 21:05:34  -856.540695c -4.85  -3.15    +68.7770
iter:  40 21:07:00  -856.543207c -4.89  -3.11    +68.7585
iter:  41 21:08:27  -856.552893c -4.74  -3.19    +68.7694
iter:  42 21:09:53  -856.559901c -4.54  -3.16    +68.7637
iter:  43 21:11:20  -856.557008c -4.66  -3.08    +68.7285
iter:  44 21:12:46  -856.554414c -4.86  -3.25    +68.7246
iter:  45 21:14:13  -856.557025c -5.08  -3.33    +68.7287
iter:  46 21:15:39  -856.557858c -5.47  -3.37    +68.7477
iter:  47 21:17:05  -856.562423c -5.43  -3.46    +68.7339
iter:  48 21:18:32  -856.567073c -5.47  -3.48    +68.7457
iter:  49 21:19:59  -856.567660c -5.72  -3.41    +68.7414
iter:  50 21:21:25  -856.572376c -5.47  -3.43    +68.7619
iter:  51 21:22:52  -856.576807c -5.52  -3.45    +68.7814
iter:  52 21:24:18  -856.581056c -5.60  -3.45    +68.8016
iter:  53 21:25:45  -856.591354c -5.13  -3.42    +68.8256
iter:  54 21:27:12  -856.588918c -5.32  -3.33    +68.8222
iter:  55 21:28:38  -856.594634c -5.18  -3.34    +68.8332
iter:  56 21:30:05  -856.598190c -5.09  -3.43    +68.8516
iter:  57 21:31:31  -856.599377c -4.95  -3.36    +68.8537
iter:  58 21:32:58  -856.597202c -5.58  -3.38    +68.8454
iter:  59 21:34:25  -856.601389c -5.24  -3.56    +68.8348
iter:  60 21:35:51  -856.602841c -5.71  -3.52    +68.8501
iter:  61 21:37:18  -856.604411c -5.62  -3.62    +68.8461
iter:  62 21:38:44  -856.608500c -5.39  -3.64    +68.8556
iter:  63 21:40:11  -856.611546c -5.35  -3.64    +68.8623
iter:  64 21:41:38  -856.610520c -5.83  -3.52    +68.8637
iter:  65 21:43:05  -856.611628c -5.64  -3.72    +68.8652
iter:  66 21:44:31  -856.612657c -5.54  -3.72    +68.8533
iter:  67 21:45:58  -856.613162c -5.75  -3.61    +68.8607
iter:  68 21:47:24  -856.613453c -5.72  -3.77    +68.8581
iter:  69 21:48:51  -856.613104c -6.00  -3.68    +68.8587
iter:  70 21:50:18  -856.613844c -6.15  -3.87    +68.8603
iter:  71 21:51:44  -856.614380c -6.31  -3.86    +68.8619
iter:  72 21:53:11  -856.614931c -6.39  -3.90    +68.8669
iter:  73 21:54:38  -856.614886c -6.33  -3.93    +68.8604
iter:  74 21:56:04  -856.615672c -6.47  -3.92    +68.8634
iter:  75 21:57:31  -856.615884c -6.53  -3.92    +68.8662
iter:  76 21:58:58  -856.616255c -6.65  -3.97    +68.8655
iter:  77 22:00:25  -856.616593c -6.57  -3.99    +68.8634
iter:  78 22:01:51  -856.616947c -6.61  -3.99    +68.8580
iter:  79 22:03:18  -856.617764c -6.20  -4.00c   +68.8556
iter:  80 22:04:44  -856.620107c -5.32  -3.94    +68.8645
iter:  81 22:06:11  -856.619816c -5.97  -3.90    +68.8712
iter:  82 22:07:38  -856.619859c -6.19  -3.91    +68.8689
iter:  83 22:09:04  -856.619890c -6.59  -4.30c   +68.8635
iter:  84 22:10:31  -856.619870c -6.82  -4.20c   +68.8600
iter:  85 22:11:58  -856.619903c -6.98  -4.30c   +68.8553
iter:  86 22:13:24  -856.619839c -7.46c -4.41c   +68.8535

Converged after 86 iterations.

Dipole moment: (17.008933, 3.175028, 51.506488) |e|*Ang

Total magnetic moment: (0.000000, 0.000000, 68.853457)
Local magnetic moments:
   0 Cr ( 0.000000,  0.000000,  1.560751)
   1 Al ( 0.000000,  0.000000, -0.048346)
   2 Cr ( 0.000000,  0.000000, -1.267693)
   3 Co ( 0.000000,  0.000000,  0.879967)
   4 Fe ( 0.000000,  0.000000,  1.667154)
   5 Cr ( 0.000000,  0.000000, -1.253684)
   6 Ni ( 0.000000,  0.000000,  0.287724)
   7 Fe ( 0.000000,  0.000000,  2.064704)
   8 Cr ( 0.000000,  0.000000, -0.579473)
   9 Co ( 0.000000,  0.000000,  1.397791)
  10 Ni ( 0.000000,  0.000000,  0.292422)
  11 Fe ( 0.000000,  0.000000,  2.351078)
  12 Co ( 0.000000,  0.000000,  1.317780)
  13 Co ( 0.000000,  0.000000,  0.804556)
  14 Fe ( 0.000000,  0.000000,  1.688540)
  15 Fe ( 0.000000,  0.000000,  2.322570)
  16 Fe ( 0.000000,  0.000000,  2.003084)
  17 Fe ( 0.000000,  0.000000,  1.572826)
  18 Cr ( 0.000000,  0.000000, -0.296232)
  19 Co ( 0.000000,  0.000000,  1.236602)
  20 Fe ( 0.000000,  0.000000,  2.269145)
  21 Ni ( 0.000000,  0.000000,  0.298689)
  22 Co ( 0.000000,  0.000000,  1.408099)
  23 Cr ( 0.000000,  0.000000, -0.784453)
  24 Cr ( 0.000000,  0.000000, -0.376689)
  25 Ni ( 0.000000,  0.000000,  0.160776)
  26 Fe ( 0.000000,  0.000000,  2.158790)
  27 Ni ( 0.000000,  0.000000,  0.258814)
  28 Co ( 0.000000,  0.000000,  1.405207)
  29 Co ( 0.000000,  0.000000,  1.134966)
  30 Co ( 0.000000,  0.000000,  1.322743)
  31 Cr ( 0.000000,  0.000000,  0.777122)
  32 Al ( 0.000000,  0.000000, -0.009680)
  33 Cr ( 0.000000,  0.000000, -0.929474)
  34 Cr ( 0.000000,  0.000000,  0.530840)
  35 Cr ( 0.000000,  0.000000,  0.169668)
  36 Fe ( 0.000000,  0.000000,  2.061437)
  37 Co ( 0.000000,  0.000000,  0.731665)
  38 Cr ( 0.000000,  0.000000, -1.086421)
  39 Fe ( 0.000000,  0.000000,  1.668506)
  40 Co ( 0.000000,  0.000000,  0.817238)
  41 Ni ( 0.000000,  0.000000,  0.072257)
  42 Ni ( 0.000000,  0.000000,  0.199319)
  43 Al ( 0.000000,  0.000000, -0.019663)
  44 Fe ( 0.000000,  0.000000,  2.477487)
  45 Co ( 0.000000,  0.000000,  1.095018)
  46 Fe ( 0.000000,  0.000000,  1.861206)
  47 Ni ( 0.000000,  0.000000,  0.588554)
  48 Fe ( 0.000000,  0.000000,  2.318714)
  49 Fe ( 0.000000,  0.000000,  2.260739)
  50 Ni ( 0.000000,  0.000000,  0.411350)
  51 Ni ( 0.000000,  0.000000,  0.365565)
  52 Cr ( 0.000000,  0.000000, -0.670567)
  53 Co ( 0.000000,  0.000000,  1.202600)
  54 Fe ( 0.000000,  0.000000,  2.029953)
  55 Cr ( 0.000000,  0.000000, -0.463514)
  56 Co ( 0.000000,  0.000000,  1.340605)
  57 Fe ( 0.000000,  0.000000,  2.206906)
  58 Ni ( 0.000000,  0.000000,  0.424613)
  59 Fe ( 0.000000,  0.000000,  2.026843)
  60 Cr ( 0.000000,  0.000000, -1.657250)
  61 Ni ( 0.000000,  0.000000,  0.375053)
  62 Fe ( 0.000000,  0.000000,  2.490267)
  63 Ni ( 0.000000,  0.000000,  0.344457)
  64 Co ( 0.000000,  0.000000,  1.283240)
  65 Co ( 0.000000,  0.000000,  1.135396)
  66 Ni ( 0.000000,  0.000000,  0.415643)
  67 Fe ( 0.000000,  0.000000,  2.494566)
  68 Ni ( 0.000000,  0.000000,  0.218464)
  69 Al ( 0.000000,  0.000000, -0.030000)
  70 Ni ( 0.000000,  0.000000,  0.454180)
  71 Fe ( 0.000000,  0.000000,  2.168329)
  72 Cr ( 0.000000,  0.000000, -1.426114)
  73 Fe ( 0.000000,  0.000000,  1.806153)
  74 Fe ( 0.000000,  0.000000,  0.294814)
  75 Cr ( 0.000000,  0.000000, -0.271223)
  76 Cr ( 0.000000,  0.000000, -0.073794)
  77 Cr ( 0.000000,  0.000000, -0.908934)
  78 Al ( 0.000000,  0.000000, -0.013220)
  79 Co ( 0.000000,  0.000000,  0.333896)
  80 Cr ( 0.000000,  0.000000, -1.187151)
  81 Co ( 0.000000,  0.000000,  0.833207)
  82 Co ( 0.000000,  0.000000,  0.442490)
  83 Cr ( 0.000000,  0.000000, -1.284964)
  84 Ni ( 0.000000,  0.000000,  0.122811)
  85 Ni ( 0.000000,  0.000000,  0.320595)
  86 Co ( 0.000000,  0.000000,  0.919694)
  87 Co ( 0.000000,  0.000000,  1.631004)
  88 Co ( 0.000000,  0.000000,  1.272600)
  89 Co ( 0.000000,  0.000000,  1.433177)
  90 Ni ( 0.000000,  0.000000,  0.424931)
  91 Ni ( 0.000000,  0.000000,  0.484695)
  92 Ni ( 0.000000,  0.000000,  0.110496)
  93 Ni ( 0.000000,  0.000000,  0.105908)
  94 Co ( 0.000000,  0.000000,  0.724477)
  95 Cr ( 0.000000,  0.000000, -1.702915)
  96 Fe ( 0.000000,  0.000000,  2.455768)
  97 Ni ( 0.000000,  0.000000,  0.186921)
  98 Ni ( 0.000000,  0.000000,  0.464572)
  99 Fe ( 0.000000,  0.000000,  2.034684)
 100 Ni ( 0.000000,  0.000000,  0.444834)
 101 Cr ( 0.000000,  0.000000, -0.871406)
 102 Cr ( 0.000000,  0.000000, -1.409947)
 103 Cr ( 0.000000,  0.000000,  0.692151)
 104 Co ( 0.000000,  0.000000,  1.020212)
 105 Fe ( 0.000000,  0.000000,  1.004921)
 106 Cr ( 0.000000,  0.000000, -0.074795)
 107 Ni ( 0.000000,  0.000000,  0.198746)

Energy contributions relative to reference atoms: (reference = -3699400.456887)

Kinetic:       +365.894433
Potential:     -373.441859
External:        +0.000000
XC:            -884.417953
Entropy (-ST):   -4.484964
Local:          +37.588022
--------------------------
Free energy:   -858.862321
Extrapolated:  -856.619839

Spin contamination: 22.976613 electrons
Showing only first 2 kpts
                      Up                     Down
 Kpt  Band  Eigenvalues  Occupancy  Eigenvalues  Occupancy
  0   508      9.63523    0.99622     10.60094    0.01657
  0   509      9.64199    0.99596     10.61112    0.01499
  0   510      9.66130    0.99510     10.61859    0.01393
  0   511      9.66672    0.99483     10.63518    0.01183

  1   508      9.62588    0.99656     10.59642    0.01733
  1   509      9.63942    0.99606     10.61100    0.01501
  1   510      9.65371    0.99545     10.62201    0.01347
  1   511      9.66598    0.99486     10.62642    0.01289


Fermi level: 10.19262

No gap

Forces in eV/Ang:
  0 Cr   -1.03577    1.42408    0.52032
  1 Al   -1.93272    1.27000    0.02197
  2 Cr    1.78532   -1.37061   -0.53414
  3 Co    1.44443   -1.47503    0.00596
  4 Fe    0.03964    0.40748    1.24410
  5 Cr    0.05046   -0.47161   -0.99372
  6 Ni   -1.24494    0.95785    1.73582
  7 Fe    0.20041   -0.52855    0.00276
  8 Cr    1.08981    0.04342    0.34559
  9 Co    0.38281   -0.60282    0.89694
 10 Ni    0.32739    0.19936    0.25067
 11 Fe    0.06776   -0.88913    0.93814
 12 Co   -0.64543    0.69496    0.97991
 13 Co    0.01168   -0.15952    0.59383
 14 Fe    0.13023   -0.76934   -0.50842
 15 Fe    0.58229   -0.94234   -0.15155
 16 Fe   -1.52386    0.64771    1.05205
 17 Fe    1.73935   -1.11285   -0.76682
 18 Cr    0.13799   -0.05024    0.31743
 19 Co   -1.53439   -0.30430    0.88835
 20 Fe    0.18052    0.23314    0.05802
 21 Ni   -1.98257   -0.97913    0.94025
 22 Co   -0.79609    0.76132   -1.03719
 23 Cr   -0.27552   -0.89492   -0.15030
 24 Cr   -0.65809   -0.85918    1.06661
 25 Ni    0.29434   -0.04015   -0.78232
 26 Fe   -1.06601    1.57021    0.95333
 27 Ni   -0.72010    1.48458    0.55513
 28 Co    1.68253   -0.69274   -1.02611
 29 Co    0.65776    0.07500    0.82158
 30 Co   -0.09302    0.44355   -0.56597
 31 Cr    0.10350   -2.74515    0.66737
 32 Al   -1.05338    0.51185    1.64945
 33 Cr   -0.76426    0.55243    1.19834
 34 Cr    0.94414    1.55479    0.30639
 35 Cr    0.71202    1.59572   -0.43240
 36 Fe   -0.22007    0.53530   -0.81048
 37 Co   -0.16406    0.12083    0.18116
 38 Cr    0.30750   -0.38727    0.10919
 39 Fe    0.83102   -0.00932   -0.03713
 40 Co    0.16753   -0.59585    0.11479
 41 Ni   -0.71365   -0.69412   -0.81828
 42 Ni    1.84520    0.77311   -2.15869
 43 Al    1.18951   -0.03114   -0.05927
 44 Fe    1.50520    0.86460    0.76519
 45 Co   -0.18241    0.65900   -1.27557
 46 Fe   -0.38877   -1.39381   -0.64607
 47 Ni    0.11626   -2.02293    0.26737
 48 Fe   -1.15358    0.61474   -0.49500
 49 Fe    0.49694    0.34718    0.36370
 50 Ni    0.81736   -1.46235    0.14596
 51 Ni   -1.29227    1.13519    0.80028
 52 Cr    1.22855   -1.45485   -0.94223
 53 Co    0.64939    0.79660    0.41965
 54 Fe   -1.60582   -0.80840    0.11847
 55 Cr    1.09356   -0.11251   -0.14538
 56 Co    0.11426   -0.91180   -1.25706
 57 Fe   -0.69429    0.17268   -0.86117
 58 Ni   -0.69236    0.01448    1.38134
 59 Fe   -0.10267    0.29813    0.29659
 60 Cr    0.36970   -0.05288    0.01637
 61 Ni    0.40353    0.94509   -0.14889
 62 Fe    1.12401    0.30162    0.96643
 63 Ni    0.87493   -0.22545   -0.75140
 64 Co   -0.98388    0.19200    0.53609
 65 Co    0.34793   -0.95507    0.70297
 66 Ni    1.04245    0.89271   -0.06033
 67 Fe    0.54660   -1.19734   -0.10672
 68 Ni   -0.96148   -0.25466   -0.80340
 69 Al   -0.43285   -0.54952   -1.47266
 70 Ni    1.58537    0.67334   -0.30401
 71 Fe   -0.58136    0.15753    0.32031
 72 Cr    0.50895    0.27474   -1.25001
 73 Fe    0.90474   -0.46478    0.06306
 74 Fe   -0.82053   -0.58489   -0.07413
 75 Cr   -0.50494   -0.55930    0.16306
 76 Cr   -2.58063    0.38323   -0.16310
 77 Cr    0.46236    0.36729   -0.18559
 78 Al    0.52391    1.43352    0.21943
 79 Co    0.51782    1.27656    0.24298
 80 Cr    1.22596   -0.21543    0.88975
 81 Co   -2.01764    0.71767   -0.95367
 82 Co    0.22755   -1.32283   -0.37239
 83 Cr   -0.68072   -1.01590    0.14763
 84 Ni    1.14298    0.96687    0.73101
 85 Ni    0.40117    1.29441   -0.83392
 86 Co   -1.98852    1.18634   -0.02743
 87 Co   -0.47032   -0.66844   -0.68811
 88 Co   -1.19850   -0.27704   -0.41833
 89 Co   -0.49164    0.39896    0.06532
 90 Ni   -0.46953    0.30125   -0.00026
 91 Ni    0.23657    2.37312   -0.15049
 92 Ni    0.27053   -1.98577   -0.04903
 93 Ni    0.27589   -0.65707   -1.28307
 94 Co    0.05369    0.70102    0.41117
 95 Cr    1.36960    2.81966   -0.13154
 96 Fe    0.26978   -1.06662   -0.28717
 97 Ni   -0.06919    1.87315   -0.76952
 98 Ni    1.01638    0.62589   -0.81450
 99 Fe   -0.73487    0.01125    0.21208
100 Ni    0.12338   -0.52847    0.95906
101 Cr   -0.28941   -1.93445   -0.05976
102 Cr   -2.44707   -0.14118   -1.01292
103 Cr    0.37305   -0.39022   -0.12601
104 Co   -0.19810   -0.20954    0.42315
105 Fe    2.27532   -0.53687    0.18224
106 Cr   -0.24729   -0.88291   -1.61902
107 Ni   -0.69778    0.50874    1.15770

Timing:                              incl.     excl.
-----------------------------------------------------------
Forces:                             16.541    16.541   0.2% |
Hamiltonian:                         0.499     0.003   0.0% |
 Atomic:                             0.302     0.105   0.0% |
  XC Correction:                     0.197     0.197   0.0% |
 Calculate atomic Hamiltonians:      0.117     0.117   0.0% |
 Communicate:                        0.002     0.002   0.0% |
 Initialize Hamiltonian:             0.000     0.000   0.0% |
 Poisson:                            0.000     0.000   0.0% |
 XC 3D grid:                         0.074     0.074   0.0% |
LCAO initialization:               130.520     0.849   0.0% |
 LCAO eigensolver:                  13.616     0.013   0.0% |
  Calculate projections:             0.432     0.432   0.0% |
  DenseAtomicCorrection:             0.640     0.640   0.0% |
  Distribute overlap matrix:         1.049     1.049   0.0% |
  Orbital Layouts:                   6.541     6.541   0.1% |
  Potential matrix:                  4.287     4.287   0.1% |
  Sum over cells:                    0.655     0.655   0.0% |
 LCAO to grid:                     114.440   114.440   1.5% ||
 Set positions (LCAO WFS):           1.614     0.726   0.0% |
  Basic WFS set positions:           0.002     0.002   0.0% |
  Basis functions set positions:     0.000     0.000   0.0% |
  P tci:                             0.531     0.531   0.0% |
  ST tci:                            0.149     0.149   0.0% |
  mktci:                             0.206     0.206   0.0% |
PWDescriptor:                        0.046     0.046   0.0% |
SCF-cycle:                        7447.293     7.380   0.1% |
 Davidson:                        7323.327  1753.138  23.1% |--------|
  Apply H:                          57.251    55.576   0.7% |
   HMM T:                            1.674     1.674   0.0% |
  Subspace diag:                   697.290     0.056   0.0% |
   calc_h_matrix:                  256.122   176.554   2.3% ||
    Apply H:                        79.567    77.871   1.0% |
     HMM T:                          1.696     1.696   0.0% |
   diagonalize:                    124.833   124.833   1.6% ||
   rotate_psi:                     316.279   316.279   4.2% |-|
  calc. matrices:                 1412.581  1300.679  17.1% |------|
   Apply H:                        111.902   108.597   1.4% ||
    HMM T:                           3.304     3.304   0.0% |
  diagonalize:                    2700.469  2700.469  35.5% |-------------|
  rotate_psi:                      702.599   702.599   9.2% |---|
 Density:                           60.834     0.002   0.0% |
  Atomic density matrices:           1.538     1.538   0.0% |
  Mix:                              16.374    16.374   0.2% |
  Multipole moments:                 0.027     0.027   0.0% |
  Pseudo density:                   42.893    42.891   0.6% |
   Symmetrize density:               0.003     0.003   0.0% |
 Hamiltonian:                       46.945     0.402   0.0% |
  Atomic:                           26.149     8.104   0.1% |
   XC Correction:                   18.045    18.045   0.2% |
  Calculate atomic Hamiltonians:    13.147    13.147   0.2% |
  Communicate:                       0.384     0.384   0.0% |
  Poisson:                           0.042     0.042   0.0% |
  XC 3D grid:                        6.821     6.821   0.1% |
 Orthonormalize:                     8.806     0.001   0.0% |
  calc_s_matrix:                     1.244     1.244   0.0% |
  inverse-cholesky:                  0.635     0.635   0.0% |
  projections:                       4.975     4.975   0.1% |
  rotate_psi_s:                      1.951     1.951   0.0% |
Set symmetry:                        0.001     0.001   0.0% |
Other:                               2.577     2.577   0.0% |
-----------------------------------------------------------
Total:                                      7597.477 100.0%

Date: Thu Apr 13 22:13:42 2023
