
  ___ ___ ___ _ _ _  
 |   |   |_  | | | | 
 | | | | | . | | | | 
 |__ |  _|___|_____|  22.8.0
 |___|_|             

User:   c.zeng@d0058
Date:   Tue Apr 18 12:50:56 2023
Arch:   x86_64
Pid:    236090
CWD:    /home/c.zeng/projects/hea-corrosion/hea-mlp/data-curation/surface-mcmc/dft-jobs/107
Python: 3.8.1
gpaw:   /home/c.zeng/usr/installs/gpaw/source/gpaw-22.8.0/gpaw
_gpaw:  /home/c.zeng/usr/installs/gpaw/source/gpaw-22.8.0/
        _gpaw.cpython-38-x86_64-linux-gnu.so
ase:    /home/c.zeng/.local/lib/python3.8/site-packages/ase-3.22.1-py3.8.egg/ase (version 3.22.1)
numpy:  /home/c.zeng/.local/lib/python3.8/site-packages/numpy (version 1.24.2)
scipy:  /home/c.zeng/.local/lib/python3.8/site-packages/scipy (version 1.10.1)
libxc:  4.2.3
units:  Angstrom and eV
cores: 30
OpenMP: False
OMP_NUM_THREADS: 1

Input parameters:
  convergence: {energy: 0.0001}
  kpts: [2 2 1]
  maxiter: 666
  mode: {ecut: 350.0,
         name: pw}
  occupations: {fixmagmom: False,
                name: fermi-dirac,
                width: 0.1}
  poissonsolver: {dipolelayer: xy}
  spinpol: True
  symmetry: {point_group: False}
  xc: PBE

System changes: positions, numbers, cell, pbc, initial_charges, initial_magmoms 

Initialize ...

species:
  Fe:
    name: Iron
    id: 37abbd8d6c3c35915a9b583b742da910
    Z: 26.0
    valence: 8
    core: 18
    charge: 0.0
    file: /home/c.zeng/usr/data/gpaw-setups-0.9.20000/Fe.PBE.gz
    compensation charges: {type: gauss,
                           rc: 0.33,
                           lmax: 2}
    cutoffs: {filter: 2.06,
              core: 2.67}
    valence states:
      #              energy  rcut
      - 4s(2.00)    -5.291   1.164
      - 4p(0.00)    -1.326   1.058
      - 3d(6.00)    -7.505   1.058
      -  s          21.920   1.164
      -  p          25.885   1.058
      -  d          19.706   1.058
  
    # Using partial waves for Fe as LCAO basis

  Cr:
    name: Chromium
    id: 33f258bda2ca9f93018e70263a35547b
    Z: 24.0
    valence: 6
    core: 18
    charge: 0.0
    file: /home/c.zeng/usr/data/gpaw-setups-0.9.20000/Cr.PBE.gz
    compensation charges: {type: gauss,
                           rc: 0.35,
                           lmax: 2}
    cutoffs: {filter: 2.14,
              core: 3.04}
    valence states:
      #              energy  rcut
      - 4s(1.00)    -4.007   1.164
      - 4p(0.00)    -0.989   1.217
      - 3d(5.00)    -2.913   1.111
      -  s          23.205   1.164
      -  p          26.223   1.217
      -  d          24.299   1.111
  
    # Using partial waves for Cr as LCAO basis

  Al:
    name: Aluminium
    id: 0292cae29f5d6237e50f6abdd43a7bdd
    Z: 13.0
    valence: 3
    core: 10
    charge: 0.0
    file: /home/c.zeng/usr/data/gpaw-setups-0.9.20000/Al.PBE.gz
    compensation charges: {type: gauss,
                           rc: 0.34,
                           lmax: 2}
    cutoffs: {filter: 1.91,
              core: 2.36}
    valence states:
      #              energy  rcut
      - 3s(2.00)    -7.753   1.085
      - 3p(1.00)    -2.712   1.085
      -  s          19.459   1.085
      -  p          24.499   1.085
      -  d           0.000   1.085
  
    # Using partial waves for Al as LCAO basis

  Co:
    name: Cobalt
    id: 339d20d5b0b93d2de9531a1bee871d91
    Z: 27.0
    valence: 9
    core: 18
    charge: 0.0
    file: /home/c.zeng/usr/data/gpaw-setups-0.9.20000/Co.PBE.gz
    compensation charges: {type: gauss,
                           rc: 0.32,
                           lmax: 2}
    cutoffs: {filter: 1.87,
              core: 2.55}
    valence states:
      #              energy  rcut
      - 4s(2.00)    -5.469   1.005
      - 4p(0.00)    -1.277   1.058
      - 3d(7.00)    -8.205   1.005
      -  s          21.742   1.005
      -  p          25.934   1.058
      -  d          19.007   1.005
  
    # Using partial waves for Co as LCAO basis

  Ni:
    name: Nickel
    id: 0d9f38a9d6e76a2886f07bb4381f212b
    Z: 28.0
    valence: 16
    core: 12
    charge: 0.0
    file: /home/c.zeng/usr/data/gpaw-setups-0.9.20000/Ni.PBE.gz
    compensation charges: {type: gauss,
                           rc: 0.36,
                           lmax: 2}
    cutoffs: {filter: 2.14,
              core: 1.98}
    valence states:
      #              energy  rcut
      - 4s(2.00)    -5.642   1.164
      - 3p(6.00)   -71.394   1.207
      - 4p(0.00)    -1.226   1.207
      - 3d(8.00)    -8.875   1.138
      -  s          21.570   1.164
      -  d          18.337   1.138
  
    # Using partial waves for Ni as LCAO basis

Reference energy: -4103091.665053  # eV

Spin-polarized calculation.
Magnetic moment: 158.800000

Convergence criteria:
 Maximum [total energy] change in last 3 cyles: 0.0001 eV / electron
 Maximum integral of absolute [dens]ity change: 0.0001 electrons / valence electron
 Maximum integral of absolute [eigenst]ate change: 4e-08 eV^2 / valence electron
 Maximum number of scf [iter]ations: 666
 (Square brackets indicate name in SCF output, whereas a 'c' in
 the SCF output indicates the quantity has converged.)

Symmetries present (total): 1

  ( 1  0  0)
  ( 0  1  0)
  ( 0  0  1)

4 k-points: 2 x 2 x 1 Monkhorst-Pack grid
2 k-points in the irreducible part of the Brillouin zone
       k-points in crystal coordinates                weights
   0:     0.25000000   -0.25000000    0.00000000          2/4
   1:     0.25000000    0.25000000    0.00000000          2/4

Wave functions: Plane wave expansion
  Cutoff energy: 350.000 eV
  Number of coefficients (min, max): 59263, 59339
  Pulay-stress correction: 0.000000 eV/Ang^3 (de/decut=0.000000)
  Using FFTW library
  ScaLapack parameters: grid=1x1, blocksize=None
  Wavefunction extrapolation:
    Improved wavefunction reuse through dual PAW basis 

Occupation numbers: Fermi-Dirac:
  width: 0.1000  # eV
 

Eigensolver
   Davidson(niter=2) 

Densities:
  Coarse grid: 56*56*128 grid
  Fine grid: 112*112*256 grid
  Total Charge: 0.000000 

Density mixing:
  Method: difference
  Backend: pulay
  Linear mixing parameter: 0.05
  old densities: 5
  Damping of long wavelength oscillations: 50 

Hamiltonian:
  XC and Coulomb potentials evaluated on a 112*112*256 grid
  Using the PBE Exchange-Correlation functional
  External potential:
    NoExternalPotential
 

XC parameters: PBE with 2 nearest neighbor stencil

Memory estimate:
  Process memory now: 368.04 MiB
  Calculator: 2263.81 MiB
    Density: 18.78 MiB
      Arrays: 7.39 MiB
      Localized functions: 8.44 MiB
      Mixer: 2.95 MiB
    Hamiltonian: 5.74 MiB
      Arrays: 5.49 MiB
      XC: 0.00 MiB
      Poisson: 0.00 MiB
      vbar: 0.26 MiB
    Wavefunctions: 2239.28 MiB
      Arrays psit_nG: 1414.30 MiB
      Eigensolver: 804.77 MiB
      Projections: 3.48 MiB
      Projectors: 1.15 MiB
      PW-descriptor: 15.58 MiB

Total number of cores used: 30
Parallelization over k-points: 2
Domain decomposition: 1 x 3 x 5

Number of atoms: 125
Number of atomic orbitals: 1149
Number of bands in calculation: 781
Number of valence electrons: 1136
Bands to converge: occupied

... initialized

Initializing position-dependent things.

Density initialized from atomic densities
Creating initial wave functions:
  781 bands from LCAO basis set

                                                                  
                                                                  
                                                                  
                                                                  
                                               Cr     Al          
                         Co    Ni    Al    Ni    Cr               
                                                                  
                          Cr    NNi   CFe   CNi   CNi   Co        
                Al    Cr   AFe   CFe    FFe   Co    Fe            
           Ni     Fe    Fe    Ni    Ni                            
                       Ni   FCo   CCr    Al    Co    Ni           
       Co    Fe   NCr   NNi   CAl    Cr   CCo   Co                
              Ni    Fe    Fe     Fe Ni Cr      Fe     Fe          
                   Fe    CCr   FCo   CCr   FCr   Al               
               Cr    Co    Ni     Co   FCr                        
           Cr    Ni    Co    Co NCoCr Cr    NNi   FCo   Al        
                      Ni   CNi   NCo    CFe   FNi   Co            
                  Ni    Fe   FAl   ACr   NCr    Ni                
       Co    Co        Cr                                         
                  FCr    Al    Co    Cr    Fe                     
              Cr    Fe    Fe     Cr    Fe                         
                                                                  
                                                                  
                                                                  
                                                                  
                                                                  

Positions:
   0 Fe    12.533128    1.440034   10.429626    ( 0.0000,  0.0000,  0.0000)
   1 Cr     2.529984    1.448599   10.596851    ( 0.0000,  0.0000,  1.5000)
   2 Fe     5.001844    1.491107   10.507206    ( 0.0000,  0.0000,  2.0000)
   3 Fe     7.517470    1.481371   10.443804    ( 0.0000,  0.0000,  0.0000)
   4 Cr     9.992855    1.449769   10.527665    ( 0.0000,  0.0000,  1.5000)
   5 Fe    13.789466    3.650838   10.562420    ( 0.0000,  0.0000,  0.0000)
   6 Fe     3.743028    3.607376   10.509643    ( 0.0000,  0.0000,  2.0000)
   7 Al     6.277985    3.603907   10.508586    ( 0.0000,  0.0000,  2.1000)
   8 Co     8.774670    3.629318   10.567703    ( 0.0000,  0.0000,  2.0000)
   9 Cr    11.256667    3.628289   10.556285    ( 0.0000,  0.0000,  1.5000)
  10 Ni    15.035471    5.774902   10.514867    ( 0.0000,  0.0000,  1.5000)
  11 Cr     5.000253    5.778068   10.458099    ( 0.0000,  0.0000,  0.0000)
  12 Fe     7.492975    5.732719   10.527548    ( 0.0000,  0.0000,  2.1000)
  13 Al    10.032594    5.738715   10.521208    ( 0.0000,  0.0000,  0.0000)
  14 Ni    12.531668    5.773428   10.506590    ( 0.0000,  0.0000,  0.0000)
  15 Co    16.282097    7.932335   10.424460    ( 0.0000,  0.0000,  1.5000)
  16 Cr     6.249076    7.915716   10.493733    ( 0.0000,  0.0000,  2.1000)
  17 Ni     8.739103    7.939274   10.318290    ( 0.0000,  0.0000,  0.0000)
  18 Co    11.262833    7.889621   10.504036    ( 0.0000,  0.0000,  2.1000)
  19 Fe    13.767197    7.897384   10.366605    ( 0.0000,  0.0000,  2.0000)
  20 Al    17.517670   10.103092   10.481904    ( 0.0000,  0.0000,  0.0000)
  21 Ni     7.497936   10.110681   10.626409    ( 0.0000,  0.0000,  2.0000)
  22 Cr     9.976265   10.147183   10.547802    ( 0.0000,  0.0000,  2.1000)
  23 Ni    12.481525   10.098897   10.273937    ( 0.0000,  0.0000,  0.0000)
  24 Fe    15.038329   10.106659   10.411838    ( 0.0000,  0.0000,  1.5000)
  25 Co     0.029584    0.040775   12.611442    ( 0.0000,  0.0000,  2.0000)
  26 Co     2.524286    0.017743   12.625649    ( 0.0000,  0.0000,  2.0000)
  27 Cr     5.009931    0.016306   12.476653    ( 0.0000,  0.0000,  2.0000)
  28 Fe    13.725795   10.834823   12.477504    ( 0.0000,  0.0000,  0.0000)
  29 Fe    16.291616   10.839907   12.543255    ( 0.0000,  0.0000,  2.0000)
  30 Cr    13.787334    2.177261   12.583938    ( 0.0000,  0.0000,  2.0000)
  31 Ni     3.767898    2.156913   12.580445    ( 0.0000,  0.0000,  0.0000)
  32 Fe     6.250320    2.155536   12.545368    ( 0.0000,  0.0000,  0.0000)
  33 Al     8.760760    2.165922   12.631314    ( 0.0000,  0.0000,  0.0000)
  34 Cr    11.291091    2.189404   12.569467    ( 0.0000,  0.0000,  2.0000)
  35 Ni    15.015728    4.333177   12.562892    ( 0.0000,  0.0000,  2.0000)
  36 Ni     5.006820    4.331518   12.549301    ( 0.0000,  0.0000,  0.0000)
  37 Ni     7.536414    4.362058   12.589016    ( 0.0000,  0.0000,  0.0000)
  38 Co    10.033535    4.360377   12.602577    ( 0.0000,  0.0000,  1.5000)
  39 Fe    12.523539    4.334760   12.563508    ( 0.0000,  0.0000,  2.0000)
  40 Co    16.274251    6.492117   12.533950    ( 0.0000,  0.0000,  1.5000)
  41 Co     6.308192    6.475432   12.559751    ( 0.0000,  0.0000,  2.1000)
  42 Co     8.776271    6.490035   12.490008    ( 0.0000,  0.0000,  2.0000)
  43 Fe    11.278289    6.490805   12.557021    ( 0.0000,  0.0000,  1.5000)
  44 Ni    13.752272    6.468516   12.517952    ( 0.0000,  0.0000,  2.1000)
  45 Cr     5.108056    8.658624   12.557785    ( 0.0000,  0.0000,  0.0000)
  46 Fe     7.566363    8.646547   12.581003    ( 0.0000,  0.0000,  1.5000)
  47 Co     9.994311    8.654038   12.473248    ( 0.0000,  0.0000,  2.0000)
  48 Fe    12.478693    8.644812   12.462622    ( 0.0000,  0.0000,  2.1000)
  49 Al    14.946058    8.624518   12.480087    ( 0.0000,  0.0000,  0.0000)
  50 Cr     1.256201    0.763084   14.702997    ( 0.0000,  0.0000,  2.1000)
  51 Ni     3.741141    0.768517   14.684241    ( 0.0000,  0.0000,  1.5000)
  52 Co     6.299995    0.774666   14.698271    ( 0.0000,  0.0000,  0.0000)
  53 Co     8.776010    0.777622   14.780255    ( 0.0000,  0.0000,  2.1000)
  54 Cr    11.299537    0.773215   14.649927    ( 0.0000,  0.0000,  1.5000)
  55 Cr     2.503641    2.894650   14.677166    ( 0.0000,  0.0000,  1.5000)
  56 Co     5.003149    2.898769   14.726979    ( 0.0000,  0.0000,  1.5000)
  57 Ni     7.507897    2.915183   14.810283    ( 0.0000,  0.0000,  0.0000)
  58 Co    10.051236    2.911302   14.719875    ( 0.0000,  0.0000,  1.5000)
  59 Cr    12.558998    2.904027   14.656326    ( 0.0000,  0.0000,  2.0000)
  60 Fe     3.714729    5.068312   14.654653    ( 0.0000,  0.0000,  0.0000)
  61 Cr     6.295139    5.069515   14.699915    ( 0.0000,  0.0000,  0.0000)
  62 Co     8.776914    5.060506   14.664779    ( 0.0000,  0.0000,  2.1000)
  63 Cr    11.297436    5.056712   14.652715    ( 0.0000,  0.0000,  0.0000)
  64 Cr    13.775594    5.062599   14.637129    ( 0.0000,  0.0000,  0.0000)
  65 Ni     5.020095    7.203792   14.693017    ( 0.0000,  0.0000,  1.5000)
  66 Cr     7.527582    7.223934   14.646111    ( 0.0000,  0.0000,  2.0000)
  67 Ni    10.007193    7.208139   14.579832    ( 0.0000,  0.0000,  2.1000)
  68 Co    12.551373    7.215565   14.635837    ( 0.0000,  0.0000,  1.5000)
  69 Co    15.022437    7.200789   14.781399    ( 0.0000,  0.0000,  2.1000)
  70 Fe     6.300157    9.420840   14.712918    ( 0.0000,  0.0000,  2.1000)
  71 Co     8.732283    9.401749   14.673585    ( 0.0000,  0.0000,  0.0000)
  72 Al    11.263746    9.439649   14.574753    ( 0.0000,  0.0000,  0.0000)
  73 Cr    13.786012    9.419517   14.774443    ( 0.0000,  0.0000,  0.0000)
  74 Ni    16.298882    9.432071   14.813071    ( 0.0000,  0.0000,  0.0000)
  75 Cr    12.551235    1.460849   16.768751    ( 0.0000,  0.0000,  2.0000)
  76 Ni     2.485776    1.461489   16.791235    ( 0.0000,  0.0000,  2.0000)
  77 Fe     4.988873    1.437953   16.800129    ( 0.0000,  0.0000,  0.0000)
  78 Fe     7.521264    1.441801   16.853904    ( 0.0000,  0.0000,  2.1000)
  79 Fe    10.041408    1.441801   16.816508    ( 0.0000,  0.0000,  0.0000)
  80 Co    13.786651    3.599104   16.753634    ( 0.0000,  0.0000,  2.1000)
  81 Ni     3.751487    3.571785   16.825197    ( 0.0000,  0.0000,  0.0000)
  82 Ni     6.255931    3.593012   16.814131    ( 0.0000,  0.0000,  1.5000)
  83 Al     8.779489    3.570907   16.858483    ( 0.0000,  0.0000,  2.0000)
  84 Cr    11.301319    3.615409   16.751961    ( 0.0000,  0.0000,  1.5000)
  85 Co    14.996321    5.774306   16.825755    ( 0.0000,  0.0000,  1.5000)
  86 Ni     4.982905    5.789733   16.828220    ( 0.0000,  0.0000,  0.0000)
  87 Co     7.569540    5.790156   16.758477    ( 0.0000,  0.0000,  0.0000)
  88 Cr    10.026136    5.746347   16.763908    ( 0.0000,  0.0000,  0.0000)
  89 Al    12.543367    5.747160   16.772185    ( 0.0000,  0.0000,  2.1000)
  90 Fe    16.270128    7.958744   16.878796    ( 0.0000,  0.0000,  2.0000)
  91 Al     6.261908    7.982584   16.782048    ( 0.0000,  0.0000,  2.1000)
  92 Co     8.742457    7.968610   16.764142    ( 0.0000,  0.0000,  2.1000)
  93 Fe    11.277906    7.926015   16.857984    ( 0.0000,  0.0000,  0.0000)
  94 Co    13.798645    7.959796   16.862475    ( 0.0000,  0.0000,  1.5000)
  95 Co    17.564450   10.140147   16.843601    ( 0.0000,  0.0000,  1.5000)
  96 Ni     7.506508   10.131539   16.775003    ( 0.0000,  0.0000,  1.5000)
  97 Co     9.982830   10.139106   16.778819    ( 0.0000,  0.0000,  1.5000)
  98 Co    12.538883   10.154728   16.858689    ( 0.0000,  0.0000,  2.0000)
  99 Cr    15.023737   10.130021   16.876066    ( 0.0000,  0.0000,  2.1000)
 100 Co     0.021688    0.020369   18.796081    ( 0.0000,  0.0000,  2.1000)
 101 Fe     2.494821    0.007467   18.769576    ( 0.0000,  0.0000,  2.1000)
 102 Cr     4.985998    0.002849   18.819329    ( 0.0000,  0.0000,  0.0000)
 103 Cr    13.754781   10.818030   18.872752    ( 0.0000,  0.0000,  2.1000)
 104 Al    16.317444   10.810593   18.850326    ( 0.0000,  0.0000,  1.5000)
 105 Ni     1.256161    2.173586   18.792882    ( 0.0000,  0.0000,  2.0000)
 106 Fe     3.725304    2.151503   18.833213    ( 0.0000,  0.0000,  2.0000)
 107 Fe     6.222195    2.156804   18.811081    ( 0.0000,  0.0000,  2.1000)
 108 Ni     8.770579    2.162528   19.045201    ( 0.0000,  0.0000,  0.0000)
 109 Ni    11.307466    2.180958   18.775534    ( 0.0000,  0.0000,  2.0000)
 110 Al     2.502140    4.316579   18.803537    ( 0.0000,  0.0000,  2.0000)
 111 Cr     4.984546    4.312123   18.946281    ( 0.0000,  0.0000,  0.0000)
 112 Fe     7.501088    4.367044   18.820386    ( 0.0000,  0.0000,  0.0000)
 113 Fe    10.059972    4.352084   18.800162    ( 0.0000,  0.0000,  2.0000)
 114 Fe    12.539763    4.316026   18.767286    ( 0.0000,  0.0000,  2.1000)
 115 Ni    16.262819    6.510059   18.894150    ( 0.0000,  0.0000,  2.0000)
 116 Cr     6.269967    6.534842   18.850238    ( 0.0000,  0.0000,  1.5000)
 117 Ni     8.788984    6.511186   18.794614    ( 0.0000,  0.0000,  1.5000)
 118 Fe    11.281904    6.480051   18.877595    ( 0.0000,  0.0000,  2.1000)
 119 Ni    13.777508    6.479303   18.838585    ( 0.0000,  0.0000,  0.0000)
 120 Co     5.014689    8.654765   18.845336    ( 0.0000,  0.0000,  2.0000)
 121 Ni     7.516337    8.678810   18.792882    ( 0.0000,  0.0000,  2.1000)
 122 Al     9.994976    8.686659   18.888573    ( 0.0000,  0.0000,  1.5000)
 123 Ni    12.542280    8.675037   18.940675    ( 0.0000,  0.0000,  0.0000)
 124 Cr    15.038373    8.673617   18.869083    ( 0.0000,  0.0000,  2.1000)

Unit cell:
           periodic     x           y           z      points  spacing
  1. axis:    yes   12.530300    0.000000    0.000000    56     0.1938
  2. axis:    yes    6.259130   10.841100    0.000000    56     0.1936
  3. axis:    no     0.000000    0.000000   29.353100   128     0.2293

  Lengths:  12.530300  12.518233  29.353100
  Angles:   90.000000  90.000000  59.999929

Effective grid spacing dv^(1/3) = 0.2150

     iter     time        total  log10-change:  magmom
                         energy  eigst   dens
iter:   1 13:01:14 -1069.554028                  +158.3402
iter:   2 13:04:27 -1083.648278  -0.30  -1.20    +126.4169
iter:   3 13:07:40 -1436.542193  -0.38  -1.15    +101.9128
iter:   4 13:10:53 -1276.781108  -0.26  -0.90    +75.8210
iter:   5 13:14:06 -1011.040079  -0.96  -0.99    +53.3962
iter:   6 13:17:18  -968.610194  -1.55  -1.27    +44.9987
iter:   7 13:20:31  -963.887433  -1.99  -1.36    +41.1848
iter:   8 13:23:43  -951.922172  -1.83  -1.38    +41.3733
iter:   9 13:26:56 -1051.742522  -1.28  -1.43    +42.8848
iter:  10 13:30:40 -1024.573223  -1.17  -1.16    +41.9567
iter:  11 13:34:33  -964.941631  -1.58  -1.23    +37.6262
iter:  12 13:37:46  -944.466037  -1.77  -1.42    +38.5121
iter:  13 13:40:58  -952.954493  -1.71  -1.60    +39.7745
iter:  14 13:44:11  -952.434951  -1.78  -1.57    +40.8303
iter:  15 13:47:23  -940.009720  -1.80  -1.54    +42.8792
iter:  16 13:50:37 -1008.693403  -1.83  -1.81    +46.2159
iter:  17 13:53:50  -951.110709  -1.77  -1.30    +45.8986
iter:  18 13:57:04  -943.248115  -2.41  -1.63    +46.6656
iter:  19 14:00:18  -943.076584  -2.61  -1.81    +50.2171
iter:  20 14:03:29  -947.268399  -2.32  -1.85    +51.7950
iter:  21 14:07:20  -943.147136  -2.56  -1.80    +54.1267
iter:  22 14:11:07  -956.191891  -2.22  -1.91    +56.6963
iter:  23 14:14:20  -946.342663  -2.30  -1.66    +57.5294
iter:  24 14:17:34  -946.616640  -2.57  -1.89    +59.0333
iter:  25 14:20:48  -945.395047  -2.57  -1.90    +61.2269
iter:  26 14:24:02  -944.636500  -2.85  -2.02    +62.1001
iter:  27 14:27:15  -945.680597  -2.67  -2.13    +63.6931
iter:  28 14:30:27  -945.556426  -2.83  -2.07    +63.9961
iter:  29 14:34:05  -945.083910  -2.91  -2.12    +64.4459
iter:  30 14:38:06  -945.716794  -3.18  -2.26    +64.5968
iter:  31 14:41:20  -945.466747  -3.09  -2.20    +64.9160
iter:  32 14:44:34  -945.735316  -3.25  -2.34    +64.8281
iter:  33 14:47:47  -946.086261  -3.12  -2.33    +64.4797
iter:  34 14:51:00  -946.050266  -3.23  -2.28    +64.4071
iter:  35 14:54:13  -947.253468  -3.00  -2.38    +64.1715
iter:  36 14:57:27  -946.416274  -3.33  -2.15    +63.7878
iter:  37 15:00:59  -946.267016  -3.41  -2.34    +62.7907
iter:  38 15:05:05  -946.338126  -3.65  -2.47    +62.2253
iter:  39 15:08:17  -946.543581  -3.83  -2.46    +61.9225
iter:  40 15:11:30  -946.957162  -3.56  -2.41    +61.6519
iter:  41 15:14:44  -947.688627  -3.17  -2.30    +61.6213
iter:  42 15:17:56  -947.229689  -3.32  -2.18    +61.3815
iter:  43 15:21:08  -946.772501  -3.19  -2.26    +60.6064
iter:  44 15:24:21  -946.572979  -3.64  -2.40    +60.4720
iter:  45 15:27:34  -946.655198  -3.62  -2.56    +60.5302
iter:  46 15:31:28  -946.900094  -3.80  -2.51    +60.3824
iter:  47 15:35:12  -947.054072  -3.45  -2.40    +60.0412
iter:  48 15:38:26  -946.740082  -3.55  -2.35    +60.0557
iter:  49 15:41:39  -946.834391  -3.57  -2.52    +60.1714
iter:  50 15:44:52  -946.619354  -4.07  -2.48    +60.0227
iter:  51 15:48:06  -946.669718  -4.23  -2.67    +59.7586
iter:  52 15:51:18  -946.617279c -4.77  -2.64    +59.7315
iter:  53 15:54:30  -946.724724c -4.53  -2.73    +59.6876
iter:  54 15:57:55  -946.719298c -4.13  -2.63    +59.6288
iter:  55 16:02:07  -947.085165  -3.55  -2.67    +59.4951
iter:  56 16:05:21  -946.702209  -3.74  -2.39    +59.5290
iter:  57 16:08:33  -946.740882  -3.87  -2.74    +59.5778
iter:  58 16:11:46  -947.002407  -3.74  -2.74    +59.4772
iter:  59 16:14:59  -946.681597  -4.13  -2.46    +59.2889
iter:  60 16:18:13  -946.684381  -4.58  -2.89    +59.3668
iter:  61 16:21:28  -946.730999c -4.51  -2.98    +59.4077
iter:  62 16:24:42  -946.706192c -4.46  -2.86    +59.3448
iter:  63 16:28:28  -946.701659c -4.78  -2.97    +59.3041
iter:  64 16:32:21  -946.818601  -4.23  -3.13    +59.2027
iter:  65 16:35:35  -946.754751  -4.32  -2.69    +59.2221
iter:  66 16:38:50  -946.717897c -4.70  -2.89    +59.1634
iter:  67 16:42:06  -946.739255c -4.67  -3.20    +59.1644
iter:  68 16:45:20  -946.722830c -4.93  -2.98    +59.1716
iter:  69 16:48:35  -946.723914c -5.30  -3.19    +59.1271
iter:  70 16:51:51  -946.731805c -5.07  -3.28    +59.0901
iter:  71 16:55:05  -946.774226c -4.53  -3.25    +59.0224
iter:  72 16:58:10  -946.745331c -4.89  -2.94    +59.0413
iter:  73 17:01:35  -946.766968c -4.77  -3.16    +59.0248
iter:  74 17:05:00  -946.744663c -5.25  -2.98    +59.0714
iter:  75 17:08:25  -946.752107c -4.69  -3.22    +59.0621
iter:  76 17:11:50  -946.744516c -5.06  -3.11    +59.0628
iter:  77 17:15:14  -946.790774c -4.54  -3.28    +59.0808
iter:  78 17:18:39  -946.744629c -4.97  -2.86    +59.0991
iter:  79 17:22:03  -946.751419c -5.03  -3.29    +59.0898
iter:  80 17:25:27  -946.754110c -5.00  -3.23    +59.0858
iter:  81 17:28:51  -946.751910c -4.78  -3.14    +59.1141
iter:  82 17:32:16  -946.744481c -5.16  -3.20    +59.1268
iter:  83 17:35:40  -946.768286c -4.97  -3.47    +59.1215
iter:  84 17:39:03  -946.745860c -5.07  -3.07    +59.1214
iter:  85 17:42:28  -946.745337c -5.83  -3.36    +59.1453
iter:  86 17:45:52  -946.745342c -5.67  -3.44    +59.1723
iter:  87 17:49:16  -946.746678c -5.79  -3.61    +59.1767
iter:  88 17:52:41  -946.746082c -5.83  -3.52    +59.1913
iter:  89 17:56:04  -946.746691c -5.77  -3.58    +59.2108
iter:  90 17:59:28  -946.766739c -5.08  -3.61    +59.2238
iter:  91 18:02:52  -946.748334c -5.38  -3.13    +59.2244
iter:  92 18:06:17  -946.754004c -5.40  -3.67    +59.2453
iter:  93 18:09:41  -946.747852c -5.92  -3.27    +59.2541
iter:  94 18:13:05  -946.748476c -6.06  -3.73    +59.2632
iter:  95 18:16:29  -946.748668c -6.50  -3.78    +59.2718
iter:  96 18:19:54  -946.751058c -5.71  -3.79    +59.3108
iter:  97 18:23:18  -946.749506c -6.38  -3.73    +59.2899
iter:  98 18:26:43  -946.749860c -6.36  -3.92    +59.2991
iter:  99 18:30:07  -946.750344c -6.12  -3.98    +59.3025
iter: 100 18:33:30  -946.750968c -6.19  -3.72    +59.3125
iter: 101 18:36:54  -946.751441c -6.29  -3.91    +59.3276
iter: 102 18:40:18  -946.751013c -6.17  -3.90    +59.3259
iter: 103 18:43:42  -946.751465c -6.41  -3.90    +59.3426
iter: 104 18:47:03  -946.751878c -6.58  -4.09c   +59.3529
iter: 105 18:50:27  -946.749755c -5.56  -4.04c   +59.3033
iter: 106 18:53:51  -946.750497c -6.27  -4.02c   +59.3039
iter: 107 18:57:15  -946.750380c -6.42  -3.94    +59.3162
iter: 108 19:00:40  -946.750686c -6.50  -4.10c   +59.3205
iter: 109 19:04:02  -946.751085c -6.73  -3.95    +59.3291
iter: 110 19:07:27  -946.751558c -6.62  -4.13c   +59.3403
iter: 111 19:10:51  -946.752371c -6.43  -4.11c   +59.3478
iter: 112 19:14:16  -946.754425c -6.21  -3.87    +59.3476
iter: 113 19:17:40  -946.753001c -6.07  -3.64    +59.3586
iter: 114 19:21:04  -946.753327c -6.12  -3.95    +59.3636
iter: 115 19:24:29  -946.753293c -6.56  -3.77    +59.3754
iter: 116 19:27:53  -946.753986c -5.89  -3.97    +59.3952
iter: 117 19:31:19  -946.753870c -6.44  -3.82    +59.4029
iter: 118 19:34:40  -946.755786c -6.22  -3.97    +59.4226
iter: 119 19:38:05  -946.755530c -6.85  -3.77    +59.4238
iter: 120 19:41:29  -946.756937c -6.30  -3.81    +59.4384
iter: 121 19:44:54  -946.754905c -5.80  -3.69    +59.4137
iter: 122 19:48:18  -946.755832c -5.69  -3.76    +59.4373
iter: 123 19:51:43  -946.755866c -6.01  -3.87    +59.4464
iter: 124 19:55:01  -946.759080c -5.90  -3.69    +59.4654
iter: 125 19:58:27  -946.757175c -6.48  -3.58    +59.4619
iter: 126 20:01:51  -946.758184c -5.96  -3.85    +59.4812
iter: 127 20:05:16  -946.759429c -6.00  -3.77    +59.4855
iter: 128 20:08:41  -946.758723c -5.84  -3.71    +59.5053
iter: 129 20:12:06  -946.759785c -5.73  -3.77    +59.5251
iter: 130 20:15:32  -946.759708c -5.89  -3.58    +59.5537
iter: 131 20:18:57  -946.773496c -5.30  -3.74    +59.5763
iter: 132 20:22:22  -946.760685c -5.73  -3.21    +59.5808
iter: 133 20:25:48  -946.762165c -5.99  -3.90    +59.6051
iter: 134 20:29:15  -946.761857c -6.98  -3.95    +59.5884
iter: 135 20:32:42  -946.760751c -6.12  -3.92    +59.5261
iter: 136 20:36:09  -946.761909c -5.87  -3.93    +59.5557
iter: 137 20:39:22  -946.762247c -6.35  -3.80    +59.5312
iter: 138 20:41:59  -946.762120c -6.01  -3.81    +59.5634
iter: 139 20:44:37  -946.762607c -6.23  -4.02c   +59.5707
iter: 140 20:47:14  -946.763814c -6.17  -4.00c   +59.6094
iter: 141 20:49:51  -946.764467c -6.41  -4.13c   +59.6272
iter: 142 20:52:28  -946.760268c -5.18  -4.13c   +59.5005
iter: 143 20:55:05  -946.756667c -4.97  -4.17c   +59.3723
iter: 144 20:57:43  -946.756089c -5.04  -4.01c   +59.2839
iter: 145 21:00:21  -946.756105c -5.98  -3.58    +59.3451
iter: 146 21:02:59  -946.756287c -6.58  -3.91    +59.3493
iter: 147 21:05:37  -946.755603c -6.04  -3.88    +59.3760
iter: 148 21:08:16  -946.756296c -5.92  -3.79    +59.3485
iter: 149 21:10:54  -946.756766c -5.60  -3.72    +59.4276
iter: 150 21:13:33  -946.769572c -5.39  -3.77    +59.4166
iter: 151 21:16:11  -946.756333c -5.77  -3.21    +59.4285
iter: 152 21:18:49  -946.756693c -6.09  -4.27c   +59.4563
iter: 153 21:21:26  -946.756941c -6.66  -4.04c   +59.4399
iter: 154 21:24:04  -946.757410c -6.47  -4.35c   +59.4449
iter: 155 21:26:42  -946.757741c -6.89  -4.38c   +59.4649
iter: 156 21:29:21  -946.757476c -6.82  -4.35c   +59.4388
iter: 157 21:31:59  -946.758176c -6.56  -4.31c   +59.4688
iter: 158 21:34:37  -946.757053c -6.32  -4.40c   +59.4320
iter: 159 21:37:14  -946.758347c -6.29  -4.01c   +59.4787
iter: 160 21:39:52  -946.758263c -7.30  -4.35c   +59.4801
iter: 161 21:42:28  -946.759212c -6.39  -4.37c   +59.5083
iter: 162 21:45:05  -946.756399c -5.26  -4.13c   +59.3944
iter: 163 21:47:42  -946.754377c -5.16  -4.16c   +59.2802
iter: 164 21:50:19  -946.755387c -5.29  -4.00    +59.2152
iter: 165 21:52:56  -946.754135c -6.03  -3.51    +59.2754
iter: 166 21:55:33  -946.754026c -6.76  -3.97    +59.2787
iter: 167 21:58:10  -946.754203c -5.96  -3.93    +59.3159
iter: 168 22:00:47  -946.755610c -5.70  -3.79    +59.2954
iter: 169 22:03:24  -946.756188c -5.63  -3.55    +59.3470
iter: 170 22:06:01  -946.770149c -5.19  -3.47    +59.3816
iter: 171 22:08:38  -946.754470c -5.61  -3.16    +59.3980
iter: 172 22:11:14  -946.754654c -6.32  -4.02c   +59.4006
iter: 173 22:13:51  -946.755000c -6.50  -4.25c   +59.4018
iter: 174 22:16:28  -946.755005c -6.35  -4.07c   +59.4123
iter: 175 22:19:05  -946.756049c -6.38  -4.14c   +59.4218
iter: 176 22:21:42  -946.755672c -6.45  -4.01c   +59.4283
iter: 177 22:24:19  -946.756478c -6.30  -3.84    +59.4338
iter: 178 22:26:56  -946.756048c -6.67  -3.98    +59.4432
iter: 179 22:29:33  -946.756379c -6.53  -4.37c   +59.4507
iter: 180 22:32:09  -946.756329c -7.30  -4.45c   +59.4449
iter: 181 22:34:47  -946.756537c -6.91  -4.51c   +59.4498
iter: 182 22:37:24  -946.756437c -7.40  -4.54c   +59.4517
iter: 183 22:40:00  -946.757204c -6.57  -4.51c   +59.4707
iter: 184 22:42:38  -946.756551c -6.61  -4.29c   +59.4534
iter: 185 22:45:15  -946.754358c -5.00  -4.46c   +59.3632
iter: 186 22:47:52  -946.754119c -5.29  -4.07c   +59.3282
iter: 187 22:50:29  -946.754216c -5.43  -3.90    +59.3050
iter: 188 22:53:06  -946.754450c -6.04  -3.81    +59.3093
iter: 189 22:55:43  -946.754383c -6.45  -3.63    +59.3150
iter: 190 22:58:19  -946.754581c -6.58  -3.81    +59.3242
iter: 191 23:00:56  -946.754296c -6.34  -3.76    +59.3184
iter: 192 23:03:33  -946.753775c -5.47  -3.78    +59.3264
iter: 193 23:06:10  -946.755204c -5.67  -3.65    +59.3185
iter: 194 23:08:46  -946.780778c -5.15  -3.61    +59.3096
iter: 195 23:11:23  -946.753509c -5.48  -3.05    +59.2869
iter: 196 23:14:00  -946.753581c -6.10  -4.01c   +59.2905
iter: 197 23:16:37  -946.754250c -6.13  -3.78    +59.2950
iter: 198 23:19:14  -946.754241c -6.24  -3.83    +59.2989
iter: 199 23:21:50  -946.754514c -6.02  -4.02c   +59.2933
iter: 200 23:24:27  -946.753874c -6.15  -3.80    +59.2894
iter: 201 23:27:04  -946.757879c -5.79  -3.80    +59.3061
iter: 202 23:29:41  -946.754057c -6.31  -3.52    +59.2958
iter: 203 23:32:18  -946.753970c -6.59  -4.16c   +59.2937
iter: 204 23:34:56  -946.753916c -6.85  -4.22c   +59.2925
iter: 205 23:37:33  -946.754017c -7.04  -4.29c   +59.2993
iter: 206 23:40:10  -946.754186c -7.00  -4.46c   +59.3000
iter: 207 23:42:46  -946.753966c -7.01  -4.46c   +59.3010
iter: 208 23:45:23  -946.754349c -6.88  -4.04c   +59.3045
iter: 209 23:48:00  -946.754364c -7.17  -4.22c   +59.3077
iter: 210 23:50:36  -946.754367c -7.14  -4.45c   +59.3073
iter: 211 23:53:13  -946.754467c -7.18  -4.42c   +59.3092
iter: 212 23:55:50  -946.754355c -7.01  -4.41c   +59.3133
iter: 213 23:58:27  -946.754186c -6.97  -4.54c   +59.3136
iter: 214 00:01:04  -946.754580c -7.06  -4.19c   +59.3174
iter: 215 00:03:40  -946.754578c -7.29  -4.54c   +59.3222
iter: 216 00:06:17  -946.754647c -7.74c -4.59c   +59.3197

Converged after 216 iterations.

Dipole moment: (45.339774, 31.695286, -0.014701) |e|*Ang

Total magnetic moment: (0.000000, 0.000000, 59.319740)
Local magnetic moments:
   0 Fe ( 0.000000,  0.000000, -2.295815)
   1 Cr ( 0.000000,  0.000000, -1.445203)
   2 Fe ( 0.000000,  0.000000,  2.014331)
   3 Fe ( 0.000000,  0.000000, -2.122475)
   4 Cr ( 0.000000,  0.000000, -1.855633)
   5 Fe ( 0.000000,  0.000000, -2.244663)
   6 Fe ( 0.000000,  0.000000,  2.460310)
   7 Al ( 0.000000,  0.000000, -0.017423)
   8 Co ( 0.000000,  0.000000,  0.527187)
   9 Cr ( 0.000000,  0.000000,  1.830399)
  10 Ni ( 0.000000,  0.000000,  0.349070)
  11 Cr ( 0.000000,  0.000000, -2.497800)
  12 Fe ( 0.000000,  0.000000,  2.351556)
  13 Al ( 0.000000,  0.000000, -0.042321)
  14 Ni ( 0.000000,  0.000000,  0.365780)
  15 Co ( 0.000000,  0.000000,  1.155430)
  16 Cr ( 0.000000,  0.000000,  2.257148)
  17 Ni ( 0.000000,  0.000000,  0.479132)
  18 Co ( 0.000000,  0.000000,  1.513607)
  19 Fe ( 0.000000,  0.000000,  2.750875)
  20 Al ( 0.000000,  0.000000, -0.005675)
  21 Ni ( 0.000000,  0.000000, -0.053892)
  22 Cr ( 0.000000,  0.000000, -2.066432)
  23 Ni ( 0.000000,  0.000000,  0.345787)
  24 Fe ( 0.000000,  0.000000,  2.414864)
  25 Co ( 0.000000,  0.000000,  0.122711)
  26 Co ( 0.000000,  0.000000,  0.377882)
  27 Cr ( 0.000000,  0.000000,  0.514434)
  28 Fe ( 0.000000,  0.000000,  2.019366)
  29 Fe ( 0.000000,  0.000000,  1.904246)
  30 Cr ( 0.000000,  0.000000,  0.486739)
  31 Ni ( 0.000000,  0.000000,  0.115400)
  32 Fe ( 0.000000,  0.000000, -2.046443)
  33 Al ( 0.000000,  0.000000, -0.001407)
  34 Cr ( 0.000000,  0.000000,  0.087057)
  35 Ni ( 0.000000,  0.000000,  0.133320)
  36 Ni ( 0.000000,  0.000000,  0.137700)
  37 Ni ( 0.000000,  0.000000,  0.223114)
  38 Co ( 0.000000,  0.000000,  0.878767)
  39 Fe ( 0.000000,  0.000000,  1.397375)
  40 Co ( 0.000000,  0.000000,  1.382425)
  41 Co ( 0.000000,  0.000000,  1.000365)
  42 Co ( 0.000000,  0.000000,  1.431576)
  43 Fe ( 0.000000,  0.000000,  2.303535)
  44 Ni ( 0.000000,  0.000000,  0.459738)
  45 Cr ( 0.000000,  0.000000, -1.926951)
  46 Fe ( 0.000000,  0.000000,  2.286764)
  47 Co ( 0.000000,  0.000000,  1.362813)
  48 Fe ( 0.000000,  0.000000,  2.214563)
  49 Al ( 0.000000,  0.000000, -0.052017)
  50 Cr ( 0.000000,  0.000000, -0.036247)
  51 Ni ( 0.000000,  0.000000,  0.230817)
  52 Co ( 0.000000,  0.000000,  1.033499)
  53 Co ( 0.000000,  0.000000,  1.049667)
  54 Cr ( 0.000000,  0.000000, -1.262790)
  55 Cr ( 0.000000,  0.000000, -0.311074)
  56 Co ( 0.000000,  0.000000,  1.341598)
  57 Ni ( 0.000000,  0.000000,  0.249968)
  58 Co ( 0.000000,  0.000000,  0.683846)
  59 Cr ( 0.000000,  0.000000,  0.121790)
  60 Fe ( 0.000000,  0.000000,  2.342317)
  61 Cr ( 0.000000,  0.000000, -1.440455)
  62 Co ( 0.000000,  0.000000,  0.952869)
  63 Cr ( 0.000000,  0.000000, -0.385629)
  64 Cr ( 0.000000,  0.000000, -0.830899)
  65 Ni ( 0.000000,  0.000000,  0.254771)
  66 Cr ( 0.000000,  0.000000, -1.747110)
  67 Ni ( 0.000000,  0.000000,  0.230802)
  68 Co ( 0.000000,  0.000000,  0.981571)
  69 Co ( 0.000000,  0.000000,  1.304632)
  70 Fe ( 0.000000,  0.000000,  2.147664)
  71 Co ( 0.000000,  0.000000,  1.213347)
  72 Al ( 0.000000,  0.000000, -0.031133)
  73 Cr ( 0.000000,  0.000000,  1.364608)
  74 Ni ( 0.000000,  0.000000,  0.269819)
  75 Cr ( 0.000000,  0.000000,  0.061082)
  76 Ni ( 0.000000,  0.000000,  0.402077)
  77 Fe ( 0.000000,  0.000000,  2.291601)
  78 Fe ( 0.000000,  0.000000,  2.206354)
  79 Fe ( 0.000000,  0.000000,  1.856840)
  80 Co ( 0.000000,  0.000000,  0.949852)
  81 Ni ( 0.000000,  0.000000,  0.351442)
  82 Ni ( 0.000000,  0.000000,  0.194410)
  83 Al ( 0.000000,  0.000000, -0.012839)
  84 Cr ( 0.000000,  0.000000, -0.374000)
  85 Co ( 0.000000,  0.000000,  1.188369)
  86 Ni ( 0.000000,  0.000000,  0.343353)
  87 Co ( 0.000000,  0.000000, -0.180906)
  88 Cr ( 0.000000,  0.000000, -1.123093)
  89 Al ( 0.000000,  0.000000, -0.031118)
  90 Fe ( 0.000000,  0.000000,  2.392435)
  91 Al ( 0.000000,  0.000000, -0.031323)
  92 Co ( 0.000000,  0.000000,  1.236461)
  93 Fe ( 0.000000,  0.000000,  2.380621)
  94 Co ( 0.000000,  0.000000,  1.091689)
  95 Co ( 0.000000,  0.000000,  1.036328)
  96 Ni ( 0.000000,  0.000000,  0.398038)
  97 Co ( 0.000000,  0.000000,  1.306473)
  98 Co ( 0.000000,  0.000000,  0.939109)
  99 Cr ( 0.000000,  0.000000, -0.107097)
 100 Co ( 0.000000,  0.000000,  1.339569)
 101 Fe ( 0.000000,  0.000000,  2.523153)
 102 Cr ( 0.000000,  0.000000, -2.280756)
 103 Cr ( 0.000000,  0.000000, -0.485171)
 104 Al ( 0.000000,  0.000000, -0.014675)
 105 Ni ( 0.000000,  0.000000,  0.367334)
 106 Fe ( 0.000000,  0.000000,  2.438949)
 107 Fe ( 0.000000,  0.000000,  2.207019)
 108 Ni ( 0.000000,  0.000000,  0.247272)
 109 Ni ( 0.000000,  0.000000,  0.245154)
 110 Al ( 0.000000,  0.000000, -0.037152)
 111 Cr ( 0.000000,  0.000000, -2.580016)
 112 Fe ( 0.000000,  0.000000, -2.442429)
 113 Fe ( 0.000000,  0.000000,  2.118618)
 114 Fe ( 0.000000,  0.000000,  2.372794)
 115 Ni ( 0.000000,  0.000000,  0.235436)
 116 Cr ( 0.000000,  0.000000,  2.387859)
 117 Ni ( 0.000000,  0.000000,  0.126667)
 118 Fe ( 0.000000,  0.000000,  2.451618)
 119 Ni ( 0.000000,  0.000000,  0.378288)
 120 Co ( 0.000000,  0.000000,  0.993446)
 121 Ni ( 0.000000,  0.000000,  0.293425)
 122 Al ( 0.000000,  0.000000, -0.043437)
 123 Ni ( 0.000000,  0.000000,  0.205298)
 124 Cr ( 0.000000,  0.000000, -1.908854)

Energy contributions relative to reference atoms: (reference = -4103091.665053)

Kinetic:       +252.101471
Potential:     -279.713346
External:        +0.000000
XC:            -957.175947
Entropy (-ST):   -5.459558
Local:          +40.762954
--------------------------
Free energy:   -949.484426
Extrapolated:  -946.754647

Dipole-layer corrected work functions: 4.923750, 4.943333 eV

Spin contamination: 42.802014 electrons
Showing all kpts
                      Up                     Down
 Kpt  Band  Eigenvalues  Occupancy  Eigenvalues  Occupancy
  0   566      0.04482    0.98730      0.77301    0.05076
  0   567      0.05412    0.98608      0.78315    0.04610
  0   568      0.08072    0.98192      0.79189    0.04240
  0   569      0.08366    0.98139      0.79836    0.03985

  1   566      0.05082    0.98653      0.76935    0.05256
  1   567      0.05805    0.98553      0.77941    0.04777
  1   568      0.06203    0.98495      0.78990    0.04322
  1   569      0.08002    0.98204      0.80412    0.03770


Fermi level: 0.48017

No gap

Forces in eV/Ang:
  0 Fe    0.22479    0.42749    0.45535
  1 Cr   -0.36721    0.44411    0.01614
  2 Fe   -0.13770   -0.79248   -0.00219
  3 Fe   -0.18231   -0.38875    0.45755
  4 Cr    0.11880    0.02534   -0.25220
  5 Fe   -0.27773   -0.55459   -0.03379
  6 Fe   -0.15304   -0.15254    0.15153
  7 Al    0.26584   -0.10239   -0.75139
  8 Co   -0.09154   -0.29950    0.05044
  9 Cr    0.74590   -1.22102    0.09804
 10 Ni   -0.09341    0.15563    0.06834
 11 Cr   -0.40943    0.80357    0.21833
 12 Fe    0.34022    0.19944    0.16657
 13 Al   -0.39364    0.87195   -1.16185
 14 Ni   -0.09952    0.07882   -0.01444
 15 Co   -0.40974    0.01091    0.56414
 16 Cr   -0.00259   -0.00213   -0.14140
 17 Ni    0.10566   -0.18807    0.94200
 18 Co    0.23787    0.63173    0.15139
 19 Fe   -0.27257    0.02599   -0.10697
 20 Al    0.47083    0.21926   -1.07476
 21 Ni    0.11357    0.04074   -0.27417
 22 Cr    0.35511   -0.56992    0.10301
 23 Ni    0.10311    0.07551    0.92790
 24 Fe   -0.57979    0.20956    0.08452
 25 Co   -0.16824   -0.05539    0.42045
 26 Co    0.06878   -0.11032   -0.07724
 27 Cr   -0.07868    0.87625   -0.59080
 28 Fe    0.01578   -0.31663    0.11704
 29 Fe   -0.16106   -0.33412    0.82236
 30 Cr   -0.20544    0.18798   -0.51244
 31 Ni    0.11623    0.18705    0.42618
 32 Fe   -0.14756   -0.18482    0.87236
 33 Al   -0.45523    0.65236    0.72230
 34 Cr    0.51763    0.15968    0.08768
 35 Ni    0.15700   -0.01886    0.41473
 36 Ni   -0.04883    0.02654    0.50284
 37 Ni   -0.07123   -0.27925    0.63327
 38 Co   -0.14627   -0.15134    0.64147
 39 Fe    0.10342   -0.15472    0.20538
 40 Co    0.53294    0.23661    0.07876
 41 Co   -0.36650   -0.01832    0.25838
 42 Co   -0.34106    0.24492    0.67516
 43 Fe    0.10069    0.11418    0.36093
 44 Ni    0.29034    0.29523    0.44545
 45 Cr   -0.08366   -0.66278    0.83133
 46 Fe    0.02774    0.23384    0.26376
 47 Co   -0.04575   -0.03201   -0.19170
 48 Fe    0.00396    0.18645   -0.07871
 49 Al    0.76075   -0.03141    0.90817
 50 Cr    0.22585   -0.38225   -0.22606
 51 Ni    0.16169   -0.27948   -0.04817
 52 Co    0.10203   -0.06485   -0.18799
 53 Co    0.09035   -0.70521   -0.23756
 54 Cr   -0.59294   -0.29066   -0.04085
 55 Cr    0.09300    0.00682    0.12382
 56 Co    0.20571    0.17311   -0.30378
 57 Ni    0.00202   -0.05853   -0.83979
 58 Co    0.15459    0.05259   -0.16635
 59 Cr   -0.24093    0.31278    0.19914
 60 Fe    0.25100    0.00080    0.25596
 61 Cr   -0.42323   -0.46525    0.19842
 62 Co    0.15836    0.12110   -0.28661
 63 Cr   -0.53476   -0.12090   -0.68822
 64 Cr    0.29912   -0.09200   -0.52405
 65 Ni   -0.17396    0.29353   -0.36831
 66 Cr    0.73393    0.12589   -0.41893
 67 Ni    0.03649   -0.02723    0.57906
 68 Co    0.19505    0.09750    0.08514
 69 Co   -0.11526    0.20692   -0.21298
 70 Fe   -0.35739    0.29356   -0.43467
 71 Co   -0.12053   -0.02903    0.01922
 72 Al   -0.55580   -0.45542    0.95106
 73 Cr    0.60212    0.07176    0.12586
 74 Ni   -0.00011   -0.17586   -0.62245
 75 Cr    0.01690   -0.08968    0.13474
 76 Ni    0.16907   -0.02803   -0.31979
 77 Fe    0.15591   -0.30831   -0.37363
 78 Fe   -0.12691   -0.66444   -0.18087
 79 Fe    0.04411    0.05363   -0.50460
 80 Co    0.13757   -0.36661   -0.54207
 81 Ni    0.13701    0.43440   -0.66716
 82 Ni   -0.24978    0.43603   -0.09555
 83 Al   -0.84384   -0.11052   -0.82917
 84 Cr    0.02362   -0.75552    0.07023
 85 Co    0.64459    0.39457   -0.84336
 86 Ni    0.03491   -0.29669   -0.32620
 87 Co   -0.47252   -0.11218   -0.22430
 88 Cr   -0.65175    0.80940   -0.12701
 89 Al    0.81488    1.12857   -0.11228
 90 Fe   -0.32255   -0.18098   -0.41886
 91 Al   -0.07455   -0.18178   -0.12991
 92 Co    0.66423   -0.15253   -0.61426
 93 Fe   -0.12136    0.18685   -0.99146
 94 Co   -0.25969    0.46516   -0.08001
 95 Co   -0.16908    0.15311   -0.77647
 96 Ni    0.25956    0.32783   -0.27761
 97 Co   -0.04682   -0.21932   -0.35722
 98 Co   -0.01825   -0.29181    0.08627
 99 Cr   -0.54955   -0.06610   -1.05856
100 Co    0.17027   -0.19027   -0.21846
101 Fe   -0.18823   -0.00182    0.17178
102 Cr    0.33196    0.60894    0.02392
103 Cr    0.11900    0.18016   -0.52309
104 Al    0.76357    0.89481    1.46276
105 Ni   -0.14960   -0.02370    0.14818
106 Fe    0.14213   -0.01094    0.14256
107 Fe    0.51098   -0.02529    0.25646
108 Ni   -0.13103    0.06188   -0.79700
109 Ni   -0.04940    0.00727    0.42690
110 Al   -0.73639    0.43958    0.85390
111 Cr    0.62281   -0.20537   -0.34539
112 Fe    0.33648    0.29258    0.37914
113 Fe    0.08922    0.25586    0.21439
114 Fe   -0.49297   -0.45887    0.49910
115 Ni    0.14401   -0.11469   -0.14052
116 Cr    0.10771   -0.61043    0.64758
117 Ni    0.07024    0.02856   -0.09134
118 Fe    0.18526   -0.10249    0.14568
119 Ni   -0.25638    0.20068    0.09796
120 Co    0.00691    0.16846   -0.13288
121 Ni   -0.03192    0.16439    0.15162
122 Al   -0.33825   -0.84375    0.66344
123 Ni   -0.10719   -0.19397   -0.61092
124 Cr   -0.49643   -0.69488    0.23481

Timing:                              incl.     excl.
-----------------------------------------------------------
Forces:                             42.184    42.184   0.1% |
Hamiltonian:                         2.232     0.015   0.0% |
 Atomic:                             0.433     0.003   0.0% |
  XC Correction:                     0.431     0.431   0.0% |
 Calculate atomic Hamiltonians:      1.110     1.110   0.0% |
 Communicate:                        0.075     0.075   0.0% |
 Initialize Hamiltonian:             0.000     0.000   0.0% |
 Poisson:                            0.126     0.126   0.0% |
 XC 3D grid:                         0.473     0.473   0.0% |
LCAO initialization:               339.737     0.649   0.0% |
 LCAO eigensolver:                  22.722     0.028   0.0% |
  Calculate projections:             0.000     0.000   0.0% |
  DenseAtomicCorrection:             0.000     0.000   0.0% |
  Distribute overlap matrix:        12.278    12.278   0.0% |
  Orbital Layouts:                  10.353    10.353   0.0% |
  Potential matrix:                  0.007     0.007   0.0% |
  Sum over cells:                    0.055     0.055   0.0% |
 LCAO to grid:                     313.434   313.434   0.8% |
 Set positions (LCAO WFS):           2.933     2.538   0.0% |
  Basic WFS set positions:           0.004     0.004   0.0% |
  Basis functions set positions:     0.001     0.001   0.0% |
  P tci:                             0.000     0.000   0.0% |
  ST tci:                            0.165     0.165   0.0% |
  mktci:                             0.225     0.225   0.0% |
PWDescriptor:                        0.152     0.152   0.0% |
SCF-cycle:                       40173.516   474.215   1.2% |
 Davidson:                       38594.232 11468.303  28.3% |----------|
  Apply H:                         834.862   822.139   2.0% ||
   HMM T:                           12.722    12.722   0.0% |
  Subspace diag:                  3658.006     0.147   0.0% |
   calc_h_matrix:                 1588.882   880.216   2.2% ||
    Apply H:                       708.666   689.734   1.7% ||
     HMM T:                         18.932    18.932   0.0% |
   diagonalize:                    422.235   422.235   1.0% |
   rotate_psi:                    1646.742  1646.742   4.1% |-|
  calc. matrices:                 8958.125  7650.255  18.9% |-------|
   Apply H:                       1307.870  1277.477   3.1% ||
    HMM T:                          30.393    30.393   0.1% |
  diagonalize:                    9869.547  9869.547  24.3% |---------|
  rotate_psi:                     3805.391  3805.391   9.4% |---|
 Density:                          658.982     0.009   0.0% |
  Atomic density matrices:           6.968     6.968   0.0% |
  Mix:                             268.919   268.919   0.7% |
  Multipole moments:                 0.235     0.235   0.0% |
  Pseudo density:                  382.851   382.839   0.9% |
   Symmetrize density:               0.012     0.012   0.0% |
 Hamiltonian:                      421.755     4.124   0.0% |
  Atomic:                           82.886     0.361   0.0% |
   XC Correction:                   82.524    82.524   0.2% |
  Calculate atomic Hamiltonians:   191.127   191.127   0.5% |
  Communicate:                      32.672    32.672   0.1% |
  Poisson:                          13.810    13.810   0.0% |
  XC 3D grid:                       97.135    97.135   0.2% |
 Orthonormalize:                    24.332     0.001   0.0% |
  calc_s_matrix:                     2.800     2.800   0.0% |
  inverse-cholesky:                  1.252     1.252   0.0% |
  projections:                      15.123    15.123   0.0% |
  rotate_psi_s:                      5.156     5.156   0.0% |
Set symmetry:                        0.001     0.001   0.0% |
Other:                               9.524     9.524   0.0% |
-----------------------------------------------------------
Total:                                     40567.347 100.0%

Date: Wed Apr 19 00:07:04 2023
