
  ___ ___ ___ _ _ _  
 |   |   |_  | | | | 
 | | | | | . | | | | 
 |__ |  _|___|_____|  22.8.0
 |___|_|             

User:   c.zeng@d0023
Date:   Sat Apr 15 16:40:39 2023
Arch:   x86_64
Pid:    244905
CWD:    /home/c.zeng/projects/hea-corrosion/hea-mlp/data-curation/bulk-mcmc/dft-jobs/58
Python: 3.8.1
gpaw:   /home/c.zeng/usr/installs/gpaw/source/gpaw-22.8.0/gpaw
_gpaw:  /home/c.zeng/usr/installs/gpaw/source/gpaw-22.8.0/
        _gpaw.cpython-38-x86_64-linux-gnu.so
ase:    /home/c.zeng/.local/lib/python3.8/site-packages/ase-3.22.1-py3.8.egg/ase (version 3.22.1)
numpy:  /shared/centos7/python/3.8.1/lib/python3.8/site-packages/numpy (version 1.17.4)
scipy:  /shared/centos7/python/3.8.1/lib/python3.8/site-packages/scipy (version 1.4.1)
libxc:  4.2.3
units:  Angstrom and eV
cores: 30
OpenMP: False
OMP_NUM_THREADS: 1

Input parameters:
  convergence: {energy: 0.0001}
  kpts: [2 2 2]
  maxiter: 666
  mode: {ecut: 350.0,
         name: pw}
  occupations: {fixmagmom: False,
                name: fermi-dirac,
                width: 0.1}
  spinpol: True
  xc: PBE

System changes: positions, numbers, cell, pbc, initial_charges, initial_magmoms 

Initialize ...

species:
  Ni:
    name: Nickel
    id: 0d9f38a9d6e76a2886f07bb4381f212b
    Z: 28.0
    valence: 16
    core: 12
    charge: 0.0
    file: /home/c.zeng/usr/data/gpaw-setups-0.9.20000/Ni.PBE.gz
    compensation charges: {type: gauss,
                           rc: 0.36,
                           lmax: 2}
    cutoffs: {filter: 2.14,
              core: 1.98}
    valence states:
      #              energy  rcut
      - 4s(2.00)    -5.642   1.164
      - 3p(6.00)   -71.394   1.207
      - 4p(0.00)    -1.226   1.207
      - 3d(8.00)    -8.875   1.138
      -  s          21.570   1.164
      -  d          18.337   1.138
  
    # Using partial waves for Ni as LCAO basis

  Cr:
    name: Chromium
    id: 33f258bda2ca9f93018e70263a35547b
    Z: 24.0
    valence: 6
    core: 18
    charge: 0.0
    file: /home/c.zeng/usr/data/gpaw-setups-0.9.20000/Cr.PBE.gz
    compensation charges: {type: gauss,
                           rc: 0.35,
                           lmax: 2}
    cutoffs: {filter: 2.14,
              core: 3.04}
    valence states:
      #              energy  rcut
      - 4s(1.00)    -4.007   1.164
      - 4p(0.00)    -0.989   1.217
      - 3d(5.00)    -2.913   1.111
      -  s          23.205   1.164
      -  p          26.223   1.217
      -  d          24.299   1.111
  
    # Using partial waves for Cr as LCAO basis

  Fe:
    name: Iron
    id: 37abbd8d6c3c35915a9b583b742da910
    Z: 26.0
    valence: 8
    core: 18
    charge: 0.0
    file: /home/c.zeng/usr/data/gpaw-setups-0.9.20000/Fe.PBE.gz
    compensation charges: {type: gauss,
                           rc: 0.33,
                           lmax: 2}
    cutoffs: {filter: 2.06,
              core: 2.67}
    valence states:
      #              energy  rcut
      - 4s(2.00)    -5.291   1.164
      - 4p(0.00)    -1.326   1.058
      - 3d(6.00)    -7.505   1.058
      -  s          21.920   1.164
      -  p          25.885   1.058
      -  d          19.706   1.058
  
    # Using partial waves for Fe as LCAO basis

  Co:
    name: Cobalt
    id: 339d20d5b0b93d2de9531a1bee871d91
    Z: 27.0
    valence: 9
    core: 18
    charge: 0.0
    file: /home/c.zeng/usr/data/gpaw-setups-0.9.20000/Co.PBE.gz
    compensation charges: {type: gauss,
                           rc: 0.32,
                           lmax: 2}
    cutoffs: {filter: 1.87,
              core: 2.55}
    valence states:
      #              energy  rcut
      - 4s(2.00)    -5.469   1.005
      - 4p(0.00)    -1.277   1.058
      - 3d(7.00)    -8.205   1.005
      -  s          21.742   1.005
      -  p          25.934   1.058
      -  d          19.007   1.005
  
    # Using partial waves for Co as LCAO basis

  Al:
    name: Aluminium
    id: 0292cae29f5d6237e50f6abdd43a7bdd
    Z: 13.0
    valence: 3
    core: 10
    charge: 0.0
    file: /home/c.zeng/usr/data/gpaw-setups-0.9.20000/Al.PBE.gz
    compensation charges: {type: gauss,
                           rc: 0.34,
                           lmax: 2}
    cutoffs: {filter: 1.91,
              core: 2.36}
    valence states:
      #              energy  rcut
      - 3s(2.00)    -7.753   1.085
      - 3p(1.00)    -2.712   1.085
      -  s          19.459   1.085
      -  p          24.499   1.085
      -  d           0.000   1.085
  
    # Using partial waves for Al as LCAO basis

Reference energy: -3699400.456887  # eV

Spin-polarized calculation.
Magnetic moment: 143.500000

Convergence criteria:
 Maximum [total energy] change in last 3 cyles: 0.0001 eV / electron
 Maximum integral of absolute [dens]ity change: 0.0001 electrons / valence electron
 Maximum integral of absolute [eigenst]ate change: 4e-08 eV^2 / valence electron
 Maximum number of scf [iter]ations: 666
 (Square brackets indicate name in SCF output, whereas a 'c' in
 the SCF output indicates the quantity has converged.)

Symmetries present (total): 1

  ( 1  0  0)
  ( 0  1  0)
  ( 0  0  1)

8 k-points: 2 x 2 x 2 Monkhorst-Pack grid
4 k-points in the irreducible part of the Brillouin zone
       k-points in crystal coordinates                weights
   0:     0.25000000   -0.25000000   -0.25000000          2/8
   1:     0.25000000   -0.25000000    0.25000000          2/8
   2:     0.25000000    0.25000000   -0.25000000          2/8
   3:     0.25000000    0.25000000    0.25000000          2/8

Wave functions: Plane wave expansion
  Cutoff energy: 350.000 eV
  Number of coefficients (min, max): 18052, 18052
  Pulay-stress correction: 0.000000 eV/Ang^3 (de/decut=0.000000)
  Using FFTW library
  ScaLapack parameters: grid=1x1, blocksize=None
  Wavefunction extrapolation:
    Improved wavefunction reuse through dual PAW basis 

Occupation numbers: Fermi-Dirac:
  width: 0.1000  # eV
 

Eigensolver
   Davidson(niter=2) 

Densities:
  Coarse grid: 48*48*48 grid
  Fine grid: 96*96*96 grid
  Total Charge: 0.000000 

Density mixing:
  Method: difference
  Backend: pulay
  Linear mixing parameter: 0.05
  old densities: 5
  Damping of long wavelength oscillations: 50 

Hamiltonian:
  XC and Coulomb potentials evaluated on a 96*96*96 grid
  Using the PBE Exchange-Correlation functional
  External potential:
    NoExternalPotential
 

XC parameters: PBE with 2 nearest neighbor stencil

Memory estimate:
  Process memory now: 249.95 MiB
  Calculator: 1062.64 MiB
    Density: 5.44 MiB
      Arrays: 2.05 MiB
      Localized functions: 2.57 MiB
      Mixer: 0.82 MiB
    Hamiltonian: 1.60 MiB
      Arrays: 1.52 MiB
      XC: 0.00 MiB
      Poisson: 0.00 MiB
      vbar: 0.08 MiB
    Wavefunctions: 1055.59 MiB
      Arrays psit_nG: 774.57 MiB
      Eigensolver: 270.45 MiB
      Projections: 5.49 MiB
      Projectors: 0.70 MiB
      PW-descriptor: 4.38 MiB

Total number of cores used: 30
Parallelization over k-points: 2
Domain decomposition: 5 x 3 x 1

Number of atoms: 108
Number of atomic orbitals: 1025
Number of bands in calculation: 703
Number of valence electrons: 1020
Bands to converge: occupied

... initialized

Initializing position-dependent things.

Density initialized from atomic densities
Creating initial wave functions:
  703 bands from LCAO basis set

        Ni------------------------.  
       /|  Co                Co   |  
      Ni|   Ni         Ni         |  
     / Fe      Fe       Al        |  
    /   CCo      Cr       Fe      |  
   /e   | CoCr     CoAl    NiNi   |  
  /  FeNi  NiCo     CrCrCo        |  
 *    FeFe  FeCoCr     CoAl       |  
 |     CoFeCr  CoFe Ni  CrFeCr    |  
 | Fe   CrCrCrCo NiNiCrFe  Ni     |  
 |   CoCr  NiAlCr   CrCrNi   Fe   |  
 |    FeNi  FeFeCoCr CoFeNi   Cr  |  
 |     CrFeFe  Cr NiNi  CoFeFe    |  
 |      .-CoNiCo-FeNiCrCo--CoNi---.  
 |   NiCo    CoAl   NiNiFe       /   
 |    / Cr    NiFe       Cr     /    
 |   /            Ni           /     
 |Cr/      Co       Co        /      
 | /                         /       
 |/            Cr           /        
 *----------------Cr-------*         

Positions:
   0 Ni     0.005316   -0.016350   10.639749    ( 0.0000,  0.0000,  0.0000)
   1 Cr    10.672340    1.801276    1.786848    ( 0.0000,  0.0000,  0.0000)
   2 Fe     1.795727   10.625972    1.782259    ( 0.0000,  0.0000,  0.0000)
   3 Ni     1.780787    1.796175   10.644605    ( 0.0000,  0.0000,  2.1000)
   4 Fe     3.523539   -0.014558    0.017268    ( 0.0000,  0.0000,  2.0000)
   5 Co     3.522568    1.781672    1.746648    ( 0.0000,  0.0000,  0.0000)
   6 Co     5.320952   10.642342    1.763136    ( 0.0000,  0.0000,  1.5000)
   7 Cr     5.342082    1.828767    0.007462    ( 0.0000,  0.0000,  2.0000)
   8 Cr     7.144895    0.019195    0.012033    ( 0.0000,  0.0000,  0.0000)
   9 Co     7.143497    1.798064    1.764939    ( 0.0000,  0.0000,  2.1000)
  10 Cr     8.891362   10.651627    1.788353    ( 0.0000,  0.0000,  1.5000)
  11 Co     8.888779    1.804777   10.642609    ( 0.0000,  0.0000,  2.0000)
  12 Fe     0.008694    3.581540   10.650250    ( 0.0000,  0.0000,  2.1000)
  13 Ni     0.018979    5.332745    1.789751    ( 0.0000,  0.0000,  2.1000)
  14 Cr     1.778129    3.600941    1.760019    ( 0.0000,  0.0000,  2.0000)
  15 Co     1.790423    5.343267   -0.017766    ( 0.0000,  0.0000,  2.0000)
  16 Cr     3.542802    3.589864   -0.015614    ( 0.0000,  0.0000,  2.0000)
  17 Co     3.526837    5.358538    1.765793    ( 0.0000,  0.0000,  2.0000)
  18 Fe     5.336650    3.606501    1.755815    ( 0.0000,  0.0000,  0.0000)
  19 Cr     5.300399    5.323642   -0.012797    ( 0.0000,  0.0000,  2.1000)
  20 Al     7.122858    3.584816   10.659524    ( 0.0000,  0.0000,  2.0000)
  21 Ni     7.120500    5.315168    1.805502    ( 0.0000,  0.0000,  1.5000)
  22 Cr     8.892034    3.590952    1.773146    ( 0.0000,  0.0000,  2.1000)
  23 Fe     8.925340    5.301487   -0.003100    ( 0.0000,  0.0000,  0.0000)
  24 Ni     0.023055    7.096680   -0.007939    ( 0.0000,  0.0000,  0.0000)
  25 Cr     0.019141    8.871245    1.787510    ( 0.0000,  0.0000,  1.5000)
  26 Co     1.784372    7.104567    1.776443    ( 0.0000,  0.0000,  2.0000)
  27 Co     1.779944    8.867628   10.659406    ( 0.0000,  0.0000,  1.5000)
  28 Ni     3.547785    7.097897    0.009215    ( 0.0000,  0.0000,  2.1000)
  29 Cr     3.541137    8.858109    1.788225    ( 0.0000,  0.0000,  2.1000)
  30 Ni     5.295105    7.099391    1.787894    ( 0.0000,  0.0000,  2.1000)
  31 Ni     5.303685    8.873828    0.029898    ( 0.0000,  0.0000,  0.0000)
  32 Ni     7.106883    7.088719   10.645159    ( 0.0000,  0.0000,  0.0000)
  33 Co     7.111055    8.901137    1.809472    ( 0.0000,  0.0000,  0.0000)
  34 Co     8.939384    7.093404    1.799238    ( 0.0000,  0.0000,  0.0000)
  35 Co     8.919972    8.915853   10.664881    ( 0.0000,  0.0000,  0.0000)
  36 Cr    10.679704   10.658873    3.584517    ( 0.0000,  0.0000,  2.0000)
  37 Fe    10.670921    1.796367    5.340289    ( 0.0000,  0.0000,  2.1000)
  38 Fe     1.770350   10.649001    5.343491    ( 0.0000,  0.0000,  0.0000)
  39 Co     1.791800    1.784671    3.584891    ( 0.0000,  0.0000,  2.0000)
  40 Ni     3.529718   10.626388    3.565234    ( 0.0000,  0.0000,  2.1000)
  41 Fe     3.535716    1.793465    5.367289    ( 0.0000,  0.0000,  1.5000)
  42 Co     5.311497    0.001574    5.366254    ( 0.0000,  0.0000,  1.5000)
  43 Al     5.332627    1.768055    3.580793    ( 0.0000,  0.0000,  0.0000)
  44 Ni     7.136966   10.673941    3.563804    ( 0.0000,  0.0000,  2.0000)
  45 Ni     7.136774    1.794126    5.358944    ( 0.0000,  0.0000,  2.1000)
  46 Co     8.925938   10.673621    5.347589    ( 0.0000,  0.0000,  2.0000)
  47 Fe     8.883827    1.779111    3.582404    ( 0.0000,  0.0000,  1.5000)
  48 Ni    -0.010038    3.572341    3.580996    ( 0.0000,  0.0000,  2.0000)
  49 Co    10.685573    5.328935    5.338550    ( 0.0000,  0.0000,  2.0000)
  50 Ni     1.784180    3.582949    5.348357    ( 0.0000,  0.0000,  1.5000)
  51 Fe     1.766326    5.339510    3.565255    ( 0.0000,  0.0000,  1.5000)
  52 Ni     3.522387    3.605007    3.574059    ( 0.0000,  0.0000,  0.0000)
  53 Al     3.543581    5.347343    5.347962    ( 0.0000,  0.0000,  2.1000)
  54 Co     5.333950    3.591678    5.360630    ( 0.0000,  0.0000,  2.0000)
  55 Ni     5.336458    5.346308    3.560132    ( 0.0000,  0.0000,  0.0000)
  56 Cr     7.143102    3.570089    3.572138    ( 0.0000,  0.0000,  2.1000)
  57 Cr     7.120265    5.347471    5.345689    ( 0.0000,  0.0000,  2.0000)
  58 Ni     8.888299    3.570665    5.342018    ( 0.0000,  0.0000,  1.5000)
  59 Fe     8.904573    5.339084    3.577453    ( 0.0000,  0.0000,  2.0000)
  60 Fe     0.020297    7.105111    3.565266    ( 0.0000,  0.0000,  0.0000)
  61 Co     0.010839    8.875973    5.335359    ( 0.0000,  0.0000,  1.5000)
  62 Cr     1.776144    7.099124    5.335530    ( 0.0000,  0.0000,  2.0000)
  63 Ni     1.782707    8.879996    3.566664    ( 0.0000,  0.0000,  1.5000)
  64 Fe     3.540379    7.112901    3.549920    ( 0.0000,  0.0000,  2.1000)
  65 Co     3.550165    8.855643    5.319490    ( 0.0000,  0.0000,  2.1000)
  66 Ni     5.302320    7.072776    5.331720    ( 0.0000,  0.0000,  1.5000)
  67 Cr     5.308712    8.888715    3.547198    ( 0.0000,  0.0000,  2.0000)
  68 Fe     7.110436    7.091110    3.542599    ( 0.0000,  0.0000,  1.5000)
  69 Cr     7.111322    8.868257    5.343331    ( 0.0000,  0.0000,  0.0000)
  70 Ni     8.928819    7.090939    5.344996    ( 0.0000,  0.0000,  1.5000)
  71 Fe     8.912748    8.874735    3.555853    ( 0.0000,  0.0000,  2.0000)
  72 Co     0.013232   10.658937    7.109743    ( 0.0000,  0.0000,  0.0000)
  73 Cr    10.669470    1.787435    8.884158    ( 0.0000,  0.0000,  2.0000)
  74 Ni     1.768674   10.665478    8.879922    ( 0.0000,  0.0000,  2.0000)
  75 Cr     1.779645    1.805428    7.118291    ( 0.0000,  0.0000,  0.0000)
  76 Fe     3.512206   10.665905    7.084504    ( 0.0000,  0.0000,  0.0000)
  77 Cr     3.526218    1.824316    8.898021    ( 0.0000,  0.0000,  0.0000)
  78 Co     5.331144    0.023495    8.896708    ( 0.0000,  0.0000,  0.0000)
  79 Cr     5.335252    1.825362    7.095656    ( 0.0000,  0.0000,  2.1000)
  80 Cr     7.148524    0.023834    7.114139    ( 0.0000,  0.0000,  0.0000)
  81 Ni     7.139922    1.808384    8.892706    ( 0.0000,  0.0000,  2.1000)
  82 Fe     8.906836    0.013024    8.882259    ( 0.0000,  0.0000,  2.1000)
  83 Ni     8.894083    1.797691    7.127959    ( 0.0000,  0.0000,  0.0000)
  84 Fe     0.021840    3.574998    7.113777    ( 0.0000,  0.0000,  1.5000)
  85 Fe     0.023462    5.326566    8.882152    ( 0.0000,  0.0000,  1.5000)
  86 Fe     1.768098    3.569908    8.891692    ( 0.0000,  0.0000,  2.1000)
  87 Fe     1.775205    5.350033    7.118739    ( 0.0000,  0.0000,  2.1000)
  88 Cr     3.546355    3.587879    7.119902    ( 0.0000,  0.0000,  2.1000)
  89 Co     3.540272    5.336074    8.886271    ( 0.0000,  0.0000,  2.1000)
  90 Cr     5.331998    3.563526    8.882088    ( 0.0000,  0.0000,  1.5000)
  91 Fe     5.316310    5.330738    7.117095    ( 0.0000,  0.0000,  1.5000)
  92 Cr     7.104076    3.574977    7.111546    ( 0.0000,  0.0000,  1.5000)
  93 Cr     7.108740    5.307762    8.854395    ( 0.0000,  0.0000,  1.5000)
  94 Al     8.907593    3.561296    8.890348    ( 0.0000,  0.0000,  2.1000)
  95 Fe     8.917806    5.336309    7.100224    ( 0.0000,  0.0000,  0.0000)
  96 Fe     0.016270    7.102027    7.111664    ( 0.0000,  0.0000,  2.0000)
  97 Fe     0.000822    8.895150    8.883817    ( 0.0000,  0.0000,  1.5000)
  98 Co     1.771182    7.105090    8.888608    ( 0.0000,  0.0000,  1.5000)
  99 Ni     1.775184    8.850318    7.108494    ( 0.0000,  0.0000,  2.0000)
 100 Co     3.530401    7.086478    7.104972    ( 0.0000,  0.0000,  1.5000)
 101 Fe     3.524841    8.851001    8.894798    ( 0.0000,  0.0000,  0.0000)
 102 Co     5.310654    7.102827    8.871128    ( 0.0000,  0.0000,  0.0000)
 103 Cr     5.290613    8.850286    7.104876    ( 0.0000,  0.0000,  0.0000)
 104 Co     7.129016    7.083330    7.142750    ( 0.0000,  0.0000,  2.1000)
 105 Al     7.143241    8.903186    8.854384    ( 0.0000,  0.0000,  2.0000)
 106 Ni     8.926504    7.115858    8.862313    ( 0.0000,  0.0000,  0.0000)
 107 Ni     8.932896    8.877648    7.127479    ( 0.0000,  0.0000,  1.5000)

Unit cell:
           periodic     x           y           z      points  spacing
  1. axis:    yes   10.671700    0.000000    0.000000    48     0.2223
  2. axis:    yes    0.000000   10.671700    0.000000    48     0.2223
  3. axis:    yes    0.000000    0.000000   10.671700    48     0.2223

  Lengths:  10.671700  10.671700  10.671700
  Angles:   90.000000  90.000000  90.000000

Effective grid spacing dv^(1/3) = 0.2223

     iter     time        total  log10-change:  magmom
                         energy  eigst   dens
iter:   1 16:46:42  -950.160695                  +143.1471
iter:   2 16:49:31  -999.245952  -0.38  -1.31    +106.4495
iter:   3 16:52:20  -896.051776  -0.83  -1.20    +78.2143
iter:   4 16:55:09  -875.118009  -1.51  -1.38    +65.0810
iter:   5 16:57:58  -874.187496  -1.93  -1.47    +56.3056
iter:   6 17:00:47  -875.163522  -2.01  -1.49    +52.5034
iter:   7 17:03:38  -871.223874  -1.84  -1.50    +51.5154
iter:   8 17:06:30  -869.197843  -1.68  -1.58    +50.8458
iter:   9 17:09:21  -872.641802  -1.76  -1.72    +50.6470
iter:  10 17:12:14  -867.797628  -2.11  -1.74    +50.4935
iter:  11 17:15:06  -868.140263  -2.48  -1.88    +51.3141
iter:  12 17:17:58  -867.843353  -2.62  -1.89    +51.9576
iter:  13 17:20:49  -868.401873  -2.70  -1.93    +52.6511
iter:  14 17:23:41  -868.009877  -2.72  -1.93    +53.4520
iter:  15 17:26:33  -870.229184  -2.56  -2.00    +54.2635
iter:  16 17:29:24  -870.122931  -2.39  -1.94    +54.7036
iter:  17 17:32:15  -870.063539  -2.54  -1.96    +55.2317
iter:  18 17:35:01  -869.551370  -2.56  -1.98    +56.1837
iter:  19 17:37:54  -869.289867  -2.68  -2.04    +56.8322
iter:  20 17:40:45  -868.298946  -3.11  -2.07    +57.3985
iter:  21 17:43:37  -868.608191  -3.44  -2.18    +58.4343
iter:  22 17:46:29  -869.037161  -3.18  -2.20    +59.5532
iter:  23 17:49:21  -869.042671  -3.33  -2.18    +60.2862
iter:  24 17:52:13  -869.612731  -3.09  -2.23    +61.1144
iter:  25 17:55:05  -870.640918  -2.84  -2.22    +61.6231
iter:  26 17:57:58  -870.071897  -2.80  -2.15    +62.4390
iter:  27 18:00:50  -870.049909  -3.10  -2.25    +62.7530
iter:  28 18:03:41  -870.390259  -2.95  -2.30    +62.9885
iter:  29 18:06:33  -869.873061  -3.19  -2.27    +63.3322
iter:  30 18:09:25  -869.779583  -3.78  -2.37    +64.0554
iter:  31 18:12:16  -869.914074  -3.81  -2.47    +64.5872
iter:  32 18:15:07  -869.993442  -3.89  -2.47    +64.8725
iter:  33 18:17:57  -870.087087  -3.86  -2.48    +65.1854
iter:  34 18:20:49  -870.402101  -3.42  -2.51    +65.3830
iter:  35 18:23:42  -870.549190  -3.22  -2.49    +65.2993
iter:  36 18:26:34  -870.296924  -3.41  -2.45    +65.0104
iter:  37 18:29:26  -870.396637  -3.49  -2.60    +65.2028
iter:  38 18:32:18  -870.260470  -3.73  -2.57    +65.3286
iter:  39 18:35:11  -870.211102  -4.04  -2.73    +65.2494
iter:  40 18:38:03  -870.217390c -4.77  -2.83    +65.1831
iter:  41 18:40:55  -870.267781c -4.26  -2.90    +65.0150
iter:  42 18:43:47  -870.300437c -4.30  -2.89    +64.9714
iter:  43 18:46:37  -870.289642c -4.37  -2.88    +64.8346
iter:  44 18:49:17  -870.301360c -4.43  -3.10    +64.7176
iter:  45 18:51:52  -870.293558c -4.69  -3.10    +64.6834
iter:  46 18:54:27  -870.302860c -4.93  -3.32    +64.5845
iter:  47 18:57:01  -870.311502c -5.05  -3.34    +64.5036
iter:  48 18:59:35  -870.318912c -5.07  -3.34    +64.4044
iter:  49 19:02:20  -870.326037c -5.35  -3.34    +64.3661
iter:  50 19:05:46  -870.383165c -3.90  -3.32    +64.0294
iter:  51 19:08:21  -870.430728  -3.80  -3.15    +63.7337
iter:  52 19:10:55  -870.441571c -4.34  -3.03    +63.6583
iter:  53 19:13:30  -870.443283c -4.86  -3.01    +63.6808
iter:  54 19:16:05  -870.446085c -5.13  -3.01    +63.6942
iter:  55 19:18:39  -870.464654c -4.43  -2.99    +63.7372
iter:  56 19:21:13  -870.494495c -4.30  -2.88    +63.6929
iter:  57 19:23:46  -870.463566c -4.32  -2.79    +63.6165
iter:  58 19:27:00  -870.443399c -4.78  -2.89    +63.5106
iter:  59 19:29:57  -870.466789c -4.05  -2.97    +63.4954
iter:  60 19:32:32  -870.422802c -4.33  -2.87    +63.4666
iter:  61 19:35:07  -870.420697c -4.80  -3.01    +63.4585
iter:  62 19:37:41  -870.414172c -5.10  -3.07    +63.3643
iter:  63 19:40:15  -870.421781c -4.83  -3.15    +63.2992
iter:  64 19:42:50  -870.419185c -4.81  -3.10    +63.2945
iter:  65 19:45:25  -870.422723c -4.67  -3.11    +63.2541
iter:  66 19:47:59  -870.421568c -4.68  -3.10    +63.2630
iter:  67 19:50:34  -870.422302c -4.69  -3.12    +63.2396
iter:  68 19:53:08  -870.411150c -4.95  -3.13    +63.2364
iter:  69 19:55:42  -870.410147c -5.28  -3.28    +63.2462
iter:  70 19:58:16  -870.409772c -5.36  -3.28    +63.2228
iter:  71 20:00:51  -870.410038c -5.58  -3.33    +63.2294
iter:  72 20:03:24  -870.409474c -5.27  -3.34    +63.2294
iter:  73 20:05:58  -870.410228c -5.42  -3.32    +63.2508
iter:  74 20:09:29  -870.412722c -5.13  -3.36    +63.2507
iter:  75 20:12:08  -870.411223c -5.22  -3.33    +63.2505
iter:  76 20:14:43  -870.408686c -5.29  -3.39    +63.2883
iter:  77 20:17:17  -870.407565c -5.61  -3.43    +63.2843
iter:  78 20:19:52  -870.408022c -5.73  -3.50    +63.2968
iter:  79 20:22:25  -870.406527c -6.16  -3.51    +63.2903
iter:  80 20:24:59  -870.406984c -6.17  -3.59    +63.3039
iter:  81 20:27:34  -870.406839c -5.97  -3.59    +63.3062
iter:  82 20:30:07  -870.408728c -5.74  -3.57    +63.3050
iter:  83 20:33:43  -870.408098c -5.67  -3.57    +63.3144
iter:  84 20:36:19  -870.407698c -5.57  -3.57    +63.3187
iter:  85 20:38:54  -870.407289c -5.71  -3.55    +63.3326
iter:  86 20:41:29  -870.406870c -6.12  -3.63    +63.3299
iter:  87 20:44:04  -870.406865c -6.20  -3.70    +63.3277
iter:  88 20:46:38  -870.406369c -6.54  -3.74    +63.3335
iter:  89 20:49:12  -870.406594c -6.45  -3.78    +63.3309
iter:  90 20:51:46  -870.407232c -6.37  -3.78    +63.3335
iter:  91 20:55:23  -870.407087c -5.93  -3.77    +63.3322
iter:  92 20:57:58  -870.406982c -6.04  -3.70    +63.3404
iter:  93 21:00:32  -870.406697c -5.98  -3.80    +63.3515
iter:  94 21:03:08  -870.407086c -6.17  -3.77    +63.3457
iter:  95 21:05:42  -870.406643c -6.40  -3.88    +63.3543
iter:  96 21:08:16  -870.406418c -7.05  -3.93    +63.3545
iter:  97 21:10:51  -870.406652c -6.94  -4.00    +63.3599
iter:  98 21:13:24  -870.406608c -7.03  -3.99    +63.3583
iter:  99 21:16:39  -870.406961c -6.70  -4.01c   +63.3594
iter: 100 21:19:36  -870.406546c -6.51  -3.99    +63.3625
iter: 101 21:22:12  -870.407016c -6.26  -4.00    +63.3613
iter: 102 21:24:47  -870.407003c -6.48  -3.92    +63.3632
iter: 103 21:27:23  -870.406768c -6.66  -4.03c   +63.3606
iter: 104 21:29:58  -870.406748c -6.86  -4.07c   +63.3666
iter: 105 21:32:33  -870.406672c -7.45c -4.17c   +63.3691

Converged after 105 iterations.

Dipole moment: (-10.492141, 7.666435, 8.234670) |e|*Ang

Total magnetic moment: (0.000000, 0.000000, 63.369144)
Local magnetic moments:
   0 Ni ( 0.000000,  0.000000,  0.251112)
   1 Cr ( 0.000000,  0.000000,  1.048289)
   2 Fe ( 0.000000,  0.000000,  2.026766)
   3 Ni ( 0.000000,  0.000000,  0.180609)
   4 Fe ( 0.000000,  0.000000,  2.131782)
   5 Co ( 0.000000,  0.000000,  1.187837)
   6 Co ( 0.000000,  0.000000,  1.080562)
   7 Cr ( 0.000000,  0.000000, -0.478345)
   8 Cr ( 0.000000,  0.000000, -1.342713)
   9 Co ( 0.000000,  0.000000,  0.398082)
  10 Cr ( 0.000000,  0.000000,  0.284962)
  11 Co ( 0.000000,  0.000000,  0.416412)
  12 Fe ( 0.000000,  0.000000,  1.655481)
  13 Ni ( 0.000000,  0.000000,  0.361369)
  14 Cr ( 0.000000,  0.000000, -1.587613)
  15 Co ( 0.000000,  0.000000,  1.264725)
  16 Cr ( 0.000000,  0.000000,  0.040316)
  17 Co ( 0.000000,  0.000000,  1.176941)
  18 Fe ( 0.000000,  0.000000,  1.911661)
  19 Cr ( 0.000000,  0.000000,  0.484282)
  20 Al ( 0.000000,  0.000000, -0.015045)
  21 Ni ( 0.000000,  0.000000,  0.200955)
  22 Cr ( 0.000000,  0.000000, -1.443859)
  23 Fe ( 0.000000,  0.000000,  1.981462)
  24 Ni ( 0.000000,  0.000000,  0.480111)
  25 Cr ( 0.000000,  0.000000, -1.597676)
  26 Co ( 0.000000,  0.000000,  1.280552)
  27 Co ( 0.000000,  0.000000,  1.314494)
  28 Ni ( 0.000000,  0.000000,  0.353287)
  29 Cr ( 0.000000,  0.000000, -1.396387)
  30 Ni ( 0.000000,  0.000000,  0.282399)
  31 Ni ( 0.000000,  0.000000,  0.317019)
  32 Ni ( 0.000000,  0.000000,  0.277078)
  33 Co ( 0.000000,  0.000000,  1.244995)
  34 Co ( 0.000000,  0.000000,  1.372620)
  35 Co ( 0.000000,  0.000000,  1.066684)
  36 Cr ( 0.000000,  0.000000, -1.299087)
  37 Fe ( 0.000000,  0.000000,  2.284786)
  38 Fe ( 0.000000,  0.000000,  2.263187)
  39 Co ( 0.000000,  0.000000,  1.267218)
  40 Ni ( 0.000000,  0.000000,  0.287679)
  41 Fe ( 0.000000,  0.000000,  1.918201)
  42 Co ( 0.000000,  0.000000,  0.055607)
  43 Al ( 0.000000,  0.000000, -0.021557)
  44 Ni ( 0.000000,  0.000000,  0.206607)
  45 Ni ( 0.000000,  0.000000,  0.087224)
  46 Co ( 0.000000,  0.000000,  1.078126)
  47 Fe ( 0.000000,  0.000000,  1.978910)
  48 Ni ( 0.000000,  0.000000,  0.320097)
  49 Co ( 0.000000,  0.000000,  1.356193)
  50 Ni ( 0.000000,  0.000000,  0.311688)
  51 Fe ( 0.000000,  0.000000,  2.246898)
  52 Ni ( 0.000000,  0.000000,  0.356896)
  53 Al ( 0.000000,  0.000000, -0.030276)
  54 Co ( 0.000000,  0.000000,  0.215577)
  55 Ni ( 0.000000,  0.000000,  0.292217)
  56 Cr ( 0.000000,  0.000000, -1.534743)
  57 Cr ( 0.000000,  0.000000, -1.451106)
  58 Ni ( 0.000000,  0.000000,  0.159703)
  59 Fe ( 0.000000,  0.000000,  2.178365)
  60 Fe ( 0.000000,  0.000000,  2.188891)
  61 Co ( 0.000000,  0.000000,  1.363332)
  62 Cr ( 0.000000,  0.000000, -1.803380)
  63 Ni ( 0.000000,  0.000000,  0.277993)
  64 Fe ( 0.000000,  0.000000,  2.060049)
  65 Co ( 0.000000,  0.000000,  1.095059)
  66 Ni ( 0.000000,  0.000000,  0.133581)
  67 Cr ( 0.000000,  0.000000,  0.042909)
  68 Fe ( 0.000000,  0.000000,  2.241735)
  69 Cr ( 0.000000,  0.000000, -1.351393)
  70 Ni ( 0.000000,  0.000000,  0.343886)
  71 Fe ( 0.000000,  0.000000,  1.959518)
  72 Co ( 0.000000,  0.000000,  1.321933)
  73 Cr ( 0.000000,  0.000000, -1.375198)
  74 Ni ( 0.000000,  0.000000,  0.324917)
  75 Cr ( 0.000000,  0.000000, -1.339740)
  76 Fe ( 0.000000,  0.000000,  1.998034)
  77 Cr ( 0.000000,  0.000000,  0.003119)
  78 Co ( 0.000000,  0.000000,  0.381817)
  79 Cr ( 0.000000,  0.000000, -0.288312)
  80 Cr ( 0.000000,  0.000000, -1.053026)
  81 Ni ( 0.000000,  0.000000,  0.046807)
  82 Fe ( 0.000000,  0.000000,  1.996640)
  83 Ni ( 0.000000,  0.000000,  0.118911)
  84 Fe ( 0.000000,  0.000000,  2.063835)
  85 Fe ( 0.000000,  0.000000,  2.266617)
  86 Fe ( 0.000000,  0.000000,  1.481650)
  87 Fe ( 0.000000,  0.000000,  1.984710)
  88 Cr ( 0.000000,  0.000000, -0.497042)
  89 Co ( 0.000000,  0.000000,  1.051202)
  90 Cr ( 0.000000,  0.000000, -0.199213)
  91 Fe ( 0.000000,  0.000000,  1.732442)
  92 Cr ( 0.000000,  0.000000,  0.623922)
  93 Cr ( 0.000000,  0.000000, -0.946110)
  94 Al ( 0.000000,  0.000000, -0.029942)
  95 Fe ( 0.000000,  0.000000,  1.999228)
  96 Fe ( 0.000000,  0.000000,  2.396108)
  97 Fe ( 0.000000,  0.000000,  2.614389)
  98 Co ( 0.000000,  0.000000,  1.472342)
  99 Ni ( 0.000000,  0.000000,  0.517872)
 100 Co ( 0.000000,  0.000000,  1.158059)
 101 Fe ( 0.000000,  0.000000,  2.426753)
 102 Co ( 0.000000,  0.000000,  0.932276)
 103 Cr ( 0.000000,  0.000000, -1.185728)
 104 Co ( 0.000000,  0.000000,  0.827630)
 105 Al ( 0.000000,  0.000000, -0.015203)
 106 Ni ( 0.000000,  0.000000,  0.408423)
 107 Ni ( 0.000000,  0.000000,  0.344903)

Energy contributions relative to reference atoms: (reference = -3699400.456887)

Kinetic:       +147.480449
Potential:     -197.188550
External:        +0.000000
XC:            -855.761907
Entropy (-ST):   -4.549693
Local:          +37.338181
--------------------------
Free energy:   -872.681519
Extrapolated:  -870.406672

Spin contamination: 27.060224 electrons
Showing only first 2 kpts
                      Up                     Down
 Kpt  Band  Eigenvalues  Occupancy  Eigenvalues  Occupancy
  0   508      9.63093    0.99435     10.51090    0.02587
  0   509      9.64904    0.99324     10.52587    0.02235
  0   510      9.65554    0.99279     10.55152    0.01738
  0   511      9.68336    0.99050     10.55329    0.01708

  1   508      9.63110    0.99434     10.52488    0.02257
  1   509      9.64353    0.99360     10.52637    0.02224
  1   510      9.66250    0.99227     10.54284    0.01893
  1   511      9.67107    0.99159     10.55323    0.01709


Fermi level: 10.14805

No gap

Forces in eV/Ang:
  0 Ni    0.03496    0.27205    0.54047
  1 Cr   -0.21260   -0.14261   -0.30920
  2 Fe   -0.19419    0.30823    0.08627
  3 Ni   -0.18836   -0.23881    0.15263
  4 Fe    0.45048    0.35605   -0.10955
  5 Co   -0.04114    0.01899    0.23621
  6 Co    0.21747    0.01344   -0.21140
  7 Cr   -0.92841   -0.77938   -0.02225
  8 Cr   -0.19222    0.42305    0.57145
  9 Co    0.06252   -0.04983   -0.05597
 10 Cr   -0.02245    0.54111   -0.16595
 11 Co    0.48879   -0.62076    0.56632
 12 Fe    0.29721   -0.02754    0.39430
 13 Ni   -0.03952    0.07515   -0.09867
 14 Cr    0.09726   -0.47908    0.07921
 15 Co    0.06928   -0.00135    0.06255
 16 Cr   -0.36853   -0.24052   -0.31128
 17 Co    0.11846   -0.19348    0.18133
 18 Fe   -0.51218   -0.19841    0.49597
 19 Cr   -0.29530    0.64386   -0.00971
 20 Al   -0.00213   -0.56943    0.78693
 21 Ni   -0.04625    0.31354   -0.29280
 22 Cr    1.17446   -0.55292    0.24084
 23 Fe   -0.21078    0.85513    0.29909
 24 Ni   -0.25693    0.07180    0.10469
 25 Cr   -0.04473   -0.20415   -0.57617
 26 Co   -0.01648    0.08373   -0.18740
 27 Co   -0.08826    0.05595    0.25562
 28 Ni   -0.01293   -0.09265   -0.14469
 29 Cr   -0.09519    0.13058   -0.08871
 30 Ni    0.48612   -0.01593   -0.11160
 31 Ni    0.20142    0.07898   -0.19578
 32 Ni    0.25037    0.02641    0.35024
 33 Co    0.19318   -0.06532   -0.27573
 34 Co   -0.47799    0.29583   -0.34809
 35 Co    0.01868   -0.29361    0.35731
 36 Cr    0.03196    0.16186    0.08084
 37 Fe    0.09344   -0.08569   -0.07429
 38 Fe    0.09490   -0.33291   -0.25565
 39 Co    0.14488    0.11689   -0.20487
 40 Ni    0.15358    0.33432    0.03123
 41 Fe   -0.39487   -0.05566    0.14275
 42 Co    0.01109   -0.48614    0.38592
 43 Al   -0.28890   -0.41082   -0.23599
 44 Ni   -0.01639   -0.32588   -0.05129
 45 Ni   -0.10940   -0.21015   -0.00337
 46 Co   -0.27154   -0.13038    0.13522
 47 Fe   -0.28080    0.11281   -0.04183
 48 Ni    0.10511   -0.13114   -0.25497
 49 Co   -0.14874   -0.07517    0.08185
 50 Ni   -0.18986   -0.24963   -0.13001
 51 Fe   -0.35881    0.03042   -0.26923
 52 Ni    0.24872   -0.44958   -0.40439
 53 Al    0.81914   -0.46864   -0.65182
 54 Co    0.38708   -0.26686    0.08199
 55 Ni   -0.02065   -0.05465   -0.26567
 56 Cr   -0.00856    0.24492   -0.16119
 57 Cr   -0.21012    0.48651    0.53643
 58 Ni    0.01606   -0.10283    0.05277
 59 Fe    0.04398   -0.16325   -0.00549
 60 Fe    0.04796    0.26387    0.03354
 61 Co   -0.03437    0.14220    0.05325
 62 Cr   -0.50147    0.93613    0.20099
 63 Ni   -0.23267   -0.04667   -0.16914
 64 Fe    0.03209    0.11739   -0.28779
 65 Co    0.37458    0.26765    0.34942
 66 Ni    0.52794    0.58548    0.17761
 67 Cr    0.24974    0.39753    0.41431
 68 Fe   -0.09939    0.11499    0.09905
 69 Cr    0.07545   -0.06396   -0.36451
 70 Ni   -0.27910    0.29300    0.09620
 71 Fe   -0.18638    0.07961    0.22545
 72 Co   -0.09882    0.10912   -0.22102
 73 Cr    0.48058   -0.57456    0.29369
 74 Ni    0.14951    0.21601    0.04084
 75 Cr    0.15759   -0.26672   -0.24820
 76 Fe    0.54523    0.19145    0.14109
 77 Cr    0.20429   -0.61670   -0.09888
 78 Co   -0.08565    0.03903   -0.08961
 79 Cr    0.01439   -0.30235    0.09477
 80 Cr   -0.53976    0.67801   -0.44851
 81 Ni   -0.46041   -0.69490   -0.06499
 82 Fe    0.06079    0.38804    0.10733
 83 Ni    0.22730   -0.12462   -0.25486
 84 Fe    0.08067   -0.13048   -0.28484
 85 Fe    0.16769    0.51282    0.26077
 86 Fe    0.31181   -0.01480    0.25799
 87 Fe    0.13044   -0.19843    0.03869
 88 Cr    0.12752   -0.46272    0.80030
 89 Co   -0.05074    0.24295    0.10166
 90 Cr   -0.46461   -0.10518   -0.06454
 91 Fe    0.32975    0.28430    0.39807
 92 Cr   -0.38094   -0.23492   -0.89149
 93 Cr   -0.24548    1.71726   -0.34651
 94 Al    0.37825   -0.34662   -0.38651
 95 Fe   -0.18970    0.27278   -0.23800
 96 Fe   -0.15393    0.07531   -0.34016
 97 Fe    0.24216   -0.22284    0.21530
 98 Co    0.07349   -0.06264    0.17627
 99 Ni   -0.03945    0.20359   -0.02685
100 Co    0.04887    0.36139    0.31796
101 Fe    0.37276    0.20691   -0.20247
102 Co    0.06380   -0.34725    0.04796
103 Cr   -0.60084    0.30167   -0.67487
104 Co   -0.15614   -0.12807   -0.51226
105 Al   -0.15053   -1.09845    0.63921
106 Ni   -0.13616   -0.31833    0.42741
107 Ni   -0.15278    0.07319   -0.55661

Timing:                              incl.     excl.
-----------------------------------------------------------
Forces:                             22.476    22.476   0.1% |
Hamiltonian:                         0.676     0.006   0.0% |
 Atomic:                             0.370     0.092   0.0% |
  XC Correction:                     0.277     0.277   0.0% |
 Calculate atomic Hamiltonians:      0.169     0.169   0.0% |
 Communicate:                        0.000     0.000   0.0% |
 Initialize Hamiltonian:             0.000     0.000   0.0% |
 Poisson:                            0.001     0.001   0.0% |
 XC 3D grid:                         0.131     0.131   0.0% |
LCAO initialization:               181.343     1.135   0.0% |
 LCAO eigensolver:                  27.232     0.029   0.0% |
  Calculate projections:             0.234     0.234   0.0% |
  DenseAtomicCorrection:             0.362     0.362   0.0% |
  Distribute overlap matrix:         2.211     2.211   0.0% |
  Orbital Layouts:                  16.880    16.880   0.1% |
  Potential matrix:                  6.368     6.368   0.0% |
  Sum over cells:                    1.148     1.148   0.0% |
 LCAO to grid:                     150.056   150.056   0.9% |
 Set positions (LCAO WFS):           2.921     2.060   0.0% |
  Basic WFS set positions:           0.003     0.003   0.0% |
  Basis functions set positions:     0.001     0.001   0.0% |
  P tci:                             0.350     0.350   0.0% |
  ST tci:                            0.230     0.230   0.0% |
  mktci:                             0.277     0.277   0.0% |
PWDescriptor:                        0.075     0.075   0.0% |
SCF-cycle:                       17330.347     0.946   0.0% |
 Davidson:                       17117.121  2873.389  16.4% |------|
  Apply H:                         145.596   140.934   0.8% |
   HMM T:                            4.662     4.662   0.0% |
  Subspace diag:                  1145.286     0.139   0.0% |
   calc_h_matrix:                  413.206   252.627   1.4% ||
    Apply H:                       160.579   155.641   0.9% |
     HMM T:                          4.938     4.938   0.0% |
   diagonalize:                    273.496   273.496   1.6% ||
   rotate_psi:                     458.445   458.445   2.6% ||
  calc. matrices:                 2330.981  2114.027  12.1% |----|
   Apply H:                        216.954   207.673   1.2% |
    HMM T:                           9.282     9.282   0.1% |
  diagonalize:                    9576.802  9576.802  54.6% |---------------------|
  rotate_psi:                     1045.066  1045.066   6.0% |-|
 Density:                          116.262     0.005   0.0% |
  Atomic density matrices:           3.365     3.365   0.0% |
  Mix:                              41.982    41.982   0.2% |
  Multipole moments:                 0.062     0.062   0.0% |
  Pseudo density:                   70.848    70.841   0.4% |
   Symmetrize density:               0.006     0.006   0.0% |
 Hamiltonian:                       84.802     0.785   0.0% |
  Atomic:                           38.802     6.922   0.0% |
   XC Correction:                   31.879    31.879   0.2% |
  Calculate atomic Hamiltonians:    31.273    31.273   0.2% |
  Communicate:                       0.309     0.309   0.0% |
  Poisson:                           0.094     0.094   0.0% |
  XC 3D grid:                       13.539    13.539   0.1% |
 Orthonormalize:                    11.216     0.002   0.0% |
  calc_s_matrix:                     1.406     1.406   0.0% |
  inverse-cholesky:                  1.189     1.189   0.0% |
  projections:                       6.365     6.365   0.0% |
  rotate_psi_s:                      2.255     2.255   0.0% |
Set symmetry:                        0.001     0.001   0.0% |
Other:                               3.277     3.277   0.0% |
-----------------------------------------------------------
Total:                                     17538.196 100.0%

Date: Sat Apr 15 21:32:57 2023
