
  ___ ___ ___ _ _ _  
 |   |   |_  | | | | 
 | | | | | . | | | | 
 |__ |  _|___|_____|  22.8.0
 |___|_|             

User:   c.zeng@d0093
Date:   Thu Apr 20 03:24:52 2023
Arch:   x86_64
Pid:    275318
CWD:    /home/c.zeng/projects/hea-corrosion/hea-mlp/data-curation/surface-mcmc/dft-jobs/40
Python: 3.8.1
gpaw:   /home/c.zeng/usr/installs/gpaw/source/gpaw-22.8.0/gpaw
_gpaw:  /home/c.zeng/usr/installs/gpaw/source/gpaw-22.8.0/
        _gpaw.cpython-38-x86_64-linux-gnu.so
ase:    /home/c.zeng/.local/lib/python3.8/site-packages/ase-3.22.1-py3.8.egg/ase (version 3.22.1)
numpy:  /home/c.zeng/.local/lib/python3.8/site-packages/numpy (version 1.24.2)
scipy:  /home/c.zeng/.local/lib/python3.8/site-packages/scipy (version 1.10.1)
libxc:  4.2.3
units:  Angstrom and eV
cores: 30
OpenMP: False
OMP_NUM_THREADS: 1

Input parameters:
  convergence: {energy: 0.0001}
  kpts: [2 2 1]
  maxiter: 666
  mode: {ecut: 350.0,
         name: pw}
  occupations: {fixmagmom: False,
                name: fermi-dirac,
                width: 0.1}
  poissonsolver: {dipolelayer: xy}
  spinpol: True
  symmetry: {point_group: False}
  xc: PBE

System changes: positions, numbers, cell, pbc, initial_charges, initial_magmoms 

Initialize ...

species:
  Cr:
    name: Chromium
    id: 33f258bda2ca9f93018e70263a35547b
    Z: 24.0
    valence: 6
    core: 18
    charge: 0.0
    file: /home/c.zeng/usr/data/gpaw-setups-0.9.20000/Cr.PBE.gz
    compensation charges: {type: gauss,
                           rc: 0.35,
                           lmax: 2}
    cutoffs: {filter: 2.14,
              core: 3.04}
    valence states:
      #              energy  rcut
      - 4s(1.00)    -4.007   1.164
      - 4p(0.00)    -0.989   1.217
      - 3d(5.00)    -2.913   1.111
      -  s          23.205   1.164
      -  p          26.223   1.217
      -  d          24.299   1.111
  
    # Using partial waves for Cr as LCAO basis

  Fe:
    name: Iron
    id: 37abbd8d6c3c35915a9b583b742da910
    Z: 26.0
    valence: 8
    core: 18
    charge: 0.0
    file: /home/c.zeng/usr/data/gpaw-setups-0.9.20000/Fe.PBE.gz
    compensation charges: {type: gauss,
                           rc: 0.33,
                           lmax: 2}
    cutoffs: {filter: 2.06,
              core: 2.67}
    valence states:
      #              energy  rcut
      - 4s(2.00)    -5.291   1.164
      - 4p(0.00)    -1.326   1.058
      - 3d(6.00)    -7.505   1.058
      -  s          21.920   1.164
      -  p          25.885   1.058
      -  d          19.706   1.058
  
    # Using partial waves for Fe as LCAO basis

  Co:
    name: Cobalt
    id: 339d20d5b0b93d2de9531a1bee871d91
    Z: 27.0
    valence: 9
    core: 18
    charge: 0.0
    file: /home/c.zeng/usr/data/gpaw-setups-0.9.20000/Co.PBE.gz
    compensation charges: {type: gauss,
                           rc: 0.32,
                           lmax: 2}
    cutoffs: {filter: 1.87,
              core: 2.55}
    valence states:
      #              energy  rcut
      - 4s(2.00)    -5.469   1.005
      - 4p(0.00)    -1.277   1.058
      - 3d(7.00)    -8.205   1.005
      -  s          21.742   1.005
      -  p          25.934   1.058
      -  d          19.007   1.005
  
    # Using partial waves for Co as LCAO basis

  Ni:
    name: Nickel
    id: 0d9f38a9d6e76a2886f07bb4381f212b
    Z: 28.0
    valence: 16
    core: 12
    charge: 0.0
    file: /home/c.zeng/usr/data/gpaw-setups-0.9.20000/Ni.PBE.gz
    compensation charges: {type: gauss,
                           rc: 0.36,
                           lmax: 2}
    cutoffs: {filter: 2.14,
              core: 1.98}
    valence states:
      #              energy  rcut
      - 4s(2.00)    -5.642   1.164
      - 3p(6.00)   -71.394   1.207
      - 4p(0.00)    -1.226   1.207
      - 3d(8.00)    -8.875   1.138
      -  s          21.570   1.164
      -  d          18.337   1.138
  
    # Using partial waves for Ni as LCAO basis

Reference energy: -4451268.207082  # eV

Spin-polarized calculation.
Magnetic moment: 175.600000

Convergence criteria:
 Maximum [total energy] change in last 3 cyles: 0.0001 eV / electron
 Maximum integral of absolute [dens]ity change: 0.0001 electrons / valence electron
 Maximum integral of absolute [eigenst]ate change: 4e-08 eV^2 / valence electron
 Maximum number of scf [iter]ations: 666
 (Square brackets indicate name in SCF output, whereas a 'c' in
 the SCF output indicates the quantity has converged.)

Symmetries present (total): 1

  ( 1  0  0)
  ( 0  1  0)
  ( 0  0  1)

4 k-points: 2 x 2 x 1 Monkhorst-Pack grid
2 k-points in the irreducible part of the Brillouin zone
       k-points in crystal coordinates                weights
   0:     0.25000000   -0.25000000    0.00000000          2/4
   1:     0.25000000    0.25000000    0.00000000          2/4

Wave functions: Plane wave expansion
  Cutoff energy: 350.000 eV
  Number of coefficients (min, max): 58495, 58567
  Pulay-stress correction: 0.000000 eV/Ang^3 (de/decut=0.000000)
  Using FFTW library
  ScaLapack parameters: grid=1x1, blocksize=None
  Wavefunction extrapolation:
    Improved wavefunction reuse through dual PAW basis 

Occupation numbers: Fermi-Dirac:
  width: 0.1000  # eV
 

Eigensolver
   Davidson(niter=2) 

Densities:
  Coarse grid: 54*54*128 grid
  Fine grid: 108*108*256 grid
  Total Charge: 0.000000 

Density mixing:
  Method: difference
  Backend: pulay
  Linear mixing parameter: 0.05
  old densities: 5
  Damping of long wavelength oscillations: 50 

Hamiltonian:
  XC and Coulomb potentials evaluated on a 108*108*256 grid
  Using the PBE Exchange-Correlation functional
  External potential:
    NoExternalPotential
 

XC parameters: PBE with 2 nearest neighbor stencil

Memory estimate:
  Process memory now: 366.01 MiB
  Calculator: 2405.48 MiB
    Density: 16.73 MiB
      Arrays: 6.75 MiB
      Localized functions: 7.29 MiB
      Mixer: 2.70 MiB
    Hamiltonian: 5.22 MiB
      Arrays: 5.01 MiB
      XC: 0.00 MiB
      Poisson: 0.00 MiB
      vbar: 0.21 MiB
    Wavefunctions: 2383.52 MiB
      Arrays psit_nG: 1501.35 MiB
      Eigensolver: 862.84 MiB
      Projections: 3.85 MiB
      Projectors: 0.98 MiB
      PW-descriptor: 14.51 MiB

Total number of cores used: 30
Parallelization over k-points: 2
Domain decomposition: 1 x 3 x 5

Number of atoms: 125
Number of atomic orbitals: 1218
Number of bands in calculation: 840
Number of valence electrons: 1217
Bands to converge: occupied

... initialized

Initializing position-dependent things.

Density initialized from atomic densities
Creating initial wave functions:
  840 bands from LCAO basis set

                                                                  
                                                                  
                                                                  
                                                                  
                                   Co    Co           Ni          
                         Ni    Ni    Fe    Co    Cr               
                    Co    Cr     Cr    Ni    Co                   
                                Co    Ni    Ni    Cr    Fe        
                Cr    Ni   NCr   CCo    NFe   Fe    Fe            
            Co    Ni   FCo   NCo   FNi   Fe     Ni                
       Ni                 FeCr    Cr     Cr    Fe    Fe           
                   Fe   CCo   FFe   FNi   CFe   Cr    Cr          
              Ni   FCo    CNi   FFe   CFe   Ni                    
                               Ni    Ni    Cr    Co    Cr         
               Cr   CFe   FCr   NFNi  CCNi  CFe   Co    Cr        
           Cr   CNi   FCo  CNCr   NCo   CCo         Fe            
            Co    Fe          Fe    Cr        Ni                  
                       CNi   Co    Cr    Ni     Cr                
             Fe    Cr    CFe   Co    CCo   Ni                     
              Fe    Co    Cr     Ni    Cr                         
                                                                  
                                                                  
                                                                  
                                                                  
                                                                  

Positions:
   0 Cr    12.462288    1.423821   10.629080    ( 0.0000,  0.0000,  0.0000)
   1 Fe     2.499576    1.440301   10.626527    ( 0.0000,  0.0000,  2.0000)
   2 Co     4.968611    1.438835   10.615079    ( 0.0000,  0.0000,  1.5000)
   3 Cr     7.462726    1.421460   10.639178    ( 0.0000,  0.0000,  2.1000)
   4 Ni     9.958813    1.440808   10.614286    ( 0.0000,  0.0000,  1.5000)
   5 Ni    13.701699    3.595687   10.631928    ( 0.0000,  0.0000,  0.0000)
   6 Fe     3.731720    3.588498   10.658463    ( 0.0000,  0.0000,  2.0000)
   7 Cr     6.206181    3.578862   10.616048    ( 0.0000,  0.0000,  0.0000)
   8 Co     8.708678    3.588487   10.610441    ( 0.0000,  0.0000,  0.0000)
   9 Co    11.213254    3.596560   10.610265    ( 0.0000,  0.0000,  0.0000)
  10 Cr    14.928341    5.748260   10.633307    ( 0.0000,  0.0000,  1.5000)
  11 Co     4.975718    5.742741   10.620568    ( 0.0000,  0.0000,  0.0000)
  12 Co     7.478433    5.755029   10.612261    ( 0.0000,  0.0000,  0.0000)
  13 Cr     9.958968    5.766540   10.606596    ( 0.0000,  0.0000,  0.0000)
  14 Ni    12.428955    5.759114   10.623679    ( 0.0000,  0.0000,  2.0000)
  15 Fe    16.172575    7.907763   10.614962    ( 0.0000,  0.0000,  0.0000)
  16 Co     6.230875    7.897556   10.631399    ( 0.0000,  0.0000,  1.5000)
  17 Co     8.712063    7.918800   10.624912    ( 0.0000,  0.0000,  1.5000)
  18 Cr    11.196407    7.900649   10.627583    ( 0.0000,  0.0000,  2.0000)
  19 Ni    13.685743    7.894915   10.608768    ( 0.0000,  0.0000,  0.0000)
  20 Cr    17.413095   10.061737   10.609531    ( 0.0000,  0.0000,  0.0000)
  21 Ni     7.473454   10.060875   10.626761    ( 0.0000,  0.0000,  1.5000)
  22 Co     9.959304   10.058201   10.606068    ( 0.0000,  0.0000,  0.0000)
  23 Co    12.452485   10.052985   10.619834    ( 0.0000,  0.0000,  1.5000)
  24 Co    14.933506   10.061047   10.614433    ( 0.0000,  0.0000,  2.0000)
  25 Co    12.449050   -0.000629   12.627234    ( 0.0000,  0.0000,  2.1000)
  26 Fe     2.492433    0.000558   12.634954    ( 0.0000,  0.0000,  2.1000)
  27 Cr     4.974333    0.000141   12.611941    ( 0.0000,  0.0000,  2.1000)
  28 Fe     7.468637   -0.006559   12.638564    ( 0.0000,  0.0000,  0.0000)
  29 Cr    16.167928   10.788301   12.619514    ( 0.0000,  0.0000,  2.0000)
  30 Co     1.266555    2.151225   12.633662    ( 0.0000,  0.0000,  2.0000)
  31 Fe     3.735748    2.148121   12.651127    ( 0.0000,  0.0000,  2.1000)
  32 Ni     6.204229    2.151322   12.625297    ( 0.0000,  0.0000,  2.0000)
  33 Fe     8.713864    2.159169   12.632341    ( 0.0000,  0.0000,  0.0000)
  34 Cr    11.209280    2.157261   12.630668    ( 0.0000,  0.0000,  2.0000)
  35 Cr     2.491537    4.311041   12.649513    ( 0.0000,  0.0000,  1.5000)
  36 Fe     4.975141    4.309004   12.661988    ( 0.0000,  0.0000,  1.5000)
  37 Ni     7.471546    4.302515   12.629612    ( 0.0000,  0.0000,  0.0000)
  38 Ni     9.959331    4.321389   12.624211    ( 0.0000,  0.0000,  2.0000)
  39 Co    12.447216    4.322736   12.648779    ( 0.0000,  0.0000,  0.0000)
  40 Cr     3.727002    6.455713   12.638564    ( 0.0000,  0.0000,  2.0000)
  41 Fe     6.230130    6.458548   12.645726    ( 0.0000,  0.0000,  1.5000)
  42 Fe     8.722502    6.475815   12.624504    ( 0.0000,  0.0000,  2.1000)
  43 Co    11.197735    6.469758   12.643995    ( 0.0000,  0.0000,  1.5000)
  44 Fe    13.683348    6.470059   12.640003    ( 0.0000,  0.0000,  2.1000)
  45 Cr    17.413993    8.621565   12.620189    ( 0.0000,  0.0000,  0.0000)
  46 Ni     7.471608    8.621834   12.638564    ( 0.0000,  0.0000,  1.5000)
  47 Ni     9.955597    8.628593   12.628115    ( 0.0000,  0.0000,  2.1000)
  48 Cr    12.449432    8.615173   12.619279    ( 0.0000,  0.0000,  1.5000)
  49 Co    14.929575    8.617340   12.626089    ( 0.0000,  0.0000,  2.0000)
  50 Cr     1.254097    0.717223   14.680102    ( 0.0000,  0.0000,  2.1000)
  51 Ni     3.731090    0.711950   14.670063    ( 0.0000,  0.0000,  2.0000)
  52 Co     6.214925    0.718289   14.674818    ( 0.0000,  0.0000,  0.0000)
  53 Cr     8.714063    0.718519   14.689084    ( 0.0000,  0.0000,  2.0000)
  54 Co    11.204771    0.717512   14.682421    ( 0.0000,  0.0000,  0.0000)
  55 Cr     2.496837    2.862958   14.687264    ( 0.0000,  0.0000,  2.0000)
  56 Fe     4.979214    2.867151   14.683800    ( 0.0000,  0.0000,  2.1000)
  57 Cr     7.478991    2.885690   14.679133    ( 0.0000,  0.0000,  2.1000)
  58 Ni     9.958294    2.881486   14.688056    ( 0.0000,  0.0000,  2.1000)
  59 Ni    12.441997    2.882424   14.688409    ( 0.0000,  0.0000,  0.0000)
  60 Fe     3.731806    5.017201   14.686589    ( 0.0000,  0.0000,  2.1000)
  61 Cr     6.225452    5.035536   14.687205    ( 0.0000,  0.0000,  0.0000)
  62 Fe     8.715945    5.032324   14.674525    ( 0.0000,  0.0000,  2.1000)
  63 Cr    11.195745    5.039006   14.696011    ( 0.0000,  0.0000,  2.0000)
  64 Ni    13.700079    5.031203   14.681012    ( 0.0000,  0.0000,  2.1000)
  65 Co     4.981869    7.184260   14.692048    ( 0.0000,  0.0000,  2.0000)
  66 Fe     7.477161    7.188130   14.678135    ( 0.0000,  0.0000,  1.5000)
  67 Fe     9.952805    7.179334   14.674554    ( 0.0000,  0.0000,  0.0000)
  68 Cr    12.443073    7.188992   14.681100    ( 0.0000,  0.0000,  2.0000)
  69 Cr    14.930068    7.191493   14.686618    ( 0.0000,  0.0000,  0.0000)
  70 Cr     6.231394    9.346900   14.677343    ( 0.0000,  0.0000,  0.0000)
  71 Cr     8.712453    9.336671   14.666629    ( 0.0000,  0.0000,  1.5000)
  72 Cr    11.193692    9.342761   14.657881    ( 0.0000,  0.0000,  1.5000)
  73 Fe    13.688080    9.336294   14.678986    ( 0.0000,  0.0000,  2.1000)
  74 Fe    16.181709    9.338601   14.679603    ( 0.0000,  0.0000,  2.0000)
  75 Fe    12.451515    1.431333   16.739956    ( 0.0000,  0.0000,  2.0000)
  76 Ni     2.493173    1.440441   16.729476    ( 0.0000,  0.0000,  1.5000)
  77 Co     4.973378    1.437348   16.717295    ( 0.0000,  0.0000,  1.5000)
  78 Ni     7.475017    1.438609   16.711571    ( 0.0000,  0.0000,  2.0000)
  79 Fe     9.955789    1.433845   16.723048    ( 0.0000,  0.0000,  2.1000)
  80 Fe    13.696559    3.594351   16.715270    ( 0.0000,  0.0000,  2.1000)
  81 Fe     3.730077    3.579487   16.736903    ( 0.0000,  0.0000,  2.0000)
  82 Co     6.225541    3.599416   16.704614    ( 0.0000,  0.0000,  1.5000)
  83 Fe     8.709257    3.594792   16.716150    ( 0.0000,  0.0000,  2.1000)
  84 Ni    11.199463    3.603674   16.739691    ( 0.0000,  0.0000,  2.0000)
  85 Ni    14.943900    5.737718   16.712745    ( 0.0000,  0.0000,  1.5000)
  86 Fe     4.972339    5.736543   16.726893    ( 0.0000,  0.0000,  1.5000)
  87 Ni     7.458804    5.749316   16.714624    ( 0.0000,  0.0000,  2.1000)
  88 Fe     9.954095    5.748637   16.721228    ( 0.0000,  0.0000,  2.0000)
  89 Fe    12.462014    5.747344   16.728743    ( 0.0000,  0.0000,  2.0000)
  90 Fe    16.183410    7.912818   16.742715    ( 0.0000,  0.0000,  2.0000)
  91 Ni     6.219087    7.908313   16.727040    ( 0.0000,  0.0000,  2.1000)
  92 Co     8.705037    7.899237   16.717853    ( 0.0000,  0.0000,  1.5000)
  93 Ni    11.200247    7.900293   16.707726    ( 0.0000,  0.0000,  2.0000)
  94 Fe    13.685904    7.915049   16.733058    ( 0.0000,  0.0000,  2.0000)
  95 Fe    17.435836   10.053955   16.714183    ( 0.0000,  0.0000,  2.1000)
  96 Co     7.479895   10.064335   16.723694    ( 0.0000,  0.0000,  2.1000)
  97 Ni     9.948438   10.062297   16.717999    ( 0.0000,  0.0000,  2.0000)
  98 Ni    12.430846   10.066016   16.706229    ( 0.0000,  0.0000,  2.1000)
  99 Cr    14.931465   10.060206   16.719819    ( 0.0000,  0.0000,  2.0000)
 100 Ni     0.001393   -0.001477   18.721348    ( 0.0000,  0.0000,  2.1000)
 101 Co     8.706806   10.779893   18.727160    ( 0.0000,  0.0000,  2.1000)
 102 Co    11.204107   10.781618   18.717855    ( 0.0000,  0.0000,  1.5000)
 103 Fe     7.469960    0.013195   18.707875    ( 0.0000,  0.0000,  2.0000)
 104 Ni    16.181919   10.775754   18.709108    ( 0.0000,  0.0000,  2.1000)
 105 Co     1.248004    2.161303   18.718354    ( 0.0000,  0.0000,  2.1000)
 106 Ni     3.733315    2.155634   18.745800    ( 0.0000,  0.0000,  1.5000)
 107 Co     6.228574    2.157186   18.698042    ( 0.0000,  0.0000,  2.0000)
 108 Co     8.707430    2.146688   18.721378    ( 0.0000,  0.0000,  1.5000)
 109 Ni    11.204420    2.145825   18.737698    ( 0.0000,  0.0000,  0.0000)
 110 Cr     2.490030    4.312410   18.723374    ( 0.0000,  0.0000,  2.1000)
 111 Ni     4.985099    4.302214   18.737992    ( 0.0000,  0.0000,  1.5000)
 112 Cr     7.468273    4.307150   18.718736    ( 0.0000,  0.0000,  1.5000)
 113 Co     9.951365    4.318112   18.731387    ( 0.0000,  0.0000,  1.5000)
 114 Fe    12.445275    4.305296   18.744537    ( 0.0000,  0.0000,  0.0000)
 115 Co     3.740863    6.459076   18.741044    ( 0.0000,  0.0000,  0.0000)
 116 Cr     6.217689    6.472786   18.736054    ( 0.0000,  0.0000,  1.5000)
 117 Cr     8.709004    6.465931   18.718354    ( 0.0000,  0.0000,  0.0000)
 118 Ni    11.207929    6.465576   18.705468    ( 0.0000,  0.0000,  2.1000)
 119 Co    13.697451    6.465489   18.739900    ( 0.0000,  0.0000,  0.0000)
 120 Ni     4.983428    8.632721   18.739518    ( 0.0000,  0.0000,  1.5000)
 121 Ni     7.469224    8.629196   18.723022    ( 0.0000,  0.0000,  1.5000)
 122 Fe     9.951770    8.622740   18.693815    ( 0.0000,  0.0000,  2.1000)
 123 Co    12.435945    8.632257   18.713130    ( 0.0000,  0.0000,  0.0000)
 124 Cr    14.940770    8.642831   18.751406    ( 0.0000,  0.0000,  0.0000)

Unit cell:
           periodic     x           y           z      points  spacing
  1. axis:    yes   12.446800    0.000000    0.000000    54     0.1996
  2. axis:    yes    6.223010   10.778600    0.000000    54     0.1996
  3. axis:    no     0.000000    0.000000   29.353100   128     0.2293

  Lengths:  12.446800  12.446046  29.353100
  Angles:   90.000000  90.000000  60.000070

Effective grid spacing dv^(1/3) = 0.2193

     iter     time        total  log10-change:  magmom
                         energy  eigst   dens
iter:   1 03:32:12 -1141.295088                  +175.5308
iter:   2 03:34:37 -2085.416358  +0.53  -1.18    +141.8622
iter:   3 03:37:03 -1985.287138  +0.97  -0.85    +114.5198
iter:   4 03:39:29 -1170.403939  -0.41  -0.85    +79.2039
iter:   5 03:41:55 -1043.067815  -1.26  -1.21    +60.8287
iter:   6 03:44:21 -1030.557721  -1.79  -1.33    +46.9299
iter:   7 03:46:47 -1015.303228  -1.73  -1.35    +43.8966
iter:   8 03:49:12 -1155.154500  -1.01  -1.39    +44.8846
iter:   9 03:51:38 -1124.056977  -1.07  -1.15    +42.6213
iter:  10 03:54:04 -1007.829903  -1.64  -1.16    +35.9399
iter:  11 03:56:30  -997.840024  -1.93  -1.45    +35.9123
iter:  12 03:58:56  -997.796825  -1.66  -1.49    +36.8123
iter:  13 04:01:21 -1013.213199  -1.62  -1.55    +39.0512
iter:  14 04:03:47  -990.860962  -1.60  -1.45    +40.3221
iter:  15 04:06:13 -1158.399512  -1.18  -1.73    +43.3796
iter:  16 04:08:39 -1011.440190  -1.53  -1.19    +41.4511
iter:  17 04:11:04  -994.072593  -2.04  -1.51    +40.6084
iter:  18 04:13:30  -989.291591  -2.40  -1.71    +43.0272
iter:  19 04:15:56  -998.886007  -1.92  -1.82    +44.2504
iter:  20 04:18:22  -989.381833  -2.22  -1.71    +46.4435
iter:  21 04:20:48 -1005.148072  -2.24  -1.84    +48.1869
iter:  22 04:23:14  -989.575948  -2.37  -1.62    +48.8925
iter:  23 04:25:40 -1009.468982  -2.18  -1.94    +50.0236
iter:  24 04:28:06  -990.618468  -2.38  -1.58    +52.7330
iter:  25 04:30:32  -989.562978  -3.11  -1.90    +53.8333
iter:  26 04:32:58  -992.312957  -2.70  -1.99    +55.7151
iter:  27 04:35:24  -990.208151  -2.77  -1.92    +56.4347
iter:  28 04:37:51  -991.041300  -2.88  -2.06    +57.8613
iter:  29 04:40:17  -998.107455  -2.67  -2.06    +59.7795
iter:  30 04:42:43 -1000.742909  -2.12  -1.79    +59.5507
iter:  31 04:45:09  -991.527288  -2.47  -1.78    +60.5021
iter:  32 04:47:35  -991.292335  -3.01  -2.14    +62.2597
iter:  33 04:50:01  -991.123434  -3.41  -2.17    +63.2444
iter:  34 04:52:27  -991.312113  -3.45  -2.27    +65.0259
iter:  35 04:54:53  -992.044019  -3.32  -2.28    +66.4228
iter:  36 04:57:19  -995.225879  -2.92  -2.22    +66.5246
iter:  37 04:59:45  -991.972899  -3.13  -1.97    +67.5260
iter:  38 05:02:10  -992.132681  -3.26  -2.32    +68.6090
iter:  39 05:04:36  -992.238762  -3.13  -2.40    +68.5110
iter:  40 05:07:03  -992.312725  -3.35  -2.51    +68.9658
iter:  41 05:09:29  -992.365100  -3.49  -2.55    +69.8905
iter:  42 05:11:55  -992.767962  -3.61  -2.54    +70.5618
iter:  43 05:14:21  -992.372105  -3.82  -2.40    +70.4695
iter:  44 05:16:47  -992.423814  -3.97  -2.66    +70.8772
iter:  45 05:19:13  -992.459257c -4.18  -2.70    +71.4660
iter:  46 05:21:39  -992.528782c -4.07  -2.74    +71.7132
iter:  47 05:24:05  -992.673689  -3.51  -2.76    +71.9737
iter:  48 05:26:30  -992.810822  -3.67  -2.77    +72.1798
iter:  49 05:28:56  -992.814928  -4.41  -2.63    +72.2486
iter:  50 05:31:23  -992.759530c -4.15  -2.62    +72.7375
iter:  51 05:33:49  -992.793510c -4.50  -2.71    +72.5986
iter:  52 05:36:15  -992.775784c -4.27  -2.69    +72.9272
iter:  53 05:38:40  -992.959790  -3.87  -2.71    +72.3623
iter:  54 05:41:06  -992.797027  -4.39  -2.56    +72.2110
iter:  55 05:43:33  -993.046486  -3.77  -2.75    +71.9365
iter:  56 05:45:59  -992.809655  -3.94  -2.53    +72.0242
iter:  57 05:48:25  -992.837157  -4.13  -2.78    +72.0498
iter:  58 05:50:51  -992.750618c -4.30  -2.77    +71.6582
iter:  59 05:53:17  -992.823678c -4.00  -3.07    +71.7250
iter:  60 05:55:43  -992.786755c -4.35  -2.83    +71.8513
iter:  61 05:58:09  -992.744346c -4.76  -2.91    +71.7888
iter:  62 06:00:35  -992.767982c -4.95  -3.25    +71.8604
iter:  63 06:03:00  -992.750829c -5.16  -3.03    +71.8327
iter:  64 06:05:26  -992.764536c -5.29  -3.25    +71.9115
iter:  65 06:07:52  -992.755545c -5.49  -3.11    +71.8819
iter:  66 06:10:18  -992.762341c -5.10  -3.24    +71.8908
iter:  67 06:12:44  -992.771382c -5.25  -3.24    +71.9139
iter:  68 06:15:10  -992.763187c -4.99  -3.10    +71.8807
iter:  69 06:17:36  -992.754555c -5.29  -3.25    +71.9151
iter:  70 06:20:02  -992.757961c -5.52  -3.46    +72.0931
iter:  71 06:22:28  -992.760597c -5.57  -3.47    +72.1216
iter:  72 06:24:54  -992.761178c -5.61  -3.48    +72.1940
iter:  73 06:27:20  -992.764877c -5.59  -3.49    +72.2854
iter:  74 06:29:46  -992.763028c -6.01  -3.45    +72.2936
iter:  75 06:32:13  -992.764014c -5.96  -3.48    +72.2868
iter:  76 06:34:39  -992.767397c -5.90  -3.44    +72.2996
iter:  77 06:37:05  -992.768149c -5.80  -3.34    +72.2810
iter:  78 06:39:31  -992.765097c -5.63  -3.36    +72.2310
iter:  79 06:41:57  -992.772187c -5.38  -3.41    +72.2582
iter:  80 06:44:23  -992.766531c -5.67  -3.31    +72.2761
iter:  81 06:46:52  -992.766707c -5.66  -3.45    +72.2393
iter:  82 06:49:19  -992.778117c -5.15  -3.50    +72.2262
iter:  83 06:51:45  -992.766197c -5.49  -3.21    +72.2564
iter:  84 06:54:11  -992.769160c -5.48  -3.56    +72.3027
iter:  85 06:56:38  -992.772306c -5.37  -3.56    +72.3048
iter:  86 06:59:03  -992.769531c -5.50  -3.30    +72.2812
iter:  87 07:01:29  -992.766919c -6.24  -3.42    +72.3462
iter:  88 07:03:55  -992.766260c -5.81  -3.61    +72.4400
iter:  89 07:06:21  -992.766000c -6.48  -3.70    +72.4003
iter:  90 07:08:48  -992.765846c -6.45  -3.79    +72.3925
iter:  91 07:11:14  -992.768043c -6.12  -3.78    +72.4110
iter:  92 07:13:39  -992.784641c -5.30  -3.71    +72.4150
iter:  93 07:16:05  -992.766187c -5.61  -3.14    +72.3830
iter:  94 07:18:31  -992.769596c -5.78  -3.91    +72.3672
iter:  95 07:20:57  -992.766163c -6.10  -3.50    +72.3851
iter:  96 07:23:23  -992.766343c -6.65  -3.94    +72.4029
iter:  97 07:25:49  -992.766133c -7.33  -4.09c   +72.3946
iter:  98 07:28:15  -992.766321c -7.10  -4.12c   +72.3892
iter:  99 07:30:42  -992.766649c -6.63  -4.12c   +72.3900
iter: 100 07:33:08  -992.767346c -6.41  -3.93    +72.3866
iter: 101 07:35:34  -992.766754c -6.34  -3.76    +72.3930
iter: 102 07:38:00  -992.765892c -6.52  -3.92    +72.3831
iter: 103 07:40:27  -992.766734c -6.61  -4.18c   +72.3861
iter: 104 07:42:53  -992.766316c -7.09  -4.21c   +72.3905
iter: 105 07:45:19  -992.766322c -7.30  -4.42c   +72.3847
iter: 106 07:47:45  -992.766283c -7.68c -4.40c   +72.3865

Converged after 106 iterations.

Dipole moment: (52.353594, 28.814403, -0.001803) |e|*Ang

Total magnetic moment: (0.000000, 0.000000, 72.386470)
Local magnetic moments:
   0 Cr ( 0.000000,  0.000000, -2.269889)
   1 Fe ( 0.000000,  0.000000,  2.512266)
   2 Co ( 0.000000,  0.000000,  1.115141)
   3 Cr ( 0.000000,  0.000000,  2.035376)
   4 Ni ( 0.000000,  0.000000, -0.042994)
   5 Ni ( 0.000000,  0.000000,  0.339849)
   6 Fe ( 0.000000,  0.000000,  2.209618)
   7 Cr ( 0.000000,  0.000000, -2.323562)
   8 Co ( 0.000000,  0.000000,  1.236818)
   9 Co ( 0.000000,  0.000000,  1.250303)
  10 Cr ( 0.000000,  0.000000, -2.020117)
  11 Co ( 0.000000,  0.000000,  1.202646)
  12 Co ( 0.000000,  0.000000,  1.468746)
  13 Cr ( 0.000000,  0.000000, -2.416492)
  14 Ni ( 0.000000,  0.000000,  0.236997)
  15 Fe ( 0.000000,  0.000000,  2.102421)
  16 Co ( 0.000000,  0.000000,  1.392864)
  17 Co ( 0.000000,  0.000000,  1.417067)
  18 Cr ( 0.000000,  0.000000,  2.022403)
  19 Ni ( 0.000000,  0.000000,  0.049267)
  20 Cr ( 0.000000,  0.000000,  1.706132)
  21 Ni ( 0.000000,  0.000000,  0.373357)
  22 Co ( 0.000000,  0.000000,  1.259840)
  23 Co ( 0.000000,  0.000000, -0.992233)
  24 Co ( 0.000000,  0.000000, -1.048157)
  25 Co ( 0.000000,  0.000000,  0.468479)
  26 Fe ( 0.000000,  0.000000,  1.999089)
  27 Cr ( 0.000000,  0.000000, -0.620111)
  28 Fe ( 0.000000,  0.000000, -1.619829)
  29 Cr ( 0.000000,  0.000000, -0.017416)
  30 Co ( 0.000000,  0.000000,  0.648692)
  31 Fe ( 0.000000,  0.000000,  1.852402)
  32 Ni ( 0.000000,  0.000000,  0.140107)
  33 Fe ( 0.000000,  0.000000, -1.764006)
  34 Cr ( 0.000000,  0.000000,  0.959378)
  35 Cr ( 0.000000,  0.000000, -0.491877)
  36 Fe ( 0.000000,  0.000000,  1.705439)
  37 Ni ( 0.000000,  0.000000,  0.259282)
  38 Ni ( 0.000000,  0.000000,  0.262986)
  39 Co ( 0.000000,  0.000000,  0.990135)
  40 Cr ( 0.000000,  0.000000, -0.205713)
  41 Fe ( 0.000000,  0.000000,  2.049882)
  42 Fe ( 0.000000,  0.000000,  2.276013)
  43 Co ( 0.000000,  0.000000,  0.615797)
  44 Fe ( 0.000000,  0.000000,  1.714227)
  45 Cr ( 0.000000,  0.000000, -1.060133)
  46 Ni ( 0.000000,  0.000000,  0.290725)
  47 Ni ( 0.000000,  0.000000,  0.140899)
  48 Cr ( 0.000000,  0.000000, -0.796992)
  49 Co ( 0.000000,  0.000000, -0.373218)
  50 Cr ( 0.000000,  0.000000,  0.016073)
  51 Ni ( 0.000000,  0.000000,  0.153738)
  52 Co ( 0.000000,  0.000000,  0.819975)
  53 Cr ( 0.000000,  0.000000, -0.407430)
  54 Co ( 0.000000,  0.000000,  0.342344)
  55 Cr ( 0.000000,  0.000000, -1.300341)
  56 Fe ( 0.000000,  0.000000,  1.920999)
  57 Cr ( 0.000000,  0.000000, -0.430265)
  58 Ni ( 0.000000,  0.000000,  0.161410)
  59 Ni ( 0.000000,  0.000000,  0.205358)
  60 Fe ( 0.000000,  0.000000,  1.858041)
  61 Cr ( 0.000000,  0.000000, -1.518476)
  62 Fe ( 0.000000,  0.000000,  1.766496)
  63 Cr ( 0.000000,  0.000000, -0.882091)
  64 Ni ( 0.000000,  0.000000,  0.168173)
  65 Co ( 0.000000,  0.000000,  0.603430)
  66 Fe ( 0.000000,  0.000000,  1.916417)
  67 Fe ( 0.000000,  0.000000, -1.357385)
  68 Cr ( 0.000000,  0.000000, -0.532819)
  69 Cr ( 0.000000,  0.000000, -0.979107)
  70 Cr ( 0.000000,  0.000000, -0.422375)
  71 Cr ( 0.000000,  0.000000, -0.809062)
  72 Cr ( 0.000000,  0.000000,  0.650665)
  73 Fe ( 0.000000,  0.000000,  1.464196)
  74 Fe ( 0.000000,  0.000000,  1.270695)
  75 Fe ( 0.000000,  0.000000,  2.298593)
  76 Ni ( 0.000000,  0.000000,  0.427587)
  77 Co ( 0.000000,  0.000000,  1.625497)
  78 Ni ( 0.000000,  0.000000,  0.408588)
  79 Fe ( 0.000000,  0.000000,  2.113371)
  80 Fe ( 0.000000,  0.000000,  2.223019)
  81 Fe ( 0.000000,  0.000000,  2.150050)
  82 Co ( 0.000000,  0.000000,  1.210882)
  83 Fe ( 0.000000,  0.000000,  2.194696)
  84 Ni ( 0.000000,  0.000000,  0.508742)
  85 Ni ( 0.000000,  0.000000,  0.358969)
  86 Fe ( 0.000000,  0.000000,  2.108309)
  87 Ni ( 0.000000,  0.000000,  0.238616)
  88 Fe ( 0.000000,  0.000000,  2.094496)
  89 Fe ( 0.000000,  0.000000,  2.101713)
  90 Fe ( 0.000000,  0.000000,  2.041485)
  91 Ni ( 0.000000,  0.000000,  0.380460)
  92 Co ( 0.000000,  0.000000,  1.246412)
  93 Ni ( 0.000000,  0.000000,  0.381971)
  94 Fe ( 0.000000,  0.000000,  1.879610)
  95 Fe ( 0.000000,  0.000000,  2.138589)
  96 Co ( 0.000000,  0.000000,  1.268277)
  97 Ni ( 0.000000,  0.000000,  0.475985)
  98 Ni ( 0.000000,  0.000000,  0.414015)
  99 Cr ( 0.000000,  0.000000, -1.011066)
 100 Ni ( 0.000000,  0.000000,  0.629390)
 101 Co ( 0.000000,  0.000000,  1.757845)
 102 Co ( 0.000000,  0.000000,  1.734182)
 103 Fe ( 0.000000,  0.000000,  2.490858)
 104 Ni ( 0.000000,  0.000000,  0.417012)
 105 Co ( 0.000000,  0.000000,  1.591464)
 106 Ni ( 0.000000,  0.000000,  0.552802)
 107 Co ( 0.000000,  0.000000,  1.606105)
 108 Co ( 0.000000,  0.000000,  1.541435)
 109 Ni ( 0.000000,  0.000000,  0.676156)
 110 Cr ( 0.000000,  0.000000, -2.570912)
 111 Ni ( 0.000000,  0.000000,  0.397024)
 112 Cr ( 0.000000,  0.000000, -2.300197)
 113 Co ( 0.000000,  0.000000,  1.340897)
 114 Fe ( 0.000000,  0.000000,  2.673888)
 115 Co ( 0.000000,  0.000000,  1.356838)
 116 Cr ( 0.000000,  0.000000,  2.178634)
 117 Cr ( 0.000000,  0.000000, -2.452580)
 118 Ni ( 0.000000,  0.000000,  0.551537)
 119 Co ( 0.000000,  0.000000,  1.486522)
 120 Ni ( 0.000000,  0.000000,  0.410356)
 121 Ni ( 0.000000,  0.000000,  0.436586)
 122 Fe ( 0.000000,  0.000000,  2.694459)
 123 Co ( 0.000000,  0.000000,  1.566052)
 124 Cr ( 0.000000,  0.000000, -2.405682)

Energy contributions relative to reference atoms: (reference = -4451268.207082)

Kinetic:       +241.171455
Potential:     -295.938986
External:        +0.000000
XC:            -980.512786
Entropy (-ST):   -5.746484
Local:          +45.387276
--------------------------
Free energy:   -995.639525
Extrapolated:  -992.766283

Dipole-layer corrected work functions: 4.955907, 4.958339 eV

Spin contamination: 44.166674 electrons
Showing all kpts
                      Up                     Down
 Kpt  Band  Eigenvalues  Occupancy  Eigenvalues  Occupancy
  0   606      0.00041    0.99301      0.82781    0.03496
  0   607      0.01116    0.99222      0.83948    0.03123
  0   608      0.01836    0.99164      0.84989    0.02823
  0   609      0.03567    0.99008      0.85671    0.02641

  1   606      0.01542    0.99188      0.83613    0.03226
  1   607      0.02287    0.99126      0.84594    0.02933
  1   608      0.03570    0.99008      0.85197    0.02766
  1   609      0.04487    0.98914      0.86978    0.02325


Fermi level: 0.49600

No gap

Forces in eV/Ang:
  0 Cr   -0.13531    0.08088   -0.25485
  1 Fe    0.06726   -0.08859   -0.20497
  2 Co   -0.29726   -0.35568    0.15440
  3 Cr    0.35281   -0.40996   -0.25495
  4 Ni   -0.14651    0.09105   -0.18871
  5 Ni   -0.20884    0.13368   -0.14859
  6 Fe   -0.03897    0.18370   -0.37442
  7 Cr    0.02530    0.43697   -0.12133
  8 Co    0.26943    0.25225    0.13019
  9 Co    0.07555   -0.12766    0.35144
 10 Cr    0.01404    0.09531   -0.42675
 11 Co    0.13992    0.12204    0.41568
 12 Co   -0.21580    0.19184    0.03224
 13 Cr   -0.39359   -0.17832   -0.14242
 14 Ni    0.30127   -0.28436    0.01934
 15 Fe    0.00706   -0.17200    0.10928
 16 Co    0.10018   -0.21459   -0.06286
 17 Co   -0.44711    0.02257   -0.05123
 18 Cr    0.21721    0.27367   -0.39664
 19 Ni    0.14281    0.17550   -0.00322
 20 Cr   -0.07439    0.02299   -0.19759
 21 Ni    0.12254   -0.21701    0.03268
 22 Co    0.03315    0.11885    0.09575
 23 Co   -0.27442    0.10777    0.29828
 24 Co   -0.00799   -0.14128    0.39039
 25 Co   -0.25079    0.15896    0.36901
 26 Fe   -0.04351   -0.12184    0.02871
 27 Cr    0.19953    0.06811   -0.50105
 28 Fe    0.06500    0.20562   -0.01469
 29 Cr   -0.10425   -0.13272   -0.16678
 30 Co   -0.06794    0.11766    0.10719
 31 Fe    0.16998    0.05005    0.10452
 32 Ni    0.06413   -0.05269    0.44074
 33 Fe   -0.10545   -0.24311   -0.13299
 34 Cr    0.17808   -0.04688    0.09290
 35 Cr   -0.09009   -0.04411   -0.32140
 36 Fe    0.31422   -0.05773   -0.25647
 37 Ni    0.13259    0.12467   -0.21578
 38 Ni   -0.06514   -0.12891    0.06013
 39 Co   -0.20791   -0.10411   -0.20056
 40 Cr    0.46537   -0.09318    0.10652
 41 Fe   -0.20590    0.05283   -0.33343
 42 Fe    0.07122   -0.05970   -0.28907
 43 Co    0.07689   -0.05330    0.32943
 44 Fe   -0.26328    0.06872   -0.03129
 45 Cr    0.17322   -0.07969   -0.07121
 46 Ni   -0.17037   -0.05318   -0.13641
 47 Ni    0.03056   -0.20161    0.05083
 48 Cr    0.13145    0.11883   -0.16561
 49 Co    0.09013    0.05821    0.10471
 50 Cr   -0.40218   -0.02335   -0.20240
 51 Ni    0.14330    0.04798    0.02235
 52 Co    0.05395    0.13369   -0.00840
 53 Cr   -0.02055   -0.04144   -0.25620
 54 Co    0.11200    0.07816   -0.34204
 55 Cr   -0.03582    0.04806    0.05620
 56 Fe    0.09365   -0.32373   -0.13382
 57 Cr    0.06131   -0.32043   -0.21053
 58 Ni    0.09594   -0.08658   -0.11011
 59 Ni   -0.00017   -0.14861   -0.23973
 60 Fe   -0.05748    0.34908    0.06493
 61 Cr   -0.09518    0.06980   -0.20610
 62 Fe   -0.00560   -0.19404   -0.14381
 63 Cr    0.07658    0.12153   -0.27133
 64 Ni   -0.17090    0.01869   -0.11159
 65 Co    0.00016    0.19642   -0.16458
 66 Fe   -0.19221    0.07635    0.29778
 67 Fe    0.36444    0.13893   -0.28640
 68 Cr   -0.35170   -0.15018    0.08753
 69 Cr    0.26464    0.22039   -0.13956
 70 Cr   -0.29656    0.25533    0.02391
 71 Cr   -0.01961   -0.00917    0.13714
 72 Cr    0.19670   -0.13325    0.13249
 73 Fe    0.09689    0.00555   -0.26305
 74 Fe   -0.05618   -0.09434   -0.27032
 75 Fe    0.11532   -0.08109   -0.11136
 76 Ni   -0.03379   -0.11984    0.06438
 77 Co    0.23340    0.14064    0.11052
 78 Ni   -0.24907    0.14929   -0.00680
 79 Fe   -0.08418   -0.03818   -0.04815
 80 Fe    0.04145   -0.18052   -0.03307
 81 Fe    0.34033   -0.17960    0.34969
 82 Co   -0.20495   -0.12049    0.20876
 83 Fe   -0.23565   -0.01721    0.27298
 84 Ni    0.08164   -0.13709   -0.17282
 85 Ni   -0.08273    0.23052    0.27807
 86 Fe   -0.01655   -0.13505   -0.26836
 87 Ni    0.09336    0.07205   -0.16776
 88 Fe   -0.00313    0.22471    0.18288
 89 Fe   -0.02881    0.24802   -0.04617
 90 Fe    0.03205   -0.03845    0.00536
 91 Ni    0.18664   -0.04250   -0.36006
 92 Co   -0.17502    0.13228   -0.13995
 93 Ni   -0.05265    0.08892   -0.10555
 94 Fe   -0.07399    0.15561    0.18473
 95 Fe   -0.02530    0.00184    0.16016
 96 Co    0.13562   -0.09170    0.01515
 97 Ni   -0.10302   -0.05174   -0.06978
 98 Ni    0.07946   -0.01946    0.06702
 99 Cr   -0.01804    0.05144   -0.23209
100 Ni    0.07288    0.04536    0.28660
101 Co   -0.02902    0.08747    0.02687
102 Co    0.00572    0.13987   -0.02522
103 Fe   -0.13917   -0.00751    0.29368
104 Ni    0.06022    0.14519    0.40142
105 Co   -0.06418   -0.23807   -0.02852
106 Ni    0.10229   -0.12141    0.13767
107 Co   -0.22061   -0.09864   -0.01030
108 Co    0.21634    0.05558   -0.01241
109 Ni   -0.05704    0.08388    0.15435
110 Cr    0.15495   -0.04083    0.38957
111 Ni   -0.11311   -0.10880    0.14204
112 Cr   -0.22623   -0.86758    0.26137
113 Co   -0.14662   -0.08040   -0.16033
114 Fe   -0.29479   -0.02490    0.32651
115 Co   -0.17990    0.13795   -0.32037
116 Cr    0.21400   -0.00226    0.64457
117 Cr    0.57094    0.50366    0.41213
118 Ni    0.17425   -0.06166    0.36833
119 Co   -0.15443    0.18208   -0.35265
120 Ni   -0.08983    0.13608    0.21947
121 Ni    0.03378    0.32555    0.06671
122 Fe   -0.03032    0.12857    0.43684
123 Co    0.02838   -0.01136   -0.02712
124 Cr    0.09136   -0.45907    0.54495

Timing:                              incl.     excl.
-----------------------------------------------------------
Forces:                             37.555    37.555   0.2% |
Hamiltonian:                         1.467     0.010   0.0% |
 Atomic:                             0.331     0.001   0.0% |
  XC Correction:                     0.329     0.329   0.0% |
 Calculate atomic Hamiltonians:      0.680     0.680   0.0% |
 Communicate:                        0.081     0.081   0.0% |
 Initialize Hamiltonian:             0.001     0.001   0.0% |
 Poisson:                            0.082     0.082   0.0% |
 XC 3D grid:                         0.283     0.283   0.0% |
LCAO initialization:               269.399     0.359   0.0% |
 LCAO eigensolver:                  14.359     0.014   0.0% |
  Calculate projections:             0.000     0.000   0.0% |
  DenseAtomicCorrection:             0.000     0.000   0.0% |
  Distribute overlap matrix:         9.396     9.396   0.1% |
  Orbital Layouts:                   4.916     4.916   0.0% |
  Potential matrix:                  0.003     0.003   0.0% |
  Sum over cells:                    0.030     0.030   0.0% |
 LCAO to grid:                     252.633   252.633   1.6% ||
 Set positions (LCAO WFS):           2.049     1.792   0.0% |
  Basic WFS set positions:           0.003     0.003   0.0% |
  Basis functions set positions:     0.001     0.001   0.0% |
  P tci:                             0.000     0.000   0.0% |
  ST tci:                            0.099     0.099   0.0% |
  mktci:                             0.154     0.154   0.0% |
PWDescriptor:                        0.090     0.090   0.0% |
SCF-cycle:                       15498.735    80.632   0.5% |
 Davidson:                       15031.321  4761.360  30.1% |-----------|
  Apply H:                         245.834   241.284   1.5% ||
   HMM T:                            4.550     4.550   0.0% |
  Subspace diag:                  1653.539     0.034   0.0% |
   calc_h_matrix:                  660.490   440.001   2.8% ||
    Apply H:                       220.489   215.935   1.4% ||
     HMM T:                          4.554     4.554   0.0% |
   diagonalize:                    150.584   150.584   1.0% |
   rotate_psi:                     842.430   842.430   5.3% |-|
  calc. matrices:                 3868.632  3457.680  21.9% |--------|
   Apply H:                        410.952   401.628   2.5% ||
    HMM T:                           9.324     9.324   0.1% |
  diagonalize:                    2707.067  2707.067  17.1% |------|
  rotate_psi:                     1794.892  1794.892  11.4% |----|
 Density:                          208.882     0.003   0.0% |
  Atomic density matrices:           2.388     2.388   0.0% |
  Mix:                              95.744    95.744   0.6% |
  Multipole moments:                 0.061     0.061   0.0% |
  Pseudo density:                  110.687   110.682   0.7% |
   Symmetrize density:               0.004     0.004   0.0% |
 Hamiltonian:                      159.895     0.966   0.0% |
  Atomic:                           35.176     0.123   0.0% |
   XC Correction:                   35.053    35.053   0.2% |
  Calculate atomic Hamiltonians:    81.109    81.109   0.5% |
  Communicate:                       9.555     9.555   0.1% |
  Poisson:                           3.505     3.505   0.0% |
  XC 3D grid:                       29.583    29.583   0.2% |
 Orthonormalize:                    18.004     0.000   0.0% |
  calc_s_matrix:                     2.268     2.268   0.0% |
  inverse-cholesky:                  0.902     0.902   0.0% |
  projections:                      10.856    10.856   0.1% |
  rotate_psi_s:                      3.978     3.978   0.0% |
Set symmetry:                        0.001     0.001   0.0% |
Other:                               6.689     6.689   0.0% |
-----------------------------------------------------------
Total:                                     15813.937 100.0%

Date: Thu Apr 20 07:48:26 2023
