
  ___ ___ ___ _ _ _  
 |   |   |_  | | | | 
 | | | | | . | | | | 
 |__ |  _|___|_____|  22.8.0
 |___|_|             

User:   c.zeng@d0150
Date:   Sat Apr  8 11:42:39 2023
Arch:   x86_64
Pid:    9277
CWD:    /home/c.zeng/projects/hea-corrosion/hea-mlp/data-curation/volume/dft-jobs/6
Python: 3.8.1
gpaw:   /home/c.zeng/usr/installs/gpaw/source/gpaw-22.8.0/gpaw
_gpaw:  /home/c.zeng/usr/installs/gpaw/source/gpaw-22.8.0/
        _gpaw.cpython-38-x86_64-linux-gnu.so
ase:    /home/c.zeng/.local/lib/python3.8/site-packages/ase-3.22.1-py3.8.egg/ase (version 3.22.1)
numpy:  /shared/centos7/python/3.8.1/lib/python3.8/site-packages/numpy (version 1.17.4)
scipy:  /shared/centos7/python/3.8.1/lib/python3.8/site-packages/scipy (version 1.4.1)
libxc:  4.2.3
units:  Angstrom and eV
cores: 64
OpenMP: False
OMP_NUM_THREADS: 1

Input parameters:
  convergence: {energy: 0.0001}
  kpts: [2 2 2]
  maxiter: 666
  mode: {ecut: 350.0,
         name: pw}
  occupations: {fixmagmom: False,
                name: fermi-dirac,
                width: 0.1}
  spinpol: True
  xc: PBE

System changes: positions, numbers, cell, pbc, initial_charges, initial_magmoms 

Initialize ...

species:
  Co:
    name: Cobalt
    id: 339d20d5b0b93d2de9531a1bee871d91
    Z: 27.0
    valence: 9
    core: 18
    charge: 0.0
    file: /home/c.zeng/usr/data/gpaw-setups-0.9.20000/Co.PBE.gz
    compensation charges: {type: gauss,
                           rc: 0.32,
                           lmax: 2}
    cutoffs: {filter: 1.87,
              core: 2.55}
    valence states:
      #              energy  rcut
      - 4s(2.00)    -5.469   1.005
      - 4p(0.00)    -1.277   1.058
      - 3d(7.00)    -8.205   1.005
      -  s          21.742   1.005
      -  p          25.934   1.058
      -  d          19.007   1.005
  
    # Using partial waves for Co as LCAO basis

  Fe:
    name: Iron
    id: 37abbd8d6c3c35915a9b583b742da910
    Z: 26.0
    valence: 8
    core: 18
    charge: 0.0
    file: /home/c.zeng/usr/data/gpaw-setups-0.9.20000/Fe.PBE.gz
    compensation charges: {type: gauss,
                           rc: 0.33,
                           lmax: 2}
    cutoffs: {filter: 2.06,
              core: 2.67}
    valence states:
      #              energy  rcut
      - 4s(2.00)    -5.291   1.164
      - 4p(0.00)    -1.326   1.058
      - 3d(6.00)    -7.505   1.058
      -  s          21.920   1.164
      -  p          25.885   1.058
      -  d          19.706   1.058
  
    # Using partial waves for Fe as LCAO basis

  Cr:
    name: Chromium
    id: 33f258bda2ca9f93018e70263a35547b
    Z: 24.0
    valence: 6
    core: 18
    charge: 0.0
    file: /home/c.zeng/usr/data/gpaw-setups-0.9.20000/Cr.PBE.gz
    compensation charges: {type: gauss,
                           rc: 0.35,
                           lmax: 2}
    cutoffs: {filter: 2.14,
              core: 3.04}
    valence states:
      #              energy  rcut
      - 4s(1.00)    -4.007   1.164
      - 4p(0.00)    -0.989   1.217
      - 3d(5.00)    -2.913   1.111
      -  s          23.205   1.164
      -  p          26.223   1.217
      -  d          24.299   1.111
  
    # Using partial waves for Cr as LCAO basis

  Ni:
    name: Nickel
    id: 0d9f38a9d6e76a2886f07bb4381f212b
    Z: 28.0
    valence: 16
    core: 12
    charge: 0.0
    file: /home/c.zeng/usr/data/gpaw-setups-0.9.20000/Ni.PBE.gz
    compensation charges: {type: gauss,
                           rc: 0.36,
                           lmax: 2}
    cutoffs: {filter: 2.14,
              core: 1.98}
    valence states:
      #              energy  rcut
      - 4s(2.00)    -5.642   1.164
      - 3p(6.00)   -71.394   1.207
      - 4p(0.00)    -1.226   1.207
      - 3d(8.00)    -8.875   1.138
      -  s          21.570   1.164
      -  d          18.337   1.138
  
    # Using partial waves for Ni as LCAO basis

Reference energy: -3846758.590871  # eV

Spin-polarized calculation.
Magnetic moment: 151.200000

Convergence criteria:
 Maximum [total energy] change in last 3 cyles: 0.0001 eV / electron
 Maximum integral of absolute [dens]ity change: 0.0001 electrons / valence electron
 Maximum integral of absolute [eigenst]ate change: 4e-08 eV^2 / valence electron
 Maximum number of scf [iter]ations: 666
 (Square brackets indicate name in SCF output, whereas a 'c' in
 the SCF output indicates the quantity has converged.)

Symmetries present (total): 1

  ( 1  0  0)
  ( 0  1  0)
  ( 0  0  1)

8 k-points: 2 x 2 x 2 Monkhorst-Pack grid
4 k-points in the irreducible part of the Brillouin zone
       k-points in crystal coordinates                weights
   0:     0.25000000   -0.25000000   -0.25000000          2/8
   1:     0.25000000   -0.25000000    0.25000000          2/8
   2:     0.25000000    0.25000000   -0.25000000          2/8
   3:     0.25000000    0.25000000    0.25000000          2/8

Wave functions: Plane wave expansion
  Cutoff energy: 350.000 eV
  Number of coefficients (min, max): 22145, 22145
  Pulay-stress correction: 0.000000 eV/Ang^3 (de/decut=0.000000)
  Using FFTW library
  ScaLapack parameters: grid=1x1, blocksize=None
  Wavefunction extrapolation:
    Improved wavefunction reuse through dual PAW basis 

Occupation numbers: Fermi-Dirac:
  width: 0.1000  # eV
 

Eigensolver
   Davidson(niter=2) 

Densities:
  Coarse grid: 50*50*50 grid
  Fine grid: 100*100*100 grid
  Total Charge: 0.000000 

Density mixing:
  Method: difference
  Backend: pulay
  Linear mixing parameter: 0.05
  old densities: 5
  Damping of long wavelength oscillations: 50 

Hamiltonian:
  XC and Coulomb potentials evaluated on a 100*100*100 grid
  Using the PBE Exchange-Correlation functional
  External potential:
    NoExternalPotential
 

XC parameters: PBE with 2 nearest neighbor stencil

Memory estimate:
  Process memory now: 182.66 MiB
  Calculator: 834.42 MiB
    Density: 5.55 MiB
      Arrays: 2.09 MiB
      Localized functions: 2.58 MiB
      Mixer: 0.87 MiB
    Hamiltonian: 1.63 MiB
      Arrays: 1.55 MiB
      XC: 0.00 MiB
      Poisson: 0.00 MiB
      vbar: 0.07 MiB
    Wavefunctions: 827.24 MiB
      Arrays psit_nG: 491.32 MiB
      Eigensolver: 328.02 MiB
      Projections: 2.70 MiB
      Projectors: 0.35 MiB
      PW-descriptor: 4.87 MiB

Total number of cores used: 64
Parallelization over k-points: 4
Domain decomposition: 4 x 2 x 2

Number of atoms: 108
Number of atomic orbitals: 1053
Number of bands in calculation: 727
Number of valence electrons: 1053
Bands to converge: occupied

... initialized

Initializing position-dependent things.

Density initialized from atomic densities
Creating initial wave functions:
  727 bands from LCAO basis set

        .---------------------------.  
       /|  Cr        Co             |  
      / |      Fe       Cr          |  
     /  |                Co         |  
    /  CoFe     CrCr                |  
   /    | Fe Ni     Fe       Cr     |  
  /  Co |  Cr FeCr   CoNiCo   Cr    |  
 *    NiCrCr   CoNi Fe  Ni Ni       |  
 |Co   FeNiCo   Ni CoFe   CoCr      |  
 | Cr Fe| Fe CrFe   CoNiCo   Cr     |  
 |      |  Ni   Cr            Ni    |  
 |   NiCr     Fe     NiFeNi         |  
 Co   NiFeCr   FeFe Ni  Fe Co       |  
 |Ni    |CoCo   Cr NiFe  Ni Ni     Co  
 | Cr Cr.-Cr-CoCr---CoNiNi---Ni-----.  
 |   FeFe     CoFe     NiCo   Cr   /   
 Fe   FeCrFe     Ni Fe     Co     /    
 |   /     Cr        Ni     Cr   /     
 |Co/                           /      
 | /r Fe       Co     CoNi     /       
 |/    Fe                     /        
 Co--------------------------*         

Positions:
   0 Co     0.000011    0.000008    0.000001    ( 0.0000,  0.0000,  2.1000)
   1 Co     0.000010    1.903481    1.903504    ( 0.0000,  0.0000,  2.1000)
   2 Fe     1.903492    0.000015    1.903504    ( 0.0000,  0.0000,  2.0000)
   3 Fe     1.903492    1.903492   11.421000    ( 0.0000,  0.0000,  2.0000)
   4 Cr     3.806996    0.000011   11.420989    ( 0.0000,  0.0000,  0.0000)
   5 Cr     3.806985    1.903492    1.903527    ( 0.0000,  0.0000,  0.0000)
   6 Co     5.710511    0.000001    1.903515    ( 0.0000,  0.0000,  2.1000)
   7 Cr     5.710523    1.903492   11.420989    ( 0.0000,  0.0000,  0.0000)
   8 Fe     7.613992    0.000004   11.420989    ( 0.0000,  0.0000,  2.0000)
   9 Ni     7.614004    1.903492    1.903504    ( 0.0000,  0.0000,  1.5000)
  10 Ni     9.517508    0.000011    1.903504    ( 0.0000,  0.0000,  1.5000)
  11 Co     9.517496    1.903492   11.420989    ( 0.0000,  0.0000,  2.1000)
  12 Cr     0.000002    3.807008    0.000004    ( 0.0000,  0.0000,  0.0000)
  13 Fe    11.421000    5.710511    1.903492    ( 0.0000,  0.0000,  2.0000)
  14 Cr     1.903492    3.807008    1.903504    ( 0.0000,  0.0000,  0.0000)
  15 Fe     1.903504    5.710511   11.420989    ( 0.0000,  0.0000,  2.0000)
  16 Ni     3.806985    3.807019   11.420989    ( 0.0000,  0.0000,  1.5000)
  17 Co     3.806996    5.710511    1.903504    ( 0.0000,  0.0000,  2.1000)
  18 Ni     5.710511    3.806996    1.903515    ( 0.0000,  0.0000,  1.5000)
  19 Cr     5.710477    5.710511   11.420989    ( 0.0000,  0.0000,  0.0000)
  20 Co     7.614004    3.806985   11.421000    ( 0.0000,  0.0000,  2.1000)
  21 Ni     7.614004    5.710500    1.903515    ( 0.0000,  0.0000,  1.5000)
  22 Co     9.517496    3.806996    1.903504    ( 0.0000,  0.0000,  2.1000)
  23 Cr     9.517519    5.710500    0.000011    ( 0.0000,  0.0000,  0.0000)
  24 Fe     0.000013    7.613992    0.000000    ( 0.0000,  0.0000,  2.0000)
  25 Co    -0.000001    9.517508    1.903504    ( 0.0000,  0.0000,  2.1000)
  26 Cr     1.903492    7.613981    1.903492    ( 0.0000,  0.0000,  0.0000)
  27 Cr     1.903481    9.517496   11.420989    ( 0.0000,  0.0000,  0.0000)
  28 Fe     3.806996    7.613981   11.420989    ( 0.0000,  0.0000,  2.0000)
  29 Cr     3.807008    9.517496    1.903515    ( 0.0000,  0.0000,  0.0000)
  30 Co     5.710500    7.614004    1.903504    ( 0.0000,  0.0000,  2.1000)
  31 Co     5.710511    9.517496   11.420989    ( 0.0000,  0.0000,  2.1000)
  32 Cr     7.613981    7.614004   -0.000000    ( 0.0000,  0.0000,  0.0000)
  33 Ni     7.613992    9.517508    1.903515    ( 0.0000,  0.0000,  1.5000)
  34 Ni     9.517508    7.613992    1.903515    ( 0.0000,  0.0000,  1.5000)
  35 Cr     9.517508    9.517508   11.421000    ( 0.0000,  0.0000,  0.0000)
  36 Fe     0.000007   11.421000    3.806996    ( 0.0000,  0.0000,  2.0000)
  37 Ni     0.000001    1.903492    5.710489    ( 0.0000,  0.0000,  1.5000)
  38 Cr     1.903492    0.000004    5.710477    ( 0.0000,  0.0000,  0.0000)
  39 Fe     1.903504    1.903492    3.806996    ( 0.0000,  0.0000,  2.0000)
  40 Fe     3.806996    0.000005    3.806996    ( 0.0000,  0.0000,  2.0000)
  41 Co     3.806996    1.903515    5.710477    ( 0.0000,  0.0000,  2.1000)
  42 Cr     5.710511    0.000012    5.710477    ( 0.0000,  0.0000,  0.0000)
  43 Fe     5.710500    1.903492    3.807008    ( 0.0000,  0.0000,  2.0000)
  44 Fe     7.613992    0.000005    3.806996    ( 0.0000,  0.0000,  2.0000)
  45 Fe     7.614004    1.903504    5.710489    ( 0.0000,  0.0000,  2.0000)
  46 Ni     9.517496    0.000007    5.710489    ( 0.0000,  0.0000,  1.5000)
  47 Co     9.517496    1.903492    3.807008    ( 0.0000,  0.0000,  2.1000)
  48 Cr     0.000006    3.806996    3.807008    ( 0.0000,  0.0000,  0.0000)
  49 Ni     0.000019    5.710511    5.710489    ( 0.0000,  0.0000,  1.5000)
  50 Fe     1.903504    3.807008    5.710489    ( 0.0000,  0.0000,  2.0000)
  51 Co     1.903504    5.710500    3.807008    ( 0.0000,  0.0000,  2.1000)
  52 Co     3.807008    3.806996    3.807019    ( 0.0000,  0.0000,  2.1000)
  53 Fe     3.806996    5.710500    5.710500    ( 0.0000,  0.0000,  2.0000)
  54 Fe     5.710511    3.807008    5.710489    ( 0.0000,  0.0000,  2.0000)
  55 Ni     5.710500    5.710511    3.807019    ( 0.0000,  0.0000,  1.5000)
  56 Ni     7.613992    3.806996    3.807019    ( 0.0000,  0.0000,  1.5000)
  57 Fe     7.613992    5.710489    5.710500    ( 0.0000,  0.0000,  2.0000)
  58 Co     9.517485    3.806996    5.710500    ( 0.0000,  0.0000,  2.1000)
  59 Ni     9.517496    5.710500    3.806996    ( 0.0000,  0.0000,  1.5000)
  60 Ni     0.000009    7.614004    3.806996    ( 0.0000,  0.0000,  1.5000)
  61 Fe     0.000001    9.517496    5.710489    ( 0.0000,  0.0000,  2.0000)
  62 Fe     1.903504    7.613992    5.710500    ( 0.0000,  0.0000,  2.0000)
  63 Ni     1.903492    9.517508    3.807008    ( 0.0000,  0.0000,  1.5000)
  64 Fe     3.807008    7.613992    3.807008    ( 0.0000,  0.0000,  2.0000)
  65 Ni     3.806996    9.517473    5.710489    ( 0.0000,  0.0000,  1.5000)
  66 Co     5.710500    7.613992    5.710500    ( 0.0000,  0.0000,  2.1000)
  67 Ni     5.710511    9.517496    3.806996    ( 0.0000,  0.0000,  1.5000)
  68 Fe     7.613992    7.614004    3.806996    ( 0.0000,  0.0000,  2.0000)
  69 Co     7.614004    9.517496    5.710489    ( 0.0000,  0.0000,  2.1000)
  70 Cr     9.517496    7.613992    5.710489    ( 0.0000,  0.0000,  0.0000)
  71 Ni     9.517496    9.517508    3.807008    ( 0.0000,  0.0000,  1.5000)
  72 Co    11.421000   11.421000    7.614004    ( 0.0000,  0.0000,  2.1000)
  73 Co     0.000001    1.903481    9.517508    ( 0.0000,  0.0000,  2.1000)
  74 Fe     1.903492    0.000012    9.517508    ( 0.0000,  0.0000,  2.0000)
  75 Cr     1.903492    1.903492    7.614004    ( 0.0000,  0.0000,  0.0000)
  76 Cr     3.806996    0.000004    7.614015    ( 0.0000,  0.0000,  0.0000)
  77 Co     3.806996    1.903492    9.517508    ( 0.0000,  0.0000,  2.1000)
  78 Fe     5.710511   11.421000    9.517508    ( 0.0000,  0.0000,  2.0000)
  79 Cr     5.710511    1.903504    7.614004    ( 0.0000,  0.0000,  0.0000)
  80 Ni     7.614004    0.000005    7.614015    ( 0.0000,  0.0000,  1.5000)
  81 Fe     7.614004    1.903492    9.517496    ( 0.0000,  0.0000,  2.0000)
  82 Co     9.517496    0.000012    9.517508    ( 0.0000,  0.0000,  2.1000)
  83 Ni     9.517485    1.903492    7.614004    ( 0.0000,  0.0000,  1.5000)
  84 Cr    11.421000    3.806996    7.613992    ( 0.0000,  0.0000,  0.0000)
  85 Co     0.000017    5.710511    9.517519    ( 0.0000,  0.0000,  2.1000)
  86 Cr     1.903504    3.807008    9.517519    ( 0.0000,  0.0000,  0.0000)
  87 Ni     1.903515    5.710523    7.613992    ( 0.0000,  0.0000,  1.5000)
  88 Cr     3.807008    3.807019    7.613981    ( 0.0000,  0.0000,  0.0000)
  89 Fe     3.806996    5.710511    9.517508    ( 0.0000,  0.0000,  2.0000)
  90 Ni     5.710511    3.807008    9.517496    ( 0.0000,  0.0000,  1.5000)
  91 Co     5.710500    5.710511    7.613992    ( 0.0000,  0.0000,  2.1000)
  92 Ni     7.613992    3.806996    7.613981    ( 0.0000,  0.0000,  1.5000)
  93 Ni     7.613981    5.710489    9.517485    ( 0.0000,  0.0000,  1.5000)
  94 Ni     9.517485    3.806985    9.517508    ( 0.0000,  0.0000,  1.5000)
  95 Cr     9.517496    5.710489    7.613992    ( 0.0000,  0.0000,  0.0000)
  96 Ni     0.000024    7.614004    7.614004    ( 0.0000,  0.0000,  1.5000)
  97 Co     0.000009    9.517496    9.517496    ( 0.0000,  0.0000,  2.1000)
  98 Fe     1.903504    7.613981    9.517508    ( 0.0000,  0.0000,  2.0000)
  99 Cr     1.903481    9.517485    7.614004    ( 0.0000,  0.0000,  0.0000)
 100 Co     3.806996    7.613981    7.614004    ( 0.0000,  0.0000,  2.1000)
 101 Cr     3.807019    9.517485    9.517508    ( 0.0000,  0.0000,  0.0000)
 102 Fe     5.710489    7.614004    9.517496    ( 0.0000,  0.0000,  2.0000)
 103 Co     5.710511    9.517496    7.614015    ( 0.0000,  0.0000,  2.1000)
 104 Ni     7.613970    7.613992    7.613992    ( 0.0000,  0.0000,  1.5000)
 105 Co     7.613981    9.517519    9.517496    ( 0.0000,  0.0000,  2.1000)
 106 Cr     9.517519    7.614004    9.517508    ( 0.0000,  0.0000,  0.0000)
 107 Cr     9.517508    9.517508    7.613992    ( 0.0000,  0.0000,  0.0000)

Unit cell:
           periodic     x           y           z      points  spacing
  1. axis:    yes   11.421000    0.000000    0.000000    50     0.2284
  2. axis:    yes    0.000000   11.421000    0.000000    50     0.2284
  3. axis:    yes    0.000000    0.000000   11.421000    50     0.2284

  Lengths:  11.421000  11.421000  11.421000
  Angles:   90.000000  90.000000  90.000000

Effective grid spacing dv^(1/3) = 0.2284

     iter     time        total  log10-change:  magmom
                         energy  eigst   dens
iter:   1 11:46:01 -1112.084382                  +151.4733
iter:   2 11:47:39  -932.778169  -0.12  -1.17    +84.2381
iter:   3 11:49:18  -949.716370  -0.66  -1.17    +84.0306
iter:   4 11:50:56  -896.017666  -1.06  -1.22    +78.3191
iter:   5 11:52:32  -877.774524  -1.65  -1.28    +77.4118
iter:   6 11:54:10  -886.160264  -1.50  -1.35    +84.6578
iter:   7 11:55:47  -870.977209  -1.29  -1.35    +87.4063
iter:   8 11:57:25  -872.764920  -1.43  -1.50    +90.6693
iter:   9 11:59:03  -863.688942  -1.59  -1.57    +91.6857
iter:  10 12:00:43  -861.093144  -1.99  -1.69    +94.1853
iter:  11 12:02:22  -861.168044  -2.16  -1.78    +96.3587
iter:  12 12:03:58  -861.117758c -2.46  -1.82    +95.6843
iter:  13 12:05:36  -861.360577  -2.68  -1.87    +94.8772
iter:  14 12:07:15  -862.747940  -2.64  -1.92    +94.6740
iter:  15 12:08:54  -863.439503  -2.61  -1.95    +93.3361
iter:  16 12:10:31  -865.137775  -2.47  -2.01    +91.2565
iter:  17 12:12:09  -864.271644  -2.53  -1.95    +90.6784
iter:  18 12:13:48  -864.860665  -2.73  -2.09    +89.5689
iter:  19 12:15:25  -864.946845  -2.78  -2.10    +87.7939
iter:  20 12:16:58  -865.089941  -3.00  -2.14    +86.2389
iter:  21 12:18:36  -865.395847  -3.18  -2.23    +85.3430
iter:  22 12:20:17  -865.706522  -3.42  -2.24    +83.8933
iter:  23 12:21:55  -866.398635  -3.32  -2.25    +82.0696
iter:  24 12:23:34  -867.067690  -3.17  -2.21    +79.9606
iter:  25 12:25:12  -867.854274  -3.09  -2.18    +77.8975
iter:  26 12:26:50  -868.937674  -2.60  -2.12    +75.4583
iter:  27 12:28:28  -869.027439  -3.35  -2.04    +76.3793
iter:  28 12:30:07  -868.858567  -3.18  -2.04    +76.3911
iter:  29 12:31:45  -868.678556  -3.26  -2.06    +76.6962
iter:  30 12:33:24  -869.428832  -2.61  -2.08    +76.5347
iter:  31 12:35:02  -867.754691  -2.39  -2.05    +76.5020
iter:  32 12:36:38  -867.541962  -2.99  -2.24    +76.4866
iter:  33 12:38:16  -867.815062  -3.06  -2.38    +76.2564
iter:  34 12:39:55  -867.681834  -3.28  -2.35    +76.5135
iter:  35 12:41:32  -867.800393  -3.37  -2.45    +76.9015
iter:  36 12:43:11  -867.737706  -3.56  -2.45    +76.9728
iter:  37 12:44:49  -867.805754c -3.57  -2.55    +77.2462
iter:  38 12:46:26  -867.809930c -3.54  -2.52    +77.5305
iter:  39 12:48:03  -867.713320c -3.67  -2.56    +77.6150
iter:  40 12:49:41  -867.741020c -3.85  -2.72    +77.6833
iter:  41 12:51:19  -867.805250c -3.69  -2.71    +77.8694
iter:  42 12:52:57  -867.707472c -4.01  -2.67    +78.1114
iter:  43 12:54:34  -867.724588c -4.09  -2.85    +78.2264
iter:  44 12:56:14  -867.705258c -4.40  -2.83    +78.2130
iter:  45 12:57:52  -867.705053c -4.33  -2.91    +78.3461
iter:  46 12:59:29  -867.708524c -4.51  -2.93    +78.3966
iter:  47 13:01:08  -867.712063c -4.34  -2.95    +78.3866
iter:  48 13:02:46  -867.719378c -4.25  -3.01    +78.3488
iter:  49 13:04:22  -867.709654c -4.33  -2.95    +78.4019
iter:  50 13:06:01  -867.700691c -4.51  -3.05    +78.5170
iter:  51 13:07:39  -867.707413c -4.50  -3.16    +78.4750
iter:  52 13:09:18  -867.695301c -4.86  -3.08    +78.4700
iter:  53 13:10:55  -867.694459c -5.09  -3.23    +78.5190
iter:  54 13:12:32  -867.695633c -4.99  -3.31    +78.5409
iter:  55 13:14:09  -867.692874c -5.35  -3.28    +78.5209
iter:  56 13:15:47  -867.695201c -5.20  -3.44    +78.4877
iter:  57 13:17:26  -867.692372c -5.34  -3.37    +78.5012
iter:  58 13:19:03  -867.693173c -5.54  -3.56    +78.4991
iter:  59 13:20:41  -867.692482c -5.69  -3.57    +78.4980
iter:  60 13:22:19  -867.692941c -5.82  -3.63    +78.5019
iter:  61 13:23:58  -867.692322c -6.22  -3.70    +78.5048
iter:  62 13:25:36  -867.692756c -6.18  -3.78    +78.5019
iter:  63 13:27:13  -867.692711c -6.27  -3.79    +78.5003
iter:  64 13:28:51  -867.692799c -6.22  -3.85    +78.5093
iter:  65 13:30:29  -867.692649c -6.26  -3.86    +78.5092
iter:  66 13:32:07  -867.692512c -6.29  -4.00c   +78.5076
iter:  67 13:33:45  -867.692528c -6.48  -4.00c   +78.5121
iter:  68 13:35:23  -867.692516c -6.73  -4.11c   +78.5111
iter:  69 13:37:02  -867.692506c -6.70  -4.15c   +78.5127
iter:  70 13:38:39  -867.692494c -6.80  -4.16c   +78.5126
iter:  71 13:40:18  -867.692515c -6.88  -4.20c   +78.5114
iter:  72 13:41:56  -867.692444c -6.93  -4.27c   +78.5127
iter:  73 13:43:34  -867.692455c -7.15  -4.30c   +78.5115
iter:  74 13:45:12  -867.692461c -7.11  -4.36c   +78.5096
iter:  75 13:46:50  -867.692457c -7.30  -4.35c   +78.5106
iter:  76 13:48:28  -867.692406c -7.42c -4.42c   +78.5086

Converged after 76 iterations.

Dipole moment: (-0.193089, 0.142738, -0.024182) |e|*Ang

Total magnetic moment: (0.000000, 0.000000, 78.508629)
Local magnetic moments:
   0 Co ( 0.000000,  0.000000,  1.745971)
   1 Co ( 0.000000,  0.000000,  1.542394)
   2 Fe ( 0.000000,  0.000000,  2.665268)
   3 Fe ( 0.000000,  0.000000,  2.602874)
   4 Cr ( 0.000000,  0.000000,  2.323656)
   5 Cr ( 0.000000,  0.000000, -2.730701)
   6 Co ( 0.000000,  0.000000,  1.492511)
   7 Cr ( 0.000000,  0.000000, -2.770422)
   8 Fe ( 0.000000,  0.000000,  2.844493)
   9 Ni ( 0.000000,  0.000000,  0.565702)
  10 Ni ( 0.000000,  0.000000,  0.650053)
  11 Co ( 0.000000,  0.000000,  1.849251)
  12 Cr ( 0.000000,  0.000000, -2.658672)
  13 Fe ( 0.000000,  0.000000,  2.593323)
  14 Cr ( 0.000000,  0.000000, -2.753940)
  15 Fe ( 0.000000,  0.000000,  2.631134)
  16 Ni ( 0.000000,  0.000000,  0.251471)
  17 Co ( 0.000000,  0.000000,  1.587490)
  18 Ni ( 0.000000,  0.000000,  0.427533)
  19 Cr ( 0.000000,  0.000000, -2.850730)
  20 Co ( 0.000000,  0.000000,  1.687004)
  21 Ni ( 0.000000,  0.000000,  0.484422)
  22 Co ( 0.000000,  0.000000,  1.667513)
  23 Cr ( 0.000000,  0.000000, -2.706596)
  24 Fe ( 0.000000,  0.000000,  2.668401)
  25 Co ( 0.000000,  0.000000,  1.613287)
  26 Cr ( 0.000000,  0.000000, -2.627231)
  27 Cr ( 0.000000,  0.000000, -2.592950)
  28 Fe ( 0.000000,  0.000000,  2.597893)
  29 Cr ( 0.000000,  0.000000, -2.591465)
  30 Co ( 0.000000,  0.000000,  1.656137)
  31 Co ( 0.000000,  0.000000,  1.451645)
  32 Cr ( 0.000000,  0.000000,  2.517807)
  33 Ni ( 0.000000,  0.000000,  0.569265)
  34 Ni ( 0.000000,  0.000000,  0.474934)
  35 Cr ( 0.000000,  0.000000, -2.818418)
  36 Fe ( 0.000000,  0.000000,  2.881807)
  37 Ni ( 0.000000,  0.000000,  0.429749)
  38 Cr ( 0.000000,  0.000000, -2.721939)
  39 Fe ( 0.000000,  0.000000,  2.602976)
  40 Fe ( 0.000000,  0.000000,  2.758399)
  41 Co ( 0.000000,  0.000000,  1.264614)
  42 Cr ( 0.000000,  0.000000, -2.763596)
  43 Fe ( 0.000000,  0.000000,  2.779391)
  44 Fe ( 0.000000,  0.000000,  2.915098)
  45 Fe ( 0.000000,  0.000000,  2.808648)
  46 Ni ( 0.000000,  0.000000,  0.574706)
  47 Co ( 0.000000,  0.000000,  1.834492)
  48 Cr ( 0.000000,  0.000000, -2.805314)
  49 Ni ( 0.000000,  0.000000,  0.311975)
  50 Fe ( 0.000000,  0.000000,  2.734225)
  51 Co ( 0.000000,  0.000000,  1.574526)
  52 Co ( 0.000000,  0.000000,  1.605969)
  53 Fe ( 0.000000,  0.000000,  2.836523)
  54 Fe ( 0.000000,  0.000000,  2.740229)
  55 Ni ( 0.000000,  0.000000,  0.685082)
  56 Ni ( 0.000000,  0.000000,  0.640240)
  57 Fe ( 0.000000,  0.000000,  2.830534)
  58 Co ( 0.000000,  0.000000,  1.661215)
  59 Ni ( 0.000000,  0.000000,  0.513341)
  60 Ni ( 0.000000,  0.000000,  0.470424)
  61 Fe ( 0.000000,  0.000000,  2.697305)
  62 Fe ( 0.000000,  0.000000,  2.880005)
  63 Ni ( 0.000000,  0.000000,  0.402819)
  64 Fe ( 0.000000,  0.000000,  2.792749)
  65 Ni ( 0.000000,  0.000000,  0.430322)
  66 Co ( 0.000000,  0.000000,  1.859446)
  67 Ni ( 0.000000,  0.000000,  0.579987)
  68 Fe ( 0.000000,  0.000000,  2.939275)
  69 Co ( 0.000000,  0.000000,  1.609926)
  70 Cr ( 0.000000,  0.000000, -2.863094)
  71 Ni ( 0.000000,  0.000000,  0.589310)
  72 Co ( 0.000000,  0.000000,  1.571511)
  73 Co ( 0.000000,  0.000000,  1.615787)
  74 Fe ( 0.000000,  0.000000,  2.531037)
  75 Cr ( 0.000000,  0.000000,  2.176009)
  76 Cr ( 0.000000,  0.000000,  2.264653)
  77 Co ( 0.000000,  0.000000,  1.204723)
  78 Fe ( 0.000000,  0.000000,  2.686269)
  79 Cr ( 0.000000,  0.000000, -2.772100)
  80 Ni ( 0.000000,  0.000000,  0.404749)
  81 Fe ( 0.000000,  0.000000,  2.818652)
  82 Co ( 0.000000,  0.000000,  1.698810)
  83 Ni ( 0.000000,  0.000000,  0.641362)
  84 Cr ( 0.000000,  0.000000, -2.672670)
  85 Co ( 0.000000,  0.000000,  1.316213)
  86 Cr ( 0.000000,  0.000000,  2.375390)
  87 Ni ( 0.000000,  0.000000,  0.475358)
  88 Cr ( 0.000000,  0.000000, -2.737755)
  89 Fe ( 0.000000,  0.000000,  2.723433)
  90 Ni ( 0.000000,  0.000000,  0.333509)
  91 Co ( 0.000000,  0.000000,  1.742434)
  92 Ni ( 0.000000,  0.000000,  0.482456)
  93 Ni ( 0.000000,  0.000000,  0.315536)
  94 Ni ( 0.000000,  0.000000,  0.342159)
  95 Cr ( 0.000000,  0.000000, -2.761126)
  96 Ni ( 0.000000,  0.000000,  0.278054)
  97 Co ( 0.000000,  0.000000,  1.328029)
  98 Fe ( 0.000000,  0.000000,  2.655613)
  99 Cr ( 0.000000,  0.000000, -2.769772)
 100 Co ( 0.000000,  0.000000,  1.652637)
 101 Cr ( 0.000000,  0.000000, -2.691578)
 102 Fe ( 0.000000,  0.000000,  2.797924)
 103 Co ( 0.000000,  0.000000,  1.658312)
 104 Ni ( 0.000000,  0.000000,  0.328081)
 105 Co ( 0.000000,  0.000000,  1.562787)
 106 Cr ( 0.000000,  0.000000,  2.542709)
 107 Cr ( 0.000000,  0.000000, -2.808741)

Energy contributions relative to reference atoms: (reference = -3846758.590871)

Kinetic:       -315.106307
Potential:     +165.765849
External:        +0.000000
XC:            -752.504569
Entropy (-ST):   -4.792543
Local:          +36.548892
--------------------------
Free energy:   -870.088677
Extrapolated:  -867.692406

Spin contamination: 67.777189 electrons
Showing only first 2 kpts
                      Up                     Down
 Kpt  Band  Eigenvalues  Occupancy  Eigenvalues  Occupancy
  0   524      6.87198    0.99970      8.03579    0.02891
  0   525      6.87910    0.99968      8.04005    0.02773
  0   526      6.88779    0.99965      8.05325    0.02439
  0   527      6.90182    0.99960      8.05634    0.02366

  1   524      6.86773    0.99972      8.03848    0.02816
  1   525      6.86956    0.99971      8.04367    0.02677
  1   526      6.89548    0.99963      8.04816    0.02563
  1   527      6.90711    0.99958      8.05872    0.02312


Fermi level: 7.68435

No gap

Forces in eV/Ang:
  0 Co   -0.06268    0.01050    0.00136
  1 Co   -0.20522   -0.00813    0.02405
  2 Fe   -0.51808   -0.08270    0.07866
  3 Fe   -0.20801    0.10837    0.11172
  4 Cr    0.22599   -0.39871    0.14376
  5 Cr    0.13589   -0.29819    0.40502
  6 Co    0.22256   -0.14036    0.13514
  7 Cr    0.34469    0.17794   -0.31949
  8 Fe   -0.05244   -0.16771    0.28653
  9 Ni    0.15952    0.09453    0.02758
 10 Ni    0.04378    0.10956    0.00309
 11 Co    0.08809   -0.09091    0.09648
 12 Cr   -0.07610   -0.36974   -0.56403
 13 Fe   -0.11601   -0.00982    0.26742
 14 Cr    0.45318    0.54380   -0.18624
 15 Fe    0.08261    0.06915    0.25600
 16 Ni   -0.13003   -0.06401   -0.04323
 17 Co    0.16211   -0.11423    0.20649
 18 Ni    0.02256    0.01669    0.08700
 19 Cr    0.12153   -0.17967    0.12252
 20 Co    0.14216   -0.09361    0.03454
 21 Ni    0.08498   -0.05703    0.17544
 22 Co   -0.10673   -0.29402   -0.06609
 23 Cr   -0.40935    0.33672   -0.13149
 24 Fe    0.18551    0.21249    0.22685
 25 Co   -0.04461    0.07146    0.17048
 26 Cr   -0.41505   -0.61685    0.37946
 27 Cr   -0.88873    0.37255   -0.11789
 28 Fe    0.06866    0.33769    0.45669
 29 Cr    0.79759    0.45698    0.21026
 30 Co   -0.20965    0.08758    0.14035
 31 Co    0.10836   -0.08541    0.21140
 32 Cr   -0.11414    0.06101    0.67952
 33 Ni   -0.13581    0.06977    0.13294
 34 Ni    0.08345    0.06016    0.08235
 35 Cr    0.15020   -0.08452    0.12637
 36 Fe   -0.33600    0.01763   -0.23153
 37 Ni   -0.13904   -0.08085    0.00198
 38 Cr    0.11212    0.41942   -0.42009
 39 Fe    0.03117    0.23599    0.07999
 40 Fe    0.12641   -0.35102    0.07810
 41 Co    0.15497    0.37063   -0.40009
 42 Cr   -0.13360   -0.49791   -0.25498
 43 Fe    0.02301    0.38427   -0.15535
 44 Fe    0.19287   -0.29320   -0.34734
 45 Fe    0.38829    0.26474    0.19213
 46 Ni    0.03811   -0.03070   -0.06196
 47 Co   -0.08697    0.11649   -0.11990
 48 Cr   -0.51277    0.00804    0.40009
 49 Ni    0.05493   -0.00126    0.00953
 50 Fe   -0.02567    0.19268   -0.22662
 51 Co    0.19508   -0.07854    0.12869
 52 Co   -0.06803    0.11418   -0.03226
 53 Fe    0.16846    0.12008   -0.00980
 54 Fe   -0.08306    0.06862   -0.03444
 55 Ni   -0.04520   -0.05966   -0.11996
 56 Ni    0.04433   -0.04383    0.05675
 57 Fe   -0.24729   -0.18447    0.02919
 58 Co   -0.18752   -0.14467   -0.12063
 59 Ni   -0.06831   -0.03739   -0.04019
 60 Ni    0.03029    0.06073    0.01487
 61 Fe   -0.13275    0.03212   -0.03540
 62 Fe   -0.05128   -0.25291    0.00404
 63 Ni   -0.05218   -0.07371   -0.03511
 64 Fe    0.38523    0.05014   -0.27386
 65 Ni    0.01664   -0.21356   -0.04200
 66 Co   -0.02315    0.01641    0.22679
 67 Ni    0.06518   -0.06562   -0.02298
 68 Fe   -0.21299    0.20195   -0.24630
 69 Co   -0.01870   -0.17354   -0.02180
 70 Cr   -0.06172   -0.02579   -0.81274
 71 Ni    0.02844    0.11166   -0.01840
 72 Co   -0.19470    0.00316    0.27217
 73 Co   -0.44724   -0.31556    0.00044
 74 Fe   -0.69729   -0.08018    0.14660
 75 Cr   -0.02981   -0.18301   -0.18325
 76 Cr   -0.08178   -0.12743   -0.24468
 77 Co    0.13255    0.11365    0.09549
 78 Fe    0.55386   -0.34655   -0.20111
 79 Cr    0.20936   -0.01963    0.48834
 80 Ni   -0.08108   -0.06954    0.16614
 81 Fe    0.50087    0.24273   -0.09877
 82 Co    0.15757    0.02957    0.03540
 83 Ni    0.00126   -0.01548   -0.06147
 84 Cr    0.41836   -0.35565    0.05731
 85 Co    0.20963    0.07406    0.12543
 86 Cr   -0.15890    0.01635   -0.10491
 87 Ni   -0.11055    0.02115   -0.08248
 88 Cr   -0.40889    0.21026    0.16170
 89 Fe    0.19427    0.19102   -0.17353
 90 Ni    0.00446   -0.03700   -0.11527
 91 Co    0.13843    0.00529   -0.05041
 92 Ni    0.01557    0.03055   -0.08146
 93 Ni   -0.13640   -0.14982   -0.08632
 94 Ni   -0.03574   -0.06768    0.13768
 95 Cr   -0.27020   -0.02262    0.46831
 96 Ni    0.01446   -0.06808    0.02981
 97 Co    0.18018    0.21201   -0.04198
 98 Fe   -0.27121   -0.04401   -0.32915
 99 Cr   -0.38526   -0.30729    0.07102
100 Co    0.22027    0.13241   -0.02428
101 Cr    0.92869   -0.14163   -0.04107
102 Fe    0.06061    0.13337   -0.57587
103 Co    0.26530   -0.23232   -0.14217
104 Ni   -0.12106    0.16639   -0.09039
105 Co   -0.37474    0.35701   -0.33769
106 Cr    0.05312   -0.04286   -0.71542
107 Cr   -0.02903    0.46770    0.53875

Timing:                              incl.     excl.
-----------------------------------------------------------
Forces:                             22.253    22.253   0.3% |
Hamiltonian:                         1.218     0.005   0.0% |
 Atomic:                             0.206     0.114   0.0% |
  XC Correction:                     0.091     0.091   0.0% |
 Calculate atomic Hamiltonians:      0.889     0.889   0.0% |
 Communicate:                        0.003     0.003   0.0% |
 Initialize Hamiltonian:             0.000     0.000   0.0% |
 Poisson:                            0.001     0.001   0.0% |
 XC 3D grid:                         0.115     0.115   0.0% |
LCAO initialization:                84.141     0.917   0.0% |
 LCAO eigensolver:                  10.351     0.027   0.0% |
  Calculate projections:             0.665     0.665   0.0% |
  DenseAtomicCorrection:             0.498     0.498   0.0% |
  Distribute overlap matrix:         0.325     0.325   0.0% |
  Orbital Layouts:                   5.011     5.011   0.1% |
  Potential matrix:                  1.846     1.846   0.0% |
  Sum over cells:                    1.980     1.980   0.0% |
 LCAO to grid:                      70.934    70.934   0.9% |
 Set positions (LCAO WFS):           1.940     0.790   0.0% |
  Basic WFS set positions:           0.004     0.004   0.0% |
  Basis functions set positions:     0.001     0.001   0.0% |
  P tci:                             0.623     0.623   0.0% |
  ST tci:                            0.191     0.191   0.0% |
  mktci:                             0.330     0.330   0.0% |
PWDescriptor:                        0.082     0.082   0.0% |
SCF-cycle:                        7459.636   121.680   1.6% ||
 Davidson:                        7109.579  1475.737  19.5% |-------|
  Apply H:                          48.654    45.890   0.6% |
   HMM T:                            2.764     2.764   0.0% |
  Subspace diag:                   572.766     0.082   0.0% |
   calc_h_matrix:                  232.987   165.368   2.2% ||
    Apply H:                        67.619    65.130   0.9% |
     HMM T:                          2.489     2.489   0.0% |
   diagonalize:                     75.326    75.326   1.0% |
   rotate_psi:                     264.372   264.372   3.5% ||
  calc. matrices:                 1219.590  1111.335  14.7% |-----|
   Apply H:                        108.255    99.777   1.3% ||
    HMM T:                           8.478     8.478   0.1% |
  diagonalize:                    3238.084  3238.084  42.8% |----------------|
  rotate_psi:                      554.748   554.748   7.3% |--|
 Density:                          112.109     0.005   0.0% |
  Atomic density matrices:           1.898     1.898   0.0% |
  Mix:                              84.094    84.094   1.1% |
  Multipole moments:                 0.046     0.046   0.0% |
  Pseudo density:                   26.067    26.061   0.3% |
   Symmetrize density:               0.006     0.006   0.0% |
 Hamiltonian:                      107.634     1.459   0.0% |
  Atomic:                           17.331    10.369   0.1% |
   XC Correction:                    6.962     6.962   0.1% |
  Calculate atomic Hamiltonians:    73.699    73.699   1.0% |
  Communicate:                       1.114     1.114   0.0% |
  Poisson:                           0.057     0.057   0.0% |
  XC 3D grid:                       13.974    13.974   0.2% |
 Orthonormalize:                     8.634     0.003   0.0% |
  calc_s_matrix:                     1.631     1.631   0.0% |
  inverse-cholesky:                  0.384     0.384   0.0% |
  projections:                       4.874     4.874   0.1% |
  rotate_psi_s:                      1.742     1.742   0.0% |
Set symmetry:                        0.001     0.001   0.0% |
Other:                               4.762     4.762   0.1% |
-----------------------------------------------------------
Total:                                      7572.093 100.0%

Date: Sat Apr  8 13:48:51 2023
