
  ___ ___ ___ _ _ _  
 |   |   |_  | | | | 
 | | | | | . | | | | 
 |__ |  _|___|_____|  22.8.0
 |___|_|             

User:   c.zeng@d0022
Date:   Mon Apr 17 04:37:36 2023
Arch:   x86_64
Pid:    28652
CWD:    /home/c.zeng/projects/hea-corrosion/hea-mlp/data-curation/surface-md/dft-jobs/19
Python: 3.8.1
gpaw:   /home/c.zeng/usr/installs/gpaw/source/gpaw-22.8.0/gpaw
_gpaw:  /home/c.zeng/usr/installs/gpaw/source/gpaw-22.8.0/
        _gpaw.cpython-38-x86_64-linux-gnu.so
ase:    /home/c.zeng/.local/lib/python3.8/site-packages/ase-3.22.1-py3.8.egg/ase (version 3.22.1)
numpy:  /home/c.zeng/.local/lib/python3.8/site-packages/numpy (version 1.24.2)
scipy:  /home/c.zeng/.local/lib/python3.8/site-packages/scipy (version 1.10.1)
libxc:  4.2.3
units:  Angstrom and eV
cores: 30
OpenMP: False
OMP_NUM_THREADS: 1

Input parameters:
  convergence: {energy: 0.0001}
  kpts: [2 2 1]
  maxiter: 666
  mode: {ecut: 350.0,
         name: pw}
  occupations: {fixmagmom: False,
                name: fermi-dirac,
                width: 0.1}
  poissonsolver: {dipolelayer: xy}
  spinpol: True
  symmetry: {point_group: False}
  xc: PBE

System changes: positions, numbers, cell, pbc, initial_charges, initial_magmoms 

Initialize ...

species:
  Cr:
    name: Chromium
    id: 33f258bda2ca9f93018e70263a35547b
    Z: 24.0
    valence: 6
    core: 18
    charge: 0.0
    file: /home/c.zeng/usr/data/gpaw-setups-0.9.20000/Cr.PBE.gz
    compensation charges: {type: gauss,
                           rc: 0.35,
                           lmax: 2}
    cutoffs: {filter: 2.14,
              core: 3.04}
    valence states:
      #              energy  rcut
      - 4s(1.00)    -4.007   1.164
      - 4p(0.00)    -0.989   1.217
      - 3d(5.00)    -2.913   1.111
      -  s          23.205   1.164
      -  p          26.223   1.217
      -  d          24.299   1.111
  
    # Using partial waves for Cr as LCAO basis

  Fe:
    name: Iron
    id: 37abbd8d6c3c35915a9b583b742da910
    Z: 26.0
    valence: 8
    core: 18
    charge: 0.0
    file: /home/c.zeng/usr/data/gpaw-setups-0.9.20000/Fe.PBE.gz
    compensation charges: {type: gauss,
                           rc: 0.33,
                           lmax: 2}
    cutoffs: {filter: 2.06,
              core: 2.67}
    valence states:
      #              energy  rcut
      - 4s(2.00)    -5.291   1.164
      - 4p(0.00)    -1.326   1.058
      - 3d(6.00)    -7.505   1.058
      -  s          21.920   1.164
      -  p          25.885   1.058
      -  d          19.706   1.058
  
    # Using partial waves for Fe as LCAO basis

  Ni:
    name: Nickel
    id: 0d9f38a9d6e76a2886f07bb4381f212b
    Z: 28.0
    valence: 16
    core: 12
    charge: 0.0
    file: /home/c.zeng/usr/data/gpaw-setups-0.9.20000/Ni.PBE.gz
    compensation charges: {type: gauss,
                           rc: 0.36,
                           lmax: 2}
    cutoffs: {filter: 2.14,
              core: 1.98}
    valence states:
      #              energy  rcut
      - 4s(2.00)    -5.642   1.164
      - 3p(6.00)   -71.394   1.207
      - 4p(0.00)    -1.226   1.207
      - 3d(8.00)    -8.875   1.138
      -  s          21.570   1.164
      -  d          18.337   1.138
  
    # Using partial waves for Ni as LCAO basis

  Co:
    name: Cobalt
    id: 339d20d5b0b93d2de9531a1bee871d91
    Z: 27.0
    valence: 9
    core: 18
    charge: 0.0
    file: /home/c.zeng/usr/data/gpaw-setups-0.9.20000/Co.PBE.gz
    compensation charges: {type: gauss,
                           rc: 0.32,
                           lmax: 2}
    cutoffs: {filter: 1.87,
              core: 2.55}
    valence states:
      #              energy  rcut
      - 4s(2.00)    -5.469   1.005
      - 4p(0.00)    -1.277   1.058
      - 3d(7.00)    -8.205   1.005
      -  s          21.742   1.005
      -  p          25.934   1.058
      -  d          19.007   1.005
  
    # Using partial waves for Co as LCAO basis

Reference energy: -4451268.207082  # eV

Spin-polarized calculation.
Magnetic moment: 175.600000

Convergence criteria:
 Maximum [total energy] change in last 3 cyles: 0.0001 eV / electron
 Maximum integral of absolute [dens]ity change: 0.0001 electrons / valence electron
 Maximum integral of absolute [eigenst]ate change: 4e-08 eV^2 / valence electron
 Maximum number of scf [iter]ations: 666
 (Square brackets indicate name in SCF output, whereas a 'c' in
 the SCF output indicates the quantity has converged.)

Symmetries present (total): 1

  ( 1  0  0)
  ( 0  1  0)
  ( 0  0  1)

4 k-points: 2 x 2 x 1 Monkhorst-Pack grid
2 k-points in the irreducible part of the Brillouin zone
       k-points in crystal coordinates                weights
   0:     0.25000000   -0.25000000    0.00000000          2/4
   1:     0.25000000    0.25000000    0.00000000          2/4

Wave functions: Plane wave expansion
  Cutoff energy: 350.000 eV
  Number of coefficients (min, max): 58495, 58567
  Pulay-stress correction: 0.000000 eV/Ang^3 (de/decut=0.000000)
  Using FFTW library
  ScaLapack parameters: grid=1x1, blocksize=None
  Wavefunction extrapolation:
    Improved wavefunction reuse through dual PAW basis 

Occupation numbers: Fermi-Dirac:
  width: 0.1000  # eV
 

Eigensolver
   Davidson(niter=2) 

Densities:
  Coarse grid: 54*54*128 grid
  Fine grid: 108*108*256 grid
  Total Charge: 0.000000 

Density mixing:
  Method: difference
  Backend: pulay
  Linear mixing parameter: 0.05
  old densities: 5
  Damping of long wavelength oscillations: 50 

Hamiltonian:
  XC and Coulomb potentials evaluated on a 108*108*256 grid
  Using the PBE Exchange-Correlation functional
  External potential:
    NoExternalPotential
 

XC parameters: PBE with 2 nearest neighbor stencil

Memory estimate:
  Process memory now: 367.04 MiB
  Calculator: 2405.48 MiB
    Density: 16.73 MiB
      Arrays: 6.75 MiB
      Localized functions: 7.29 MiB
      Mixer: 2.70 MiB
    Hamiltonian: 5.22 MiB
      Arrays: 5.01 MiB
      XC: 0.00 MiB
      Poisson: 0.00 MiB
      vbar: 0.21 MiB
    Wavefunctions: 2383.52 MiB
      Arrays psit_nG: 1501.35 MiB
      Eigensolver: 862.84 MiB
      Projections: 3.85 MiB
      Projectors: 0.98 MiB
      PW-descriptor: 14.51 MiB

Total number of cores used: 30
Parallelization over k-points: 2
Domain decomposition: 1 x 3 x 5

Number of atoms: 125
Number of atomic orbitals: 1218
Number of bands in calculation: 840
Number of valence electrons: 1217
Bands to converge: occupied

... initialized

Initializing position-dependent things.

Density initialized from atomic densities
Creating initial wave functions:
  840 bands from LCAO basis set

                                                                
                                                                
                                                                
                                                                
                                        Ni                      
                                          Cr        Co          
                        Ni         Co          Cr               
                   Cr   Ni    Ni    Co    CCr                   
               Co     Ni      CCr     Co   Fe    Fe   Co        
                Ni     Fe CNi        Fe Cr         Fe           
                     Ni    CoNi NiNCr Fe     Ni                 
           Co    Fe    NiFeCr    NFe     Fe Co     Fe           
       Co          Ni Fe Fe NCo     Fe Ni Co  Cr   Fe           
                 Co     Cr      CoCr Fe Fe                      
              Ni    Co       NCo  CoFe     Co Fe    Cr          
              Fe  Fe  CrNCo    Co    Cr  Ni   Fe     Cr         
         Co     Fe  Ni    CFeNCo CrCNi     Co                   
              Ni     Fe Ni    NiFe  FeCr Ni    Cr               
          Fe     Co Cr  Crr Cr   Fe       Cr                    
                     Cr         Cr Co Fe    Ni                  
           Co    Co    Co   Cr    Cr     Cr                     
            Fe    Fe         Ni     Cr                          
                  Ni                                            
                                                                
                                                                
                                                                
                                                                
                                                                

Positions:
   0 Cr    12.211060    1.561839   10.292504    ( 0.0000,  0.0000,  0.0000)
   1 Fe     2.312994    1.508508   10.228694    ( 0.0000,  0.0000,  2.0000)
   2 Ni     4.804978    1.696271    9.278302    ( 0.0000,  0.0000,  1.5000)
   3 Co     6.943685    1.087932   10.984967    ( 0.0000,  0.0000,  2.1000)
   4 Ni     9.139496    1.091476   10.783240    ( 0.0000,  0.0000,  1.5000)
   5 Cr    13.501101    3.537072   10.081916    ( 0.0000,  0.0000,  0.0000)
   6 Fe     3.967685    3.947320    9.104858    ( 0.0000,  0.0000,  2.0000)
   7 Cr     5.589528    3.310919   10.899858    ( 0.0000,  0.0000,  0.0000)
   8 Cr     8.229545    3.389292   10.364577    ( 0.0000,  0.0000,  0.0000)
   9 Cr    10.645300    3.299153   10.341446    ( 0.0000,  0.0000,  0.0000)
  10 Ni    14.593959    5.547039    9.952122    ( 0.0000,  0.0000,  1.5000)
  11 Cr     4.394150    5.434226   11.108906    ( 0.0000,  0.0000,  0.0000)
  12 Cr     6.566456    5.551644   10.560320    ( 0.0000,  0.0000,  0.0000)
  13 Cr     9.434133    5.568919    9.959892    ( 0.0000,  0.0000,  0.0000)
  14 Fe    12.100620    5.538062   10.228314    ( 0.0000,  0.0000,  2.0000)
  15 Cr    15.285621    7.691356   10.582078    ( 0.0000,  0.0000,  0.0000)
  16 Ni     5.535556    8.034638   10.685542    ( 0.0000,  0.0000,  1.5000)
  17 Ni     8.038050    8.079693   10.114416    ( 0.0000,  0.0000,  1.5000)
  18 Fe    10.615968    7.824135   10.366357    ( 0.0000,  0.0000,  2.0000)
  19 Cr    12.924795    7.755981    9.731511    ( 0.0000,  0.0000,  0.0000)
  20 Cr    17.120668   10.192917   10.731097    ( 0.0000,  0.0000,  0.0000)
  21 Ni     7.200637   10.265816   10.090118    ( 0.0000,  0.0000,  1.5000)
  22 Cr     9.522713   10.223462    9.747165    ( 0.0000,  0.0000,  0.0000)
  23 Ni    11.900613    9.976771    9.269682    ( 0.0000,  0.0000,  1.5000)
  24 Fe    14.362996    9.615355   11.100566    ( 0.0000,  0.0000,  2.0000)
  25 Co    12.189563    0.080545   12.589351    ( 0.0000,  0.0000,  2.1000)
  26 Co     2.342052   -0.085637   12.153318    ( 0.0000,  0.0000,  2.1000)
  27 Co     4.867172   -0.059592   11.732535    ( 0.0000,  0.0000,  2.1000)
  28 Cr     7.488631   -0.154497   13.450133    ( 0.0000,  0.0000,  0.0000)
  29 Fe    15.858276   10.727469   12.770892    ( 0.0000,  0.0000,  2.0000)
  30 Fe     1.154057    2.163548   12.160024    ( 0.0000,  0.0000,  2.0000)
  31 Co     3.933243    2.297252   12.072767    ( 0.0000,  0.0000,  2.1000)
  32 Fe     6.130448    1.644942   13.142045    ( 0.0000,  0.0000,  2.0000)
  33 Cr     8.538341    2.051284   12.602646    ( 0.0000,  0.0000,  0.0000)
  34 Fe    10.894771    1.990236   12.254357    ( 0.0000,  0.0000,  2.0000)
  35 Ni     2.526882    4.086565   12.110831    ( 0.0000,  0.0000,  1.5000)
  36 Ni     4.738499    4.412873   13.110122    ( 0.0000,  0.0000,  1.5000)
  37 Cr     7.306443    4.366081   12.699339    ( 0.0000,  0.0000,  0.0000)
  38 Fe     9.836170    4.273261   12.137767    ( 0.0000,  0.0000,  2.0000)
  39 Cr    12.396864    4.268225   12.264099    ( 0.0000,  0.0000,  0.0000)
  40 Fe     3.426444    6.231588   13.308742    ( 0.0000,  0.0000,  2.0000)
  41 Ni     6.010997    6.657747   12.916693    ( 0.0000,  0.0000,  1.5000)
  42 Co     8.593813    6.287661   12.143192    ( 0.0000,  0.0000,  2.1000)
  43 Ni    11.024683    6.344608   12.100763    ( 0.0000,  0.0000,  1.5000)
  44 Co    13.780109    6.273736   12.028647    ( 0.0000,  0.0000,  2.1000)
  45 Cr    16.744797    8.649923   12.506021    ( 0.0000,  0.0000,  0.0000)
  46 Ni     7.325939    8.874856   12.132440    ( 0.0000,  0.0000,  1.5000)
  47 Co     9.723127    8.734460   12.234822    ( 0.0000,  0.0000,  2.1000)
  48 Ni    12.459214    8.587408   12.041217    ( 0.0000,  0.0000,  1.5000)
  49 Fe    14.424907    8.238609   13.112222    ( 0.0000,  0.0000,  2.0000)
  50 Co     1.194836    0.935136   14.768366    ( 0.0000,  0.0000,  2.1000)
  51 Fe     4.010836    0.969286   14.309040    ( 0.0000,  0.0000,  2.0000)
  52 Cr     6.418354    0.791819   15.558177    ( 0.0000,  0.0000,  0.0000)
  53 Fe     8.797596    0.710865   15.103237    ( 0.0000,  0.0000,  2.0000)
  54 Cr    11.191806    0.873126   14.602373    ( 0.0000,  0.0000,  0.0000)
  55 Fe     2.570811    2.845137   14.531969    ( 0.0000,  0.0000,  2.0000)
  56 Co     5.105688    2.863757   15.032183    ( 0.0000,  0.0000,  2.1000)
  57 Co     7.435039    2.840851   14.708849    ( 0.0000,  0.0000,  2.1000)
  58 Co     9.849762    2.937997   14.404005    ( 0.0000,  0.0000,  2.1000)
  59 Cr    12.300518    2.933663   14.229333    ( 0.0000,  0.0000,  0.0000)
  60 Co     3.432464    4.931629   15.589545    ( 0.0000,  0.0000,  2.1000)
  61 Cr     6.481350    4.924975   14.910156    ( 0.0000,  0.0000,  0.0000)
  62 Co     8.820282    5.048274   14.287722    ( 0.0000,  0.0000,  2.1000)
  63 Fe    11.197084    5.140331   14.231015    ( 0.0000,  0.0000,  2.0000)
  64 Co    14.046670    5.017612   14.171648    ( 0.0000,  0.0000,  2.1000)
  65 Fe     4.935627    6.785966   15.207075    ( 0.0000,  0.0000,  2.0000)
  66 Ni     7.464471    7.195372   14.789173    ( 0.0000,  0.0000,  1.5000)
  67 Cr     9.771399    7.203775   14.176658    ( 0.0000,  0.0000,  0.0000)
  68 Fe    12.169144    7.230685   14.003919    ( 0.0000,  0.0000,  2.0000)
  69 Cr    14.897069    7.140697   15.303819    ( 0.0000,  0.0000,  0.0000)
  70 Cr     6.343742    9.343246   14.548747    ( 0.0000,  0.0000,  0.0000)
  71 Ni     8.908228    9.417141   14.458444    ( 0.0000,  0.0000,  1.5000)
  72 Ni    11.360399    9.643122   14.088879    ( 0.0000,  0.0000,  1.5000)
  73 Co    13.464272    9.187437   15.095758    ( 0.0000,  0.0000,  2.1000)
  74 Fe    16.334836    9.195097   15.047956    ( 0.0000,  0.0000,  2.0000)
  75 Fe    12.509003    1.513545   16.713529    ( 0.0000,  0.0000,  2.0000)
  76 Ni     2.956548    1.558649   16.319670    ( 0.0000,  0.0000,  1.5000)
  77 Ni     4.927103    1.729674   17.681677    ( 0.0000,  0.0000,  1.5000)
  78 Fe     7.630122    1.482938   17.482881    ( 0.0000,  0.0000,  2.0000)
  79 Co    10.261505    1.853431   17.053272    ( 0.0000,  0.0000,  2.1000)
  80 Co    13.983490    3.645652   16.528569    ( 0.0000,  0.0000,  2.1000)
  81 Fe     3.806019    3.569815   17.594831    ( 0.0000,  0.0000,  2.0000)
  82 Ni     6.422722    3.657392   17.268019    ( 0.0000,  0.0000,  1.5000)
  83 Co     8.790570    3.530897   16.784266    ( 0.0000,  0.0000,  2.1000)
  84 Fe    11.569365    3.852823   16.195884    ( 0.0000,  0.0000,  2.0000)
  85 Ni    14.918165    5.883953   17.579665    ( 0.0000,  0.0000,  1.5000)
  86 Ni     4.942235    5.505717   17.395649    ( 0.0000,  0.0000,  1.5000)
  87 Co     7.304547    6.154752   16.783838    ( 0.0000,  0.0000,  2.1000)
  88 Fe    10.119537    5.821934   16.352900    ( 0.0000,  0.0000,  2.0000)
  89 Fe    12.931999    5.926878   16.163782    ( 0.0000,  0.0000,  2.0000)
  90 Fe    16.501748    7.942080   17.292572    ( 0.0000,  0.0000,  2.0000)
  91 Co     6.374767    8.190781   16.987013    ( 0.0000,  0.0000,  2.1000)
  92 Ni     9.095904    7.957485   16.253231    ( 0.0000,  0.0000,  1.5000)
  93 Fe    11.409494    8.010867   16.026367    ( 0.0000,  0.0000,  2.0000)
  94 Fe    13.494159    7.932112   17.448915    ( 0.0000,  0.0000,  2.0000)
  95 Co    17.556449   10.216684   16.970479    ( 0.0000,  0.0000,  2.1000)
  96 Co     7.716435   10.141762   16.473488    ( 0.0000,  0.0000,  2.1000)
  97 Fe    10.287000   10.202531   16.172802    ( 0.0000,  0.0000,  2.0000)
  98 Co    12.447409   10.165419   17.564040    ( 0.0000,  0.0000,  2.1000)
  99 Fe    15.135038   10.097741   17.041504    ( 0.0000,  0.0000,  2.0000)
 100 Co     0.659020    0.066514   18.480491    ( 0.0000,  0.0000,  2.1000)
 101 Co     9.438612   10.949822   18.248430    ( 0.0000,  0.0000,  2.1000)
 102 Ni    11.427426   10.659299   19.714759    ( 0.0000,  0.0000,  1.5000)
 103 Fe     8.045150   -0.015313   19.324766    ( 0.0000,  0.0000,  2.0000)
 104 Co    16.561679   10.747773   19.042996    ( 0.0000,  0.0000,  2.1000)
 105 Co     1.822520    2.276438   18.465317    ( 0.0000,  0.0000,  2.1000)
 106 Ni     3.876838    2.115243   19.706698    ( 0.0000,  0.0000,  1.5000)
 107 Fe     6.685170    2.128587   19.993448    ( 0.0000,  0.0000,  2.0000)
 108 Ni     9.121541    2.388231   19.281263    ( 0.0000,  0.0000,  1.5000)
 109 Cr    11.690986    2.189770   18.921142    ( 0.0000,  0.0000,  0.0000)
 110 Co     2.854506    4.464113   19.610688    ( 0.0000,  0.0000,  2.1000)
 111 Ni     5.558546    4.100528   19.457945    ( 0.0000,  0.0000,  1.5000)
 112 Ni     7.824674    4.507295   18.915107    ( 0.0000,  0.0000,  1.5000)
 113 Ni    10.478792    4.289158   18.272142    ( 0.0000,  0.0000,  1.5000)
 114 Cr    12.960078    4.176548   18.679873    ( 0.0000,  0.0000,  0.0000)
 115 Cr     3.860911    6.516318   19.501757    ( 0.0000,  0.0000,  0.0000)
 116 Ni     6.205652    6.369534   19.074360    ( 0.0000,  0.0000,  1.5000)
 117 Cr     9.045230    6.446520   18.484952    ( 0.0000,  0.0000,  0.0000)
 118 Co    11.854760    6.542609   18.358883    ( 0.0000,  0.0000,  2.1000)
 119 Cr    13.771305    6.643927   19.664754    ( 0.0000,  0.0000,  0.0000)
 120 Ni     5.449185    8.681301   19.095388    ( 0.0000,  0.0000,  1.5000)
 121 Ni     7.989149    8.740823   18.639942    ( 0.0000,  0.0000,  1.5000)
 122 Co    10.426127    8.873108   18.297366    ( 0.0000,  0.0000,  2.1000)
 123 Cr    12.772168    8.764893   19.959580    ( 0.0000,  0.0000,  0.0000)
 124 Cr    15.098656    8.450523   19.169333    ( 0.0000,  0.0000,  0.0000)

Unit cell:
           periodic     x           y           z      points  spacing
  1. axis:    yes   12.446800    0.000000    0.000000    54     0.1996
  2. axis:    yes    6.223010   10.778600    0.000000    54     0.1996
  3. axis:    no     0.000000    0.000000   29.353100   128     0.2293

  Lengths:  12.446800  12.446046  29.353100
  Angles:   90.000000  90.000000  60.000070

Effective grid spacing dv^(1/3) = 0.2193

     iter     time        total  log10-change:  magmom
                         energy  eigst   dens
iter:   1 04:46:14 -1248.505042                  +175.9175
iter:   2 04:49:15 -1171.505781  +0.02  -1.11    +97.8306
iter:   3 04:52:16 -1313.777328  -0.37  -1.06    +82.2340
iter:   4 04:55:17 -2394.569866  +0.43  -0.99    +70.6837
iter:   5 04:58:18 -1048.476032  -0.39  -0.71    +43.6627
iter:   6 05:01:19 -1013.136244  -1.06  -1.25    +41.6091
iter:   7 05:04:20 -1011.849481  -1.52  -1.30    +44.4809
iter:   8 05:07:21  -998.346627  -1.31  -1.30    +49.0868
iter:   9 05:10:21 -1505.760855  -0.33  -1.36    +50.8637
iter:  10 05:13:22 -1162.140584  -0.47  -0.91    +49.0720
iter:  11 05:16:23 -1036.106612  -1.08  -1.07    +44.8331
iter:  12 05:19:24 -1003.005461  -1.62  -1.33    +45.9714
iter:  13 05:22:25  -994.727264  -1.81  -1.47    +43.8861
iter:  14 05:25:25  -992.111363  -1.97  -1.46    +46.5241
iter:  15 05:28:27 -1101.614476  -1.32  -1.45    +50.7049
iter:  16 05:31:28 -1009.533705  -1.33  -1.16    +48.8116
iter:  17 05:34:29  -971.726436  -2.00  -1.34    +49.9832
iter:  18 05:37:30  -968.799489  -2.09  -1.57    +53.5231
iter:  19 05:40:31  -974.146366  -2.11  -1.60    +54.5122
iter:  20 05:43:32  -969.894583  -2.17  -1.55    +58.1651
iter:  21 05:46:33 -1000.104006  -1.63  -1.59    +62.0594
iter:  22 05:49:34 -1167.242028  -1.10  -1.49    +62.9989
iter:  23 05:52:36  -980.117032  -1.43  -1.10    +60.8496
iter:  24 05:55:37  -975.577621  -2.31  -1.54    +61.6807
iter:  25 05:58:38  -978.401213  -2.36  -1.62    +67.7816
iter:  26 06:01:40  -972.272259  -2.22  -1.62    +70.6632
iter:  27 06:04:41 -1028.963328  -1.95  -1.70    +73.2438
iter:  28 06:07:43 -1146.410723  -1.15  -1.32    +74.9991
iter:  29 06:10:45  -970.245648  -1.61  -1.12    +72.5467
iter:  30 06:13:47  -967.503401  -2.52  -1.78    +70.9414
iter:  31 06:16:49  -966.787841  -3.08  -1.84    +72.6961
iter:  32 06:19:51  -967.912414  -2.83  -1.90    +73.7947
iter:  33 06:22:53 -1105.680949  -1.57  -1.88    +74.7486
iter:  34 06:25:56  -971.950512  -1.71  -1.17    +74.7080
iter:  35 06:28:58  -968.391911  -2.29  -1.82    +72.2071
iter:  36 06:32:00  -968.056327  -2.52  -1.92    +73.9025
iter:  37 06:35:02  -967.809019  -2.86  -2.00    +75.4509
iter:  38 06:38:05  -967.981711  -2.76  -2.02    +77.5659
iter:  39 06:41:06  -967.786539  -2.66  -2.04    +79.5037
iter:  40 06:44:06  -976.709192  -2.48  -2.09    +82.2626
iter:  41 06:47:06  -967.721038  -2.78  -1.74    +82.3642
iter:  42 06:50:06  -968.406835  -3.05  -2.23    +84.0728
iter:  43 06:53:06  -968.698756  -3.23  -2.22    +85.2423
iter:  44 06:56:05  -968.951211  -2.81  -2.24    +86.2989
iter:  45 06:59:05  -969.014233  -3.00  -2.26    +87.1405
iter:  46 07:02:05  -969.140848  -3.11  -2.32    +88.3980
iter:  47 07:05:04  -969.069457  -3.43  -2.35    +89.0143
iter:  48 07:08:04  -969.320931  -3.55  -2.44    +89.6540
iter:  49 07:11:04  -973.948395  -2.90  -2.44    +89.8175
iter:  50 07:14:04  -969.760184  -3.05  -1.93    +90.3945
iter:  51 07:17:04  -969.865355  -3.67  -2.35    +91.0494
iter:  52 07:20:04  -969.988481  -3.69  -2.38    +90.7485
iter:  53 07:23:04  -970.229641  -3.29  -2.39    +90.8052
iter:  54 07:26:03  -970.477276  -3.56  -2.37    +91.1228
iter:  55 07:29:03 -1010.995422  -2.06  -2.33    +91.5811
iter:  56 07:32:03  -971.458569  -2.28  -1.45    +91.3211
iter:  57 07:35:03  -971.412989  -3.33  -2.17    +90.7169
iter:  58 07:38:02  -971.444522c -3.64  -2.19    +90.1372
iter:  59 07:41:02  -971.789242  -2.91  -2.18    +90.0161
iter:  60 07:44:02  -971.163271  -3.47  -2.10    +89.9747
iter:  61 07:47:02 -1203.003543  -1.36  -2.19    +89.8186
iter:  62 07:50:02  -970.739636  -1.66  -1.06    +89.7172
iter:  63 07:53:02  -970.880554  -2.74  -2.28    +89.5037
iter:  64 07:56:02  -970.432962  -3.48  -2.25    +89.4023
iter:  65 07:59:02  -970.170848  -3.46  -2.38    +89.3785
iter:  66 08:02:02  -970.131151  -3.72  -2.46    +89.4578
iter:  67 08:05:02  -972.002235  -3.05  -2.48    +89.8753
iter:  68 08:08:02  -969.834352  -3.49  -2.09    +89.5666
iter:  69 08:11:02  -969.761033  -4.37  -2.68    +90.0573
iter:  70 08:14:02  -969.825587c -4.41  -2.82    +90.3015
iter:  71 08:17:02  -970.008122  -3.65  -2.87    +91.3551
iter:  72 08:20:02  -970.093783  -3.72  -2.81    +92.1509
iter:  73 08:23:02  -970.210243  -3.67  -2.79    +92.7444
iter:  74 08:26:02  -970.199863c -4.18  -2.69    +92.7769
iter:  75 08:29:02  -970.094825c -4.08  -2.70    +92.7594
iter:  76 08:32:02  -970.392305  -4.25  -2.70    +92.6226
iter:  77 08:35:02  -970.137062  -4.47  -2.56    +92.7018
iter:  78 08:38:02  -970.761102  -3.28  -2.76    +92.7002
iter:  79 08:41:02  -970.054744  -3.69  -2.35    +92.6724
iter:  80 08:44:02  -970.061779  -4.20  -2.91    +92.6184
iter:  81 08:47:02  -970.084024c -4.26  -3.03    +92.5822
iter:  82 08:50:02  -970.096719c -4.47  -3.05    +92.4893
iter:  83 08:53:02  -970.097373c -4.84  -3.13    +92.4005
iter:  84 08:56:02  -970.116714c -4.62  -3.16    +92.3460
iter:  85 08:59:01  -970.113534c -4.80  -3.11    +92.2600
iter:  86 09:02:01  -970.116674c -4.66  -3.13    +92.3426
iter:  87 09:05:01  -970.120458c -5.00  -3.20    +92.4119
iter:  88 09:08:00  -970.125194c -4.87  -3.11    +92.3642
iter:  89 09:11:00  -970.118002c -4.92  -3.13    +92.4243
iter:  90 09:13:59  -970.118064c -5.00  -3.25    +92.4502
iter:  91 09:16:59  -970.142914c -4.87  -3.26    +92.5032
iter:  92 09:19:58  -970.121373c -5.28  -2.99    +92.5089
iter:  93 09:22:57  -970.115860c -5.04  -3.20    +92.4759
iter:  94 09:25:57  -970.115992c -5.58  -3.43    +92.5057
iter:  95 09:28:56  -970.117054c -5.31  -3.45    +92.5025
iter:  96 09:31:56  -970.121490c -5.46  -3.45    +92.5405
iter:  97 09:34:55  -970.207069c -4.60  -3.36    +92.5445
iter:  98 09:37:55  -970.117258c -4.98  -2.80    +92.5645
iter:  99 09:40:54  -970.117129c -5.45  -3.73    +92.5924
iter: 100 09:43:54  -970.118374c -5.82  -3.53    +92.6219
iter: 101 09:46:54  -970.118196c -5.89  -3.72    +92.6535
iter: 102 09:49:54  -970.117752c -6.09  -3.73    +92.6656
iter: 103 09:52:54  -970.118386c -6.44  -3.82    +92.6863
iter: 104 09:55:53  -970.120336c -5.95  -3.89    +92.7307
iter: 105 09:58:53  -970.119001c -6.40  -3.55    +92.7144
iter: 106 10:01:53  -970.119110c -6.08  -3.97    +92.7272
iter: 107 10:04:52  -970.119997c -6.14  -3.74    +92.7231
iter: 108 10:07:51  -970.120344c -6.31  -4.07c   +92.7357
iter: 109 10:10:50  -970.119971c -6.48  -4.09c   +92.7595
iter: 110 10:13:50  -970.120842c -6.31  -4.18c   +92.7762
iter: 111 10:16:49  -970.120276c -6.72  -3.86    +92.7662
iter: 112 10:19:48  -970.120506c -6.85  -4.33c   +92.7727
iter: 113 10:22:47  -970.122821c -5.44  -4.32c   +92.8402
iter: 114 10:25:46  -970.122998c -6.19  -3.88    +92.8163
iter: 115 10:28:45  -970.123121c -5.25  -3.77    +92.9149
iter: 116 10:31:45  -970.123285c -5.59  -3.89    +92.9790
iter: 117 10:34:43  -970.123389c -6.29  -3.92    +92.9923
iter: 118 10:37:42  -970.143383c -5.31  -3.90    +93.0078
iter: 119 10:40:40  -970.123796c -5.60  -3.06    +93.0051
iter: 120 10:43:39  -970.125441c -5.94  -3.78    +93.0155
iter: 121 10:46:37  -970.122950c -5.63  -3.73    +93.0128
iter: 122 10:49:36  -970.125520c -5.72  -3.72    +93.0163
iter: 123 10:52:35  -970.121837c -5.95  -3.48    +92.9634
iter: 124 10:55:33  -970.125385c -5.88  -3.79    +92.9213
iter: 125 10:58:32  -970.122567c -5.85  -3.53    +92.9298
iter: 126 11:01:30  -970.122367c -6.19  -3.57    +92.9001
iter: 127 11:04:28  -970.121949c -6.48  -3.94    +92.8932
iter: 128 11:07:27  -970.122468c -6.04  -3.87    +92.8736
iter: 129 11:10:25  -970.122177c -6.20  -3.74    +92.8816
iter: 130 11:13:24  -970.122191c -6.36  -3.89    +92.8862
iter: 131 11:16:23  -970.123667c -6.07  -3.68    +92.8639
iter: 132 11:19:21  -970.121402c -6.53  -3.70    +92.8773
iter: 133 11:22:20  -970.121719c -6.80  -4.15c   +92.8705
iter: 134 11:25:18  -970.121997c -6.80  -4.22c   +92.8817
iter: 135 11:28:16  -970.121741c -6.71  -4.01c   +92.8755
iter: 136 11:31:15  -970.122199c -6.82  -4.06c   +92.8742
iter: 137 11:34:13  -970.121623c -6.45  -3.97    +92.8917
iter: 138 11:37:12  -970.121945c -6.79  -3.81    +92.8800
iter: 139 11:40:11  -970.121563c -6.96  -4.26c   +92.8864
iter: 140 11:43:09  -970.121539c -7.12  -4.32c   +92.8799
iter: 141 11:46:08  -970.121668c -6.96  -4.17c   +92.8801
iter: 142 11:49:06  -970.121471c -7.17  -4.16c   +92.8787
iter: 143 11:52:05  -970.122622c -6.71  -4.19c   +92.8661
iter: 144 11:55:04  -970.121425c -7.06  -3.88    +92.8733
iter: 145 11:58:02  -970.121634c -7.09  -4.41c   +92.8668
iter: 146 12:01:02  -970.121744c -7.31  -4.40c   +92.8701
iter: 147 12:04:05  -970.121705c -7.05  -4.31c   +92.8684
iter: 148 12:07:09  -970.121723c -7.26  -4.18c   +92.8698
iter: 149 12:10:13  -970.121400c -7.02  -4.31c   +92.8778
iter: 150 12:13:17  -970.121640c -7.44c -4.06c   +92.8713

Converged after 150 iterations.

Dipole moment: (27.796280, 60.735325, -0.052176) |e|*Ang

Total magnetic moment: (0.000000, 0.000000, 92.871250)
Local magnetic moments:
   0 Cr ( 0.000000,  0.000000,  1.657035)
   1 Fe ( 0.000000,  0.000000,  2.394273)
   2 Ni ( 0.000000,  0.000000,  0.472375)
   3 Co ( 0.000000,  0.000000,  1.360045)
   4 Ni ( 0.000000,  0.000000,  0.182717)
   5 Cr ( 0.000000,  0.000000, -1.968215)
   6 Fe ( 0.000000,  0.000000,  3.020256)
   7 Cr ( 0.000000,  0.000000, -1.666090)
   8 Cr ( 0.000000,  0.000000,  2.511541)
   9 Cr ( 0.000000,  0.000000, -1.306908)
  10 Ni ( 0.000000,  0.000000,  0.005247)
  11 Cr ( 0.000000,  0.000000, -1.797853)
  12 Cr ( 0.000000,  0.000000,  2.324877)
  13 Cr ( 0.000000,  0.000000, -2.913594)
  14 Fe ( 0.000000,  0.000000, -2.081226)
  15 Cr ( 0.000000,  0.000000, -2.433303)
  16 Ni ( 0.000000,  0.000000,  0.093552)
  17 Ni ( 0.000000,  0.000000,  0.460115)
  18 Fe ( 0.000000,  0.000000,  2.521075)
  19 Cr ( 0.000000,  0.000000,  2.723931)
  20 Cr ( 0.000000,  0.000000, -2.272723)
  21 Ni ( 0.000000,  0.000000,  0.287212)
  22 Cr ( 0.000000,  0.000000, -2.892930)
  23 Ni ( 0.000000,  0.000000,  0.421026)
  24 Fe ( 0.000000,  0.000000,  2.235911)
  25 Co ( 0.000000,  0.000000,  0.935787)
  26 Co ( 0.000000,  0.000000,  1.641231)
  27 Co ( 0.000000,  0.000000,  1.757541)
  28 Cr ( 0.000000,  0.000000, -0.893747)
  29 Fe ( 0.000000,  0.000000,  0.725140)
  30 Fe ( 0.000000,  0.000000,  1.978318)
  31 Co ( 0.000000,  0.000000,  1.383519)
  32 Fe ( 0.000000,  0.000000,  1.901413)
  33 Cr ( 0.000000,  0.000000, -0.853127)
  34 Fe ( 0.000000,  0.000000,  1.016850)
  35 Ni ( 0.000000,  0.000000,  0.278927)
  36 Ni ( 0.000000,  0.000000,  0.188241)
  37 Cr ( 0.000000,  0.000000,  0.245133)
  38 Fe ( 0.000000,  0.000000,  1.545855)
  39 Cr ( 0.000000,  0.000000, -0.042073)
  40 Fe ( 0.000000,  0.000000,  2.172226)
  41 Ni ( 0.000000,  0.000000,  0.294831)
  42 Co ( 0.000000,  0.000000,  1.182946)
  43 Ni ( 0.000000,  0.000000,  0.221268)
  44 Co ( 0.000000,  0.000000,  1.023722)
  45 Cr ( 0.000000,  0.000000,  1.129381)
  46 Ni ( 0.000000,  0.000000,  0.467367)
  47 Co ( 0.000000,  0.000000,  1.519930)
  48 Ni ( 0.000000,  0.000000,  0.528606)
  49 Fe ( 0.000000,  0.000000,  1.923684)
  50 Co ( 0.000000,  0.000000,  1.258680)
  51 Fe ( 0.000000,  0.000000,  2.518544)
  52 Cr ( 0.000000,  0.000000, -2.113891)
  53 Fe ( 0.000000,  0.000000,  1.882954)
  54 Cr ( 0.000000,  0.000000, -1.317989)
  55 Fe ( 0.000000,  0.000000,  2.540893)
  56 Co ( 0.000000,  0.000000,  1.461220)
  57 Co ( 0.000000,  0.000000,  0.920660)
  58 Co ( 0.000000,  0.000000,  1.141208)
  59 Cr ( 0.000000,  0.000000, -0.621349)
  60 Co ( 0.000000,  0.000000,  1.397570)
  61 Cr ( 0.000000,  0.000000, -1.024760)
  62 Co ( 0.000000,  0.000000,  0.933701)
  63 Fe ( 0.000000,  0.000000,  1.759863)
  64 Co ( 0.000000,  0.000000,  1.380826)
  65 Fe ( 0.000000,  0.000000,  2.428756)
  66 Ni ( 0.000000,  0.000000,  0.238842)
  67 Cr ( 0.000000,  0.000000, -1.632556)
  68 Fe ( 0.000000,  0.000000,  2.252130)
  69 Cr ( 0.000000,  0.000000, -2.193051)
  70 Cr ( 0.000000,  0.000000, -2.481088)
  71 Ni ( 0.000000,  0.000000,  0.341380)
  72 Ni ( 0.000000,  0.000000,  0.494539)
  73 Co ( 0.000000,  0.000000,  0.868313)
  74 Fe ( 0.000000,  0.000000,  2.411539)
  75 Fe ( 0.000000,  0.000000,  2.389804)
  76 Ni ( 0.000000,  0.000000,  0.593249)
  77 Ni ( 0.000000,  0.000000,  0.632797)
  78 Fe ( 0.000000,  0.000000,  2.539897)
  79 Co ( 0.000000,  0.000000,  1.554388)
  80 Co ( 0.000000,  0.000000,  1.486088)
  81 Fe ( 0.000000,  0.000000,  2.665147)
  82 Ni ( 0.000000,  0.000000,  0.565531)
  83 Co ( 0.000000,  0.000000,  1.751070)
  84 Fe ( 0.000000,  0.000000,  2.246191)
  85 Ni ( 0.000000,  0.000000,  0.498717)
  86 Ni ( 0.000000,  0.000000,  0.540804)
  87 Co ( 0.000000,  0.000000,  1.446484)
  88 Fe ( 0.000000,  0.000000,  2.532216)
  89 Fe ( 0.000000,  0.000000,  2.492278)
  90 Fe ( 0.000000,  0.000000,  2.369633)
  91 Co ( 0.000000,  0.000000,  1.668109)
  92 Ni ( 0.000000,  0.000000,  0.419991)
  93 Fe ( 0.000000,  0.000000,  2.322447)
  94 Fe ( 0.000000,  0.000000,  2.332810)
  95 Co ( 0.000000,  0.000000,  1.527058)
  96 Co ( 0.000000,  0.000000,  1.577772)
  97 Fe ( 0.000000,  0.000000,  2.530779)
  98 Co ( 0.000000,  0.000000,  1.545345)
  99 Fe ( 0.000000,  0.000000,  2.601595)
 100 Co ( 0.000000,  0.000000,  1.692328)
 101 Co ( 0.000000,  0.000000,  1.728452)
 102 Ni ( 0.000000,  0.000000,  0.496498)
 103 Fe ( 0.000000,  0.000000,  2.413868)
 104 Co ( 0.000000,  0.000000,  1.692142)
 105 Co ( 0.000000,  0.000000,  1.458563)
 106 Ni ( 0.000000,  0.000000,  0.730836)
 107 Fe ( 0.000000,  0.000000,  3.155183)
 108 Ni ( 0.000000,  0.000000,  0.623312)
 109 Cr ( 0.000000,  0.000000, -2.655564)
 110 Co ( 0.000000,  0.000000,  1.402975)
 111 Ni ( 0.000000,  0.000000,  0.654645)
 112 Ni ( 0.000000,  0.000000,  0.412062)
 113 Ni ( 0.000000,  0.000000,  0.446137)
 114 Cr ( 0.000000,  0.000000,  2.204408)
 115 Cr ( 0.000000,  0.000000, -2.176748)
 116 Ni ( 0.000000,  0.000000,  0.430893)
 117 Cr ( 0.000000,  0.000000, -2.943860)
 118 Co ( 0.000000,  0.000000,  1.433939)
 119 Cr ( 0.000000,  0.000000,  1.903502)
 120 Ni ( 0.000000,  0.000000,  0.603763)
 121 Ni ( 0.000000,  0.000000,  0.566545)
 122 Co ( 0.000000,  0.000000,  1.740878)
 123 Cr ( 0.000000,  0.000000, -2.905276)
 124 Cr ( 0.000000,  0.000000, -1.009418)

Energy contributions relative to reference atoms: (reference = -4451268.207082)

Kinetic:       +288.099376
Potential:     -329.377990
External:        +0.000000
XC:            -970.071318
Entropy (-ST):   -5.666299
Local:          +44.061442
--------------------------
Free energy:   -972.954789
Extrapolated:  -970.121640

Dipole-layer corrected work functions: 4.571523, 4.641897 eV

Spin contamination: 52.174063 electrons
Showing all kpts
                      Up                     Down
 Kpt  Band  Eigenvalues  Occupancy  Eigenvalues  Occupancy
  0   606      0.10883    0.99874      1.16605    0.01986
  0   607      0.11642    0.99864      1.17380    0.01841
  0   608      0.13810    0.99831      1.18490    0.01651
  0   609      0.14604    0.99817      1.18917    0.01583

  1   606      0.12260    0.99855      1.17649    0.01793
  1   607      0.13409    0.99838      1.18253    0.01690
  1   608      0.14771    0.99814      1.18779    0.01604
  1   609      0.15294    0.99804      1.20394    0.01368


Fermi level: 0.77616

No gap

Forces in eV/Ang:
  0 Cr   -0.25421   -0.03872   -0.23387
  1 Fe    1.44920    0.82077   -0.08092
  2 Ni   -0.24202   -0.65682    1.17616
  3 Co   -1.97397   -0.17797   -0.65347
  4 Ni    1.85107   -0.17533   -2.68121
  5 Cr   -0.31961   -0.67436   -0.23985
  6 Fe   -0.32961   -0.16096    1.29824
  7 Cr    0.87775   -0.67827   -0.10401
  8 Cr   -0.65650   -0.38991    0.01856
  9 Cr    0.74687   -0.03830   -0.55051
 10 Ni    0.42410   -0.02778   -0.53875
 11 Cr   -0.22717    1.62818   -1.12383
 12 Cr    0.24121    0.80414   -0.06202
 13 Cr   -0.38673    0.57923    0.27944
 14 Fe   -0.06204   -0.00131   -0.43427
 15 Cr    0.87342    0.20098    0.52699
 16 Ni    0.67842   -1.29662   -0.51902
 17 Ni    0.87678   -1.27186    0.16073
 18 Fe   -0.89477    0.67505   -0.99060
 19 Cr    1.07967   -0.40168   -0.13090
 20 Cr   -0.21386    0.24510   -0.40141
 21 Ni   -1.05275   -0.08244    0.63610
 22 Cr    0.86820   -0.65440    0.15280
 23 Ni    0.01360    0.14231    1.60835
 24 Fe    0.07980    1.09343   -0.40417
 25 Co    1.02287   -0.19945    0.26260
 26 Co    0.55595    2.21371    0.42825
 27 Co    0.23014    0.20097   -0.21787
 28 Cr   -0.68862   -0.29010   -1.57159
 29 Fe    0.61494   -0.73641    1.24106
 30 Fe   -0.26851   -1.10730    1.37886
 31 Co   -0.38061   -1.59953    0.20065
 32 Fe   -0.66772    0.68209   -0.24954
 33 Cr   -0.79060    1.75859    1.66450
 34 Fe    0.12674    0.56911    1.07264
 35 Ni   -0.41968    0.88023   -0.09247
 36 Ni    1.15683   -1.53137    1.20951
 37 Cr   -0.88009   -0.45306   -0.26550
 38 Fe   -0.00473   -0.11796    1.03981
 39 Cr   -0.04697   -0.05169   -0.15894
 40 Fe   -0.26557    1.04082   -0.42883
 41 Ni   -0.14208   -0.16875   -0.50486
 42 Co   -1.06080    0.90355   -0.08392
 43 Ni    0.21210    0.55785    0.34239
 44 Co   -1.01300    0.45123    0.29903
 45 Cr    0.68251   -0.68646    0.69607
 46 Ni   -1.30877   -1.67764    1.40543
 47 Co    0.77037   -0.82182    0.19839
 48 Ni   -1.71190    0.23855   -0.79337
 49 Fe    1.59167    0.11306    0.71869
 50 Co    0.37002   -0.80562   -1.82177
 51 Fe   -0.42963   -0.81158   -1.94648
 52 Cr   -1.16125   -0.28689    0.26668
 53 Fe    0.37074    0.73249    0.04451
 54 Cr   -0.37870   -0.22327    0.31248
 55 Fe    0.03024    1.42281   -2.32584
 56 Co   -0.82282    0.43285    1.32837
 57 Co    0.72012    0.07419    0.75977
 58 Co    0.53930    0.02851    0.53030
 59 Cr    0.94969   -0.55330   -0.03658
 60 Co    0.96984   -0.66158   -0.75519
 61 Cr   -0.78612   -0.15668    0.23062
 62 Co   -0.63912    0.29607    0.91268
 63 Fe    0.29519   -0.68821   -0.17539
 64 Co   -1.63107    0.05472   -0.22659
 65 Fe    0.59908    0.85903   -0.14857
 66 Ni   -0.27122    0.30726   -1.34530
 67 Cr    1.02135    0.11182   -0.74424
 68 Fe    1.76711   -0.03489   -0.01775
 69 Cr   -0.46319    0.51978    0.40714
 70 Cr   -0.57287   -0.18968   -0.23661
 71 Ni   -0.87263    0.90346   -1.43341
 72 Ni    0.07401   -0.14428   -0.97415
 73 Co    0.16218   -0.18810    1.91619
 74 Fe   -0.46063    0.36322   -0.78673
 75 Fe    1.22434    0.59154   -0.25849
 76 Ni   -0.54988   -0.14035    1.12872
 77 Ni    2.42324   -1.98551   -0.33593
 78 Fe   -0.18503    0.45224   -0.10509
 79 Co   -0.82138   -1.01071   -0.10591
 80 Co   -0.32612    0.26862   -0.53111
 81 Fe   -1.13765    0.83312    0.00201
 82 Ni    0.00505   -0.50864   -1.27434
 83 Co   -0.34113    1.06828   -1.00977
 84 Fe   -0.20060   -0.25616    0.51021
 85 Ni   -0.00901   -0.35317    0.07124
 86 Ni    0.03951    1.32978   -0.70800
 87 Co    0.40243   -1.63025    0.88273
 88 Fe    0.05164   -0.29413    0.42991
 89 Fe   -0.81438   -0.30391    0.07670
 90 Fe   -0.80709   -0.61322   -0.26037
 91 Co    0.29757   -0.30124   -0.66906
 92 Ni   -1.15717    0.57588    2.38411
 93 Fe    0.83880    0.04350    1.00783
 94 Fe    0.47121    1.11468   -0.19398
 95 Co   -0.06476    0.17230   -0.52054
 96 Co    0.35910   -0.15409    0.30003
 97 Fe    0.63705    0.11097    1.02981
 98 Co    0.27141   -0.62797    0.19636
 99 Fe   -0.69874   -0.35195    0.32055
100 Co   -0.19377    0.18566    1.00857
101 Co   -1.00472   -0.33135    1.09610
102 Ni    0.09628    1.18758   -0.64267
103 Fe   -1.01565    0.07451    0.00805
104 Co    0.24699    0.51004   -0.35945
105 Co    0.22226   -0.64813    0.39829
106 Ni    0.29114    0.25910    0.17568
107 Fe   -0.10191   -0.41287   -1.07401
108 Ni   -0.14604   -0.34475   -0.75962
109 Cr    0.23113   -0.21579    0.32223
110 Co   -0.03944   -0.63033   -0.26344
111 Ni   -1.37961   -0.06987   -0.04095
112 Ni    0.63724   -0.60928    0.08460
113 Ni   -0.28957    0.43358    1.03792
114 Cr   -0.33228    1.11874   -0.43884
115 Cr    0.81152   -0.40477   -0.04447
116 Ni    1.58559    0.92226    0.05531
117 Cr    0.71432    0.60865   -0.03125
118 Co   -1.19676   -0.18569   -0.67134
119 Cr    0.40461   -0.37935    0.60908
120 Ni   -0.16764    0.50874    0.18431
121 Ni    0.09962   -0.09535   -0.30830
122 Co    0.69164   -0.92017   -0.04760
123 Cr   -0.79932   -0.05353   -0.59885
124 Cr    0.58534    0.47861   -0.21712

Timing:                              incl.     excl.
-----------------------------------------------------------
Forces:                             47.495    47.495   0.2% |
Hamiltonian:                         1.631     0.010   0.0% |
 Atomic:                             0.404     0.002   0.0% |
  XC Correction:                     0.403     0.403   0.0% |
 Calculate atomic Hamiltonians:      0.656     0.656   0.0% |
 Communicate:                        0.103     0.103   0.0% |
 Initialize Hamiltonian:             0.000     0.000   0.0% |
 Poisson:                            0.099     0.099   0.0% |
 XC 3D grid:                         0.359     0.359   0.0% |
LCAO initialization:               313.423     0.439   0.0% |
 LCAO eigensolver:                  16.074     0.013   0.0% |
  Calculate projections:             0.000     0.000   0.0% |
  DenseAtomicCorrection:             0.000     0.000   0.0% |
  Distribute overlap matrix:         9.569     9.569   0.0% |
  Orbital Layouts:                   6.357     6.357   0.0% |
  Potential matrix:                  0.004     0.004   0.0% |
  Sum over cells:                    0.131     0.131   0.0% |
 LCAO to grid:                     294.470   294.470   1.1% |
 Set positions (LCAO WFS):           2.440     2.144   0.0% |
  Basic WFS set positions:           0.004     0.004   0.0% |
  Basis functions set positions:     0.001     0.001   0.0% |
  P tci:                             0.000     0.000   0.0% |
  ST tci:                            0.117     0.117   0.0% |
  mktci:                             0.174     0.174   0.0% |
PWDescriptor:                        0.099     0.099   0.0% |
SCF-cycle:                       27023.039     2.707   0.0% |
 Davidson:                       26326.248  8223.369  30.0% |-----------|
  Apply H:                         463.215   455.252   1.7% ||
   HMM T:                            7.963     7.963   0.0% |
  Subspace diag:                  2809.301     0.060   0.0% |
   calc_h_matrix:                 1132.902   737.796   2.7% ||
    Apply H:                       395.107   387.221   1.4% ||
     HMM T:                          7.886     7.886   0.0% |
   diagonalize:                    255.991   255.991   0.9% |
   rotate_psi:                    1420.348  1420.348   5.2% |-|
  calc. matrices:                 6544.011  5812.838  21.2% |-------|
   Apply H:                        731.173   716.248   2.6% ||
    HMM T:                          14.925    14.925   0.1% |
  diagonalize:                    5269.401  5269.401  19.2% |-------|
  rotate_psi:                     3016.951  3016.951  11.0% |---|
 Density:                          385.370     0.005   0.0% |
  Atomic density matrices:           4.028     4.028   0.0% |
  Mix:                             170.175   170.175   0.6% |
  Multipole moments:                 0.113     0.113   0.0% |
  Pseudo density:                  211.049   211.042   0.8% |
   Symmetrize density:               0.007     0.007   0.0% |
 Hamiltonian:                      286.685     1.637   0.0% |
  Atomic:                           61.269     0.282   0.0% |
   XC Correction:                   60.987    60.987   0.2% |
  Calculate atomic Hamiltonians:   147.561   147.561   0.5% |
  Communicate:                      17.547    17.547   0.1% |
  Poisson:                           5.856     5.856   0.0% |
  XC 3D grid:                       52.815    52.815   0.2% |
 Orthonormalize:                    22.030     0.001   0.0% |
  calc_s_matrix:                     2.719     2.719   0.0% |
  inverse-cholesky:                  1.014     1.014   0.0% |
  projections:                      13.559    13.559   0.0% |
  rotate_psi_s:                      4.738     4.738   0.0% |
Set symmetry:                        0.001     0.001   0.0% |
Other:                               7.224     7.224   0.0% |
-----------------------------------------------------------
Total:                                     27392.913 100.0%

Date: Mon Apr 17 12:14:09 2023
