
  ___ ___ ___ _ _ _  
 |   |   |_  | | | | 
 | | | | | . | | | | 
 |__ |  _|___|_____|  22.8.0
 |___|_|             

User:   c.zeng@d0059
Date:   Tue Apr 18 20:22:57 2023
Arch:   x86_64
Pid:    91547
CWD:    /home/c.zeng/projects/hea-corrosion/hea-mlp/data-curation/surface-mcmc/dft-jobs/137
Python: 3.8.1
gpaw:   /home/c.zeng/usr/installs/gpaw/source/gpaw-22.8.0/gpaw
_gpaw:  /home/c.zeng/usr/installs/gpaw/source/gpaw-22.8.0/
        _gpaw.cpython-38-x86_64-linux-gnu.so
ase:    /home/c.zeng/.local/lib/python3.8/site-packages/ase-3.22.1-py3.8.egg/ase (version 3.22.1)
numpy:  /home/c.zeng/.local/lib/python3.8/site-packages/numpy (version 1.24.2)
scipy:  /home/c.zeng/.local/lib/python3.8/site-packages/scipy (version 1.10.1)
libxc:  4.2.3
units:  Angstrom and eV
cores: 30
OpenMP: False
OMP_NUM_THREADS: 1

Input parameters:
  convergence: {energy: 0.0001}
  kpts: [2 2 1]
  maxiter: 666
  mode: {ecut: 350.0,
         name: pw}
  occupations: {fixmagmom: False,
                name: fermi-dirac,
                width: 0.1}
  poissonsolver: {dipolelayer: xy}
  spinpol: True
  symmetry: {point_group: False}
  xc: PBE

System changes: positions, numbers, cell, pbc, initial_charges, initial_magmoms 

Initialize ...

species:
  Fe:
    name: Iron
    id: 37abbd8d6c3c35915a9b583b742da910
    Z: 26.0
    valence: 8
    core: 18
    charge: 0.0
    file: /home/c.zeng/usr/data/gpaw-setups-0.9.20000/Fe.PBE.gz
    compensation charges: {type: gauss,
                           rc: 0.33,
                           lmax: 2}
    cutoffs: {filter: 2.06,
              core: 2.67}
    valence states:
      #              energy  rcut
      - 4s(2.00)    -5.291   1.164
      - 4p(0.00)    -1.326   1.058
      - 3d(6.00)    -7.505   1.058
      -  s          21.920   1.164
      -  p          25.885   1.058
      -  d          19.706   1.058
  
    # Using partial waves for Fe as LCAO basis

  Cr:
    name: Chromium
    id: 33f258bda2ca9f93018e70263a35547b
    Z: 24.0
    valence: 6
    core: 18
    charge: 0.0
    file: /home/c.zeng/usr/data/gpaw-setups-0.9.20000/Cr.PBE.gz
    compensation charges: {type: gauss,
                           rc: 0.35,
                           lmax: 2}
    cutoffs: {filter: 2.14,
              core: 3.04}
    valence states:
      #              energy  rcut
      - 4s(1.00)    -4.007   1.164
      - 4p(0.00)    -0.989   1.217
      - 3d(5.00)    -2.913   1.111
      -  s          23.205   1.164
      -  p          26.223   1.217
      -  d          24.299   1.111
  
    # Using partial waves for Cr as LCAO basis

  Al:
    name: Aluminium
    id: 0292cae29f5d6237e50f6abdd43a7bdd
    Z: 13.0
    valence: 3
    core: 10
    charge: 0.0
    file: /home/c.zeng/usr/data/gpaw-setups-0.9.20000/Al.PBE.gz
    compensation charges: {type: gauss,
                           rc: 0.34,
                           lmax: 2}
    cutoffs: {filter: 1.91,
              core: 2.36}
    valence states:
      #              energy  rcut
      - 3s(2.00)    -7.753   1.085
      - 3p(1.00)    -2.712   1.085
      -  s          19.459   1.085
      -  p          24.499   1.085
      -  d           0.000   1.085
  
    # Using partial waves for Al as LCAO basis

  Co:
    name: Cobalt
    id: 339d20d5b0b93d2de9531a1bee871d91
    Z: 27.0
    valence: 9
    core: 18
    charge: 0.0
    file: /home/c.zeng/usr/data/gpaw-setups-0.9.20000/Co.PBE.gz
    compensation charges: {type: gauss,
                           rc: 0.32,
                           lmax: 2}
    cutoffs: {filter: 1.87,
              core: 2.55}
    valence states:
      #              energy  rcut
      - 4s(2.00)    -5.469   1.005
      - 4p(0.00)    -1.277   1.058
      - 3d(7.00)    -8.205   1.005
      -  s          21.742   1.005
      -  p          25.934   1.058
      -  d          19.007   1.005
  
    # Using partial waves for Co as LCAO basis

  Ni:
    name: Nickel
    id: 0d9f38a9d6e76a2886f07bb4381f212b
    Z: 28.0
    valence: 16
    core: 12
    charge: 0.0
    file: /home/c.zeng/usr/data/gpaw-setups-0.9.20000/Ni.PBE.gz
    compensation charges: {type: gauss,
                           rc: 0.36,
                           lmax: 2}
    cutoffs: {filter: 2.14,
              core: 1.98}
    valence states:
      #              energy  rcut
      - 4s(2.00)    -5.642   1.164
      - 3p(6.00)   -71.394   1.207
      - 4p(0.00)    -1.226   1.207
      - 3d(8.00)    -8.875   1.138
      -  s          21.570   1.164
      -  d          18.337   1.138
  
    # Using partial waves for Ni as LCAO basis

Reference energy: -4103091.665053  # eV

Spin-polarized calculation.
Magnetic moment: 158.800000

Convergence criteria:
 Maximum [total energy] change in last 3 cyles: 0.0001 eV / electron
 Maximum integral of absolute [dens]ity change: 0.0001 electrons / valence electron
 Maximum integral of absolute [eigenst]ate change: 4e-08 eV^2 / valence electron
 Maximum number of scf [iter]ations: 666
 (Square brackets indicate name in SCF output, whereas a 'c' in
 the SCF output indicates the quantity has converged.)

Symmetries present (total): 1

  ( 1  0  0)
  ( 0  1  0)
  ( 0  0  1)

4 k-points: 2 x 2 x 1 Monkhorst-Pack grid
2 k-points in the irreducible part of the Brillouin zone
       k-points in crystal coordinates                weights
   0:     0.25000000   -0.25000000    0.00000000          2/4
   1:     0.25000000    0.25000000    0.00000000          2/4

Wave functions: Plane wave expansion
  Cutoff energy: 350.000 eV
  Number of coefficients (min, max): 59263, 59339
  Pulay-stress correction: 0.000000 eV/Ang^3 (de/decut=0.000000)
  Using FFTW library
  ScaLapack parameters: grid=1x1, blocksize=None
  Wavefunction extrapolation:
    Improved wavefunction reuse through dual PAW basis 

Occupation numbers: Fermi-Dirac:
  width: 0.1000  # eV
 

Eigensolver
   Davidson(niter=2) 

Densities:
  Coarse grid: 56*56*128 grid
  Fine grid: 112*112*256 grid
  Total Charge: 0.000000 

Density mixing:
  Method: difference
  Backend: pulay
  Linear mixing parameter: 0.05
  old densities: 5
  Damping of long wavelength oscillations: 50 

Hamiltonian:
  XC and Coulomb potentials evaluated on a 112*112*256 grid
  Using the PBE Exchange-Correlation functional
  External potential:
    NoExternalPotential
 

XC parameters: PBE with 2 nearest neighbor stencil

Memory estimate:
  Process memory now: 383.25 MiB
  Calculator: 2263.81 MiB
    Density: 18.78 MiB
      Arrays: 7.39 MiB
      Localized functions: 8.44 MiB
      Mixer: 2.95 MiB
    Hamiltonian: 5.74 MiB
      Arrays: 5.49 MiB
      XC: 0.00 MiB
      Poisson: 0.00 MiB
      vbar: 0.26 MiB
    Wavefunctions: 2239.28 MiB
      Arrays psit_nG: 1414.30 MiB
      Eigensolver: 804.77 MiB
      Projections: 3.48 MiB
      Projectors: 1.15 MiB
      PW-descriptor: 15.58 MiB

Total number of cores used: 30
Parallelization over k-points: 2
Domain decomposition: 1 x 3 x 5

Number of atoms: 125
Number of atomic orbitals: 1149
Number of bands in calculation: 781
Number of valence electrons: 1136
Bands to converge: occupied

... initialized

Initializing position-dependent things.

Density initialized from atomic densities
Creating initial wave functions:
  781 bands from LCAO basis set

                                                                  
                                                                  
                                                                  
                                                                  
                                               Cr     Co          
                         Co    Ni    Al    Ni    Cr               
                                                                  
                          Cr    NNi   CFe   CNi   CNi   Co        
                Al    Cr   AFe   CFe    FFe   Co    Fe            
           Ni     Fe    Fe    Ni    Ni                            
                       Ni   FCo   CCr    Al    Co    Ni           
       Al    Fe   NCr   NNi   CAl    Cr   CCo   Co                
              Ni    Fe    Fe     Fe Ni Cr      Fe     Fe          
                   Fe    CCr   FCo   CCr   FCr   Al               
               Cr    Al    Ni     Co   FCr                        
           Cr    Ni    Co    Co NCoCr Cr    NNi   FCo   Al        
                      Ni   CNi   NCo    AFe   FNi   Co            
                  Ni    Fe   FCo   CCr   NCr    Ni                
       Co    Co        Cr                                         
                  FCr    Al    Co    Cr    Fe                     
              Cr    Fe    Fe     Cr    Fe                         
                                                                  
                                                                  
                                                                  
                                                                  
                                                                  

Positions:
   0 Fe    12.533128    1.440034   10.429626    ( 0.0000,  0.0000,  0.0000)
   1 Cr     2.529984    1.448599   10.596851    ( 0.0000,  0.0000,  1.5000)
   2 Fe     5.001844    1.491107   10.507206    ( 0.0000,  0.0000,  2.0000)
   3 Fe     7.517470    1.481371   10.443804    ( 0.0000,  0.0000,  0.0000)
   4 Cr     9.992855    1.449769   10.527665    ( 0.0000,  0.0000,  1.5000)
   5 Fe    13.789466    3.650838   10.562420    ( 0.0000,  0.0000,  0.0000)
   6 Fe     3.743028    3.607376   10.509643    ( 0.0000,  0.0000,  2.0000)
   7 Al     6.277985    3.603907   10.508586    ( 0.0000,  0.0000,  2.1000)
   8 Co     8.774670    3.629318   10.567703    ( 0.0000,  0.0000,  2.0000)
   9 Cr    11.256667    3.628289   10.556285    ( 0.0000,  0.0000,  1.5000)
  10 Ni    15.035471    5.774902   10.514867    ( 0.0000,  0.0000,  1.5000)
  11 Cr     5.000253    5.778068   10.458099    ( 0.0000,  0.0000,  0.0000)
  12 Fe     7.492975    5.732719   10.527548    ( 0.0000,  0.0000,  2.1000)
  13 Co    10.032594    5.738715   10.521208    ( 0.0000,  0.0000,  0.0000)
  14 Ni    12.531668    5.773428   10.506590    ( 0.0000,  0.0000,  0.0000)
  15 Co    16.282097    7.932335   10.424460    ( 0.0000,  0.0000,  1.5000)
  16 Cr     6.249076    7.915716   10.493733    ( 0.0000,  0.0000,  2.1000)
  17 Ni     8.739103    7.939274   10.318290    ( 0.0000,  0.0000,  0.0000)
  18 Al    11.262833    7.889621   10.504036    ( 0.0000,  0.0000,  2.1000)
  19 Fe    13.767197    7.897384   10.366605    ( 0.0000,  0.0000,  2.0000)
  20 Al    17.517670   10.103092   10.481904    ( 0.0000,  0.0000,  0.0000)
  21 Ni     7.497936   10.110681   10.626409    ( 0.0000,  0.0000,  2.0000)
  22 Cr     9.976265   10.147183   10.547802    ( 0.0000,  0.0000,  2.1000)
  23 Ni    12.481525   10.098897   10.273937    ( 0.0000,  0.0000,  0.0000)
  24 Fe    15.038329   10.106659   10.411838    ( 0.0000,  0.0000,  1.5000)
  25 Co     0.029584    0.040775   12.611442    ( 0.0000,  0.0000,  2.0000)
  26 Co     2.524286    0.017743   12.625649    ( 0.0000,  0.0000,  2.0000)
  27 Cr     5.009931    0.016306   12.476653    ( 0.0000,  0.0000,  2.0000)
  28 Fe    13.725795   10.834823   12.477504    ( 0.0000,  0.0000,  0.0000)
  29 Fe    16.291616   10.839907   12.543255    ( 0.0000,  0.0000,  2.0000)
  30 Cr    13.787334    2.177261   12.583938    ( 0.0000,  0.0000,  2.0000)
  31 Ni     3.767898    2.156913   12.580445    ( 0.0000,  0.0000,  0.0000)
  32 Fe     6.250320    2.155536   12.545368    ( 0.0000,  0.0000,  0.0000)
  33 Co     8.760760    2.165922   12.631314    ( 0.0000,  0.0000,  0.0000)
  34 Cr    11.291091    2.189404   12.569467    ( 0.0000,  0.0000,  2.0000)
  35 Ni    15.015728    4.333177   12.562892    ( 0.0000,  0.0000,  2.0000)
  36 Ni     5.006820    4.331518   12.549301    ( 0.0000,  0.0000,  0.0000)
  37 Ni     7.536414    4.362058   12.589016    ( 0.0000,  0.0000,  0.0000)
  38 Co    10.033535    4.360377   12.602577    ( 0.0000,  0.0000,  1.5000)
  39 Fe    12.523539    4.334760   12.563508    ( 0.0000,  0.0000,  2.0000)
  40 Co    16.274251    6.492117   12.533950    ( 0.0000,  0.0000,  1.5000)
  41 Co     6.308192    6.475432   12.559751    ( 0.0000,  0.0000,  2.1000)
  42 Co     8.776271    6.490035   12.490008    ( 0.0000,  0.0000,  2.0000)
  43 Fe    11.278289    6.490805   12.557021    ( 0.0000,  0.0000,  1.5000)
  44 Ni    13.752272    6.468516   12.517952    ( 0.0000,  0.0000,  2.1000)
  45 Cr     5.108056    8.658624   12.557785    ( 0.0000,  0.0000,  0.0000)
  46 Fe     7.566363    8.646547   12.581003    ( 0.0000,  0.0000,  1.5000)
  47 Co     9.994311    8.654038   12.473248    ( 0.0000,  0.0000,  2.0000)
  48 Fe    12.478693    8.644812   12.462622    ( 0.0000,  0.0000,  2.1000)
  49 Al    14.946058    8.624518   12.480087    ( 0.0000,  0.0000,  0.0000)
  50 Cr     1.256201    0.763084   14.702997    ( 0.0000,  0.0000,  2.1000)
  51 Ni     3.741141    0.768517   14.684241    ( 0.0000,  0.0000,  1.5000)
  52 Co     6.299995    0.774666   14.698271    ( 0.0000,  0.0000,  0.0000)
  53 Co     8.776010    0.777622   14.780255    ( 0.0000,  0.0000,  2.1000)
  54 Cr    11.299537    0.773215   14.649927    ( 0.0000,  0.0000,  1.5000)
  55 Cr     2.503641    2.894650   14.677166    ( 0.0000,  0.0000,  1.5000)
  56 Al     5.003149    2.898769   14.726979    ( 0.0000,  0.0000,  1.5000)
  57 Ni     7.507897    2.915183   14.810283    ( 0.0000,  0.0000,  0.0000)
  58 Co    10.051236    2.911302   14.719875    ( 0.0000,  0.0000,  1.5000)
  59 Cr    12.558998    2.904027   14.656326    ( 0.0000,  0.0000,  2.0000)
  60 Fe     3.714729    5.068312   14.654653    ( 0.0000,  0.0000,  0.0000)
  61 Cr     6.295139    5.069515   14.699915    ( 0.0000,  0.0000,  0.0000)
  62 Co     8.776914    5.060506   14.664779    ( 0.0000,  0.0000,  2.1000)
  63 Cr    11.297436    5.056712   14.652715    ( 0.0000,  0.0000,  0.0000)
  64 Cr    13.775594    5.062599   14.637129    ( 0.0000,  0.0000,  0.0000)
  65 Ni     5.020095    7.203792   14.693017    ( 0.0000,  0.0000,  1.5000)
  66 Cr     7.527582    7.223934   14.646111    ( 0.0000,  0.0000,  2.0000)
  67 Ni    10.007193    7.208139   14.579832    ( 0.0000,  0.0000,  2.1000)
  68 Co    12.551373    7.215565   14.635837    ( 0.0000,  0.0000,  1.5000)
  69 Co    15.022437    7.200789   14.781399    ( 0.0000,  0.0000,  2.1000)
  70 Fe     6.300157    9.420840   14.712918    ( 0.0000,  0.0000,  2.1000)
  71 Co     8.732283    9.401749   14.673585    ( 0.0000,  0.0000,  0.0000)
  72 Al    11.263746    9.439649   14.574753    ( 0.0000,  0.0000,  0.0000)
  73 Cr    13.786012    9.419517   14.774443    ( 0.0000,  0.0000,  0.0000)
  74 Ni    16.298882    9.432071   14.813071    ( 0.0000,  0.0000,  0.0000)
  75 Cr    12.551235    1.460849   16.768751    ( 0.0000,  0.0000,  2.0000)
  76 Ni     2.485776    1.461489   16.791235    ( 0.0000,  0.0000,  2.0000)
  77 Fe     4.988873    1.437953   16.800129    ( 0.0000,  0.0000,  0.0000)
  78 Fe     7.521264    1.441801   16.853904    ( 0.0000,  0.0000,  2.1000)
  79 Fe    10.041408    1.441801   16.816508    ( 0.0000,  0.0000,  0.0000)
  80 Co    13.786651    3.599104   16.753634    ( 0.0000,  0.0000,  2.1000)
  81 Ni     3.751487    3.571785   16.825197    ( 0.0000,  0.0000,  0.0000)
  82 Ni     6.255931    3.593012   16.814131    ( 0.0000,  0.0000,  1.5000)
  83 Al     8.779489    3.570907   16.858483    ( 0.0000,  0.0000,  2.0000)
  84 Cr    11.301319    3.615409   16.751961    ( 0.0000,  0.0000,  1.5000)
  85 Co    14.996321    5.774306   16.825755    ( 0.0000,  0.0000,  1.5000)
  86 Ni     4.982905    5.789733   16.828220    ( 0.0000,  0.0000,  0.0000)
  87 Co     7.569540    5.790156   16.758477    ( 0.0000,  0.0000,  0.0000)
  88 Cr    10.026136    5.746347   16.763908    ( 0.0000,  0.0000,  0.0000)
  89 Al    12.543367    5.747160   16.772185    ( 0.0000,  0.0000,  2.1000)
  90 Fe    16.270128    7.958744   16.878796    ( 0.0000,  0.0000,  2.0000)
  91 Al     6.261908    7.982584   16.782048    ( 0.0000,  0.0000,  2.1000)
  92 Co     8.742457    7.968610   16.764142    ( 0.0000,  0.0000,  2.1000)
  93 Fe    11.277906    7.926015   16.857984    ( 0.0000,  0.0000,  0.0000)
  94 Co    13.798645    7.959796   16.862475    ( 0.0000,  0.0000,  1.5000)
  95 Co    17.564450   10.140147   16.843601    ( 0.0000,  0.0000,  1.5000)
  96 Ni     7.506508   10.131539   16.775003    ( 0.0000,  0.0000,  1.5000)
  97 Co     9.982830   10.139106   16.778819    ( 0.0000,  0.0000,  1.5000)
  98 Co    12.538883   10.154728   16.858689    ( 0.0000,  0.0000,  2.0000)
  99 Cr    15.023737   10.130021   16.876066    ( 0.0000,  0.0000,  2.1000)
 100 Al     0.021688    0.020369   18.796081    ( 0.0000,  0.0000,  2.1000)
 101 Fe     2.494821    0.007467   18.769576    ( 0.0000,  0.0000,  2.1000)
 102 Cr     4.985998    0.002849   18.819329    ( 0.0000,  0.0000,  0.0000)
 103 Cr    13.754781   10.818030   18.872752    ( 0.0000,  0.0000,  2.1000)
 104 Co    16.317444   10.810593   18.850326    ( 0.0000,  0.0000,  1.5000)
 105 Ni     1.256161    2.173586   18.792882    ( 0.0000,  0.0000,  2.0000)
 106 Fe     3.725304    2.151503   18.833213    ( 0.0000,  0.0000,  2.0000)
 107 Fe     6.222195    2.156804   18.811081    ( 0.0000,  0.0000,  2.1000)
 108 Ni     8.770579    2.162528   19.045201    ( 0.0000,  0.0000,  0.0000)
 109 Ni    11.307466    2.180958   18.775534    ( 0.0000,  0.0000,  2.0000)
 110 Al     2.502140    4.316579   18.803537    ( 0.0000,  0.0000,  2.0000)
 111 Cr     4.984546    4.312123   18.946281    ( 0.0000,  0.0000,  0.0000)
 112 Fe     7.501088    4.367044   18.820386    ( 0.0000,  0.0000,  0.0000)
 113 Fe    10.059972    4.352084   18.800162    ( 0.0000,  0.0000,  2.0000)
 114 Fe    12.539763    4.316026   18.767286    ( 0.0000,  0.0000,  2.1000)
 115 Ni    16.262819    6.510059   18.894150    ( 0.0000,  0.0000,  2.0000)
 116 Cr     6.269967    6.534842   18.850238    ( 0.0000,  0.0000,  1.5000)
 117 Ni     8.788984    6.511186   18.794614    ( 0.0000,  0.0000,  1.5000)
 118 Fe    11.281904    6.480051   18.877595    ( 0.0000,  0.0000,  2.1000)
 119 Ni    13.777508    6.479303   18.838585    ( 0.0000,  0.0000,  0.0000)
 120 Co     5.014689    8.654765   18.845336    ( 0.0000,  0.0000,  2.0000)
 121 Ni     7.516337    8.678810   18.792882    ( 0.0000,  0.0000,  2.1000)
 122 Al     9.994976    8.686659   18.888573    ( 0.0000,  0.0000,  1.5000)
 123 Ni    12.542280    8.675037   18.940675    ( 0.0000,  0.0000,  0.0000)
 124 Cr    15.038373    8.673617   18.869083    ( 0.0000,  0.0000,  2.1000)

Unit cell:
           periodic     x           y           z      points  spacing
  1. axis:    yes   12.530300    0.000000    0.000000    56     0.1938
  2. axis:    yes    6.259130   10.841100    0.000000    56     0.1936
  3. axis:    no     0.000000    0.000000   29.353100   128     0.2293

  Lengths:  12.530300  12.518233  29.353100
  Angles:   90.000000  90.000000  59.999929

Effective grid spacing dv^(1/3) = 0.2150

     iter     time        total  log10-change:  magmom
                         energy  eigst   dens
iter:   1 20:32:50 -1066.102670                  +158.1922
iter:   2 20:36:15 -1145.099431  -0.25  -1.20    +123.3591
iter:   3 20:39:38 -1950.991357  +0.15  -1.09    +97.3375
iter:   4 20:43:02 -1047.572670  -0.17  -0.79    +69.8685
iter:   5 20:46:26  -974.478911  -1.18  -1.20    +54.4367
iter:   6 20:49:50  -969.986651  -1.59  -1.34    +49.4250
iter:   7 20:53:13  -961.115730  -1.81  -1.34    +48.2093
iter:   8 20:56:37  -953.362454  -1.75  -1.39    +47.6964
iter:   9 21:00:02 -1053.353909  -1.30  -1.43    +48.3431
iter:  10 21:03:20  -966.430067  -1.41  -1.16    +47.0184
iter:  11 21:06:43  -958.591875  -1.67  -1.40    +46.4174
iter:  12 21:10:07  -946.401285  -1.54  -1.48    +47.5300
iter:  13 21:13:30  -973.259664  -1.70  -1.64    +48.6803
iter:  14 21:16:54  -949.421520  -1.80  -1.44    +49.6349
iter:  15 21:20:18  -964.219932  -1.86  -1.63    +49.9647
iter:  16 21:23:42  -944.703507  -1.94  -1.54    +50.3606
iter:  17 21:27:05  -947.421101  -2.48  -1.75    +51.1867
iter:  18 21:30:29  -943.085516  -2.79  -1.69    +53.0600
iter:  19 21:33:53  -943.469866  -2.74  -1.82    +55.5525
iter:  20 21:37:17  -967.788267  -1.94  -1.86    +57.0709
iter:  21 21:40:42  -957.355832  -1.91  -1.52    +57.8444
iter:  22 21:44:02  -944.632481  -2.31  -1.63    +56.4651
iter:  23 21:47:23  -944.550240  -2.65  -1.92    +58.6098
iter:  24 21:50:47  -945.173282  -2.62  -1.99    +60.3074
iter:  25 21:54:11  -943.786802  -3.06  -1.96    +61.6364
iter:  26 21:57:35  -944.133998  -3.17  -2.08    +63.9603
iter:  27 22:00:59  -945.400781  -2.81  -2.12    +66.5461
iter:  28 22:04:22  -952.620023  -2.49  -2.13    +66.4389
iter:  29 22:07:46  -947.960991  -2.54  -1.77    +67.1480
iter:  30 22:11:09  -946.225409  -2.80  -1.97    +68.1814
iter:  31 22:14:32  -946.053821  -2.90  -2.20    +69.0460
iter:  32 22:17:56  -946.151201  -2.99  -2.32    +69.6325
iter:  33 22:21:19  -946.042641c -3.38  -2.29    +70.4734
iter:  34 22:24:43  -946.293136  -3.40  -2.37    +71.9003
iter:  35 22:28:06  -946.338023  -3.79  -2.40    +72.4788
iter:  36 22:31:30  -946.696958  -3.23  -2.45    +74.1706
iter:  37 22:34:48  -946.984770  -3.00  -2.48    +75.9233
iter:  38 22:38:11  -947.143415  -3.53  -2.51    +75.9035
iter:  39 22:41:35  -947.594728  -3.27  -2.44    +76.1340
iter:  40 22:44:59  -947.061821  -3.59  -2.30    +76.1454
iter:  41 22:48:22  -947.162502  -3.71  -2.62    +76.2862
iter:  42 22:51:46  -947.091128c -3.75  -2.58    +76.3025
iter:  43 22:55:06  -947.112272c -3.91  -2.70    +76.4212
iter:  44 22:58:30  -947.150562c -3.99  -2.71    +76.5850
iter:  45 23:01:53  -947.158658c -4.20  -2.69    +76.6404
iter:  46 23:05:17  -947.115046c -4.45  -2.68    +76.7898
iter:  47 23:08:40  -947.141625c -4.50  -2.82    +76.9132
iter:  48 23:12:04  -947.184445c -4.17  -2.84    +77.0640
iter:  49 23:15:27  -947.241950c -3.98  -2.86    +77.0929
iter:  50 23:18:51  -947.216198c -4.20  -2.78    +77.1502
iter:  51 23:22:15  -947.550575  -3.90  -2.92    +77.2018
iter:  52 23:25:39  -947.230934  -4.13  -2.47    +77.2490
iter:  53 23:29:03  -947.268904  -4.31  -3.08    +77.3264
iter:  54 23:32:27  -947.256407c -4.84  -3.09    +77.3152
iter:  55 23:35:45  -947.298824c -4.54  -3.19    +77.4665
iter:  56 23:39:09  -947.260632c -4.96  -3.17    +77.3276
iter:  57 23:42:33  -947.219917c -4.38  -3.19    +77.0312
iter:  58 23:45:56  -947.350759  -3.93  -3.19    +76.6549
iter:  59 23:49:20  -947.230368  -4.25  -2.64    +76.9692
iter:  60 23:52:44  -947.235247  -4.99  -3.25    +76.9522
iter:  61 23:56:08  -947.271165c -4.58  -3.31    +77.0217
iter:  62 23:59:31  -947.242722c -5.09  -3.15    +76.9614
iter:  63 00:02:48  -947.212792c -4.61  -3.23    +76.8586
iter:  64 00:06:13  -947.240909c -4.85  -3.43    +77.0056
iter:  65 00:09:37  -947.243035c -5.15  -3.40    +76.9426
iter:  66 00:13:00  -947.272706c -4.54  -3.15    +77.2087
iter:  67 00:16:24  -947.269337c -5.52  -3.42    +77.1822
iter:  68 00:19:49  -947.302229c -4.58  -3.41    +77.3405
iter:  69 00:23:09  -947.302123c -5.02  -3.24    +77.3363
iter:  70 00:26:33  -947.333127c -4.57  -3.09    +77.4833
iter:  71 00:29:57  -947.340536c -4.97  -3.07    +77.5703
iter:  72 00:33:20  -947.344688c -4.68  -3.29    +77.6386
iter:  73 00:36:44  -947.601154  -4.02  -3.24    +77.8383
iter:  74 00:40:06  -947.393366  -4.43  -2.58    +77.8031
iter:  75 00:43:25  -947.446911  -4.31  -3.08    +78.0278
iter:  76 00:46:49  -947.361290c -3.92  -3.08    +77.6929
iter:  77 00:50:13  -947.348539c -3.90  -3.20    +77.5649
iter:  78 00:53:36  -947.411476c -4.17  -2.97    +77.8458
iter:  79 00:57:00  -947.405439c -4.40  -3.04    +77.7895
iter:  80 01:00:22  -947.472719c -4.03  -2.86    +78.1244
iter:  81 01:03:43  -947.534150  -4.42  -3.26    +78.3344
iter:  82 01:07:07  -947.455218c -4.31  -3.19    +78.0512
iter:  83 01:10:31  -947.648639  -4.00  -3.15    +78.4766
iter:  84 01:13:55  -947.551001  -4.88  -2.79    +78.3567
iter:  85 01:17:18  -947.678669  -4.13  -3.17    +78.6900
iter:  86 01:20:37  -947.625386  -4.55  -2.90    +78.6303
iter:  87 01:24:00  -947.687155c -4.38  -3.14    +78.8614
iter:  88 01:27:23  -947.743670  -4.28  -3.06    +79.1136
iter:  89 01:30:47  -947.826260  -4.24  -3.04    +79.3687
iter:  90 01:34:10  -947.916182  -4.21  -2.82    +79.5347
iter:  91 01:37:34  -947.924638c -4.55  -2.68    +79.6264
iter:  92 01:40:58  -948.127253  -3.99  -2.69    +79.8137
iter:  93 01:44:21  -947.965527  -4.06  -2.49    +79.7569
iter:  94 01:47:41  -947.962871  -4.21  -2.68    +79.8151
iter:  95 01:51:05  -951.576291  -2.90  -2.74    +79.8344
iter:  96 01:54:28  -947.844787  -3.25  -1.95    +79.7961
iter:  97 01:57:52  -947.851352  -3.87  -2.84    +79.7429
iter:  98 02:01:15  -947.880786c -4.09  -2.81    +79.7427
iter:  99 02:04:36  -947.819465c -4.40  -2.73    +79.7397
iter: 100 02:07:59  -947.813141c -4.74  -3.00    +79.7321
iter: 101 02:11:22  -947.820615c -4.59  -3.02    +79.7205
iter: 102 02:14:46  -947.900674c -4.37  -3.03    +79.7559
iter: 103 02:18:09  -947.908564c -4.10  -2.70    +79.7947
iter: 104 02:21:33  -947.830367c -4.39  -2.73    +79.7709
iter: 105 02:24:54  -947.852894c -4.15  -3.04    +79.8485
iter: 106 02:28:17  -947.824867c -4.45  -2.94    +79.8502
iter: 107 02:31:41  -947.813125c -4.74  -3.08    +79.8937
iter: 108 02:35:04  -947.840696c -5.03  -3.17    +79.9007
iter: 109 02:38:28  -947.809145c -5.31  -2.96    +79.8994
iter: 110 02:41:51  -947.810525c -5.79  -3.31    +79.9544
iter: 111 02:45:14  -947.813344c -5.42  -3.32    +79.9749
iter: 112 02:48:36  -947.814794c -5.27  -3.27    +79.9825
iter: 113 02:51:55  -947.824382c -4.91  -3.26    +79.9918
iter: 114 02:55:19  -948.079737  -4.07  -3.14    +80.0121
iter: 115 02:58:42  -947.823755  -4.29  -2.51    +80.0353
iter: 116 03:02:06  -947.812047  -4.84  -3.14    +79.9992
iter: 117 03:05:30  -947.810965c -5.36  -3.38    +80.0163
iter: 118 03:08:52  -947.810163c -5.47  -3.44    +80.0488
iter: 119 03:12:12  -947.808722c -6.13  -3.47    +80.0602
iter: 120 03:15:35  -947.823204c -5.56  -3.56    +80.0629
iter: 121 03:18:59  -947.813591c -5.20  -3.16    +80.0642
iter: 122 03:22:23  -947.813355c -5.16  -3.27    +80.0847
iter: 123 03:25:46  -947.809117c -5.41  -3.45    +80.0751
iter: 124 03:29:08  -947.810597c -5.38  -3.74    +80.0709
iter: 125 03:32:29  -947.808983c -5.66  -3.49    +80.0764
iter: 126 03:35:54  -947.809807c -6.08  -3.75    +80.1015
iter: 127 03:39:17  -947.809053c -6.10  -3.54    +80.1045
iter: 128 03:42:41  -947.808590c -6.75  -3.80    +80.1049
iter: 129 03:46:04  -947.808516c -6.79  -3.94    +80.1120
iter: 130 03:49:28  -947.809298c -6.50  -4.02c   +80.1156
iter: 131 03:52:46  -947.808553c -6.28  -3.90    +80.1168
iter: 132 03:56:11  -947.810148c -6.24  -3.97    +80.1168
iter: 133 03:59:35  -947.809582c -5.95  -3.67    +80.1199
iter: 134 04:03:00  -947.808583c -6.47  -3.58    +80.1313
iter: 135 04:06:25  -947.808663c -6.58  -4.14c   +80.1302
iter: 136 04:09:47  -947.808444c -7.16  -4.25c   +80.1354
iter: 137 04:13:13  -947.808587c -7.37  -4.27c   +80.1417
iter: 138 04:16:39  -947.808579c -7.46c -4.41c   +80.1481

Converged after 138 iterations.

Dipole moment: (46.254431, 33.038545, 0.013437) |e|*Ang

Total magnetic moment: (0.000000, 0.000000, 80.148100)
Local magnetic moments:
   0 Fe ( 0.000000,  0.000000, -2.100470)
   1 Cr ( 0.000000,  0.000000, -2.041040)
   2 Fe ( 0.000000,  0.000000,  2.173574)
   3 Fe ( 0.000000,  0.000000,  2.510492)
   4 Cr ( 0.000000,  0.000000, -1.971748)
   5 Fe ( 0.000000,  0.000000,  2.244857)
   6 Fe ( 0.000000,  0.000000,  2.468762)
   7 Al ( 0.000000,  0.000000, -0.059594)
   8 Co ( 0.000000,  0.000000,  1.299827)
   9 Cr ( 0.000000,  0.000000, -1.893774)
  10 Ni ( 0.000000,  0.000000,  0.453687)
  11 Cr ( 0.000000,  0.000000, -2.525050)
  12 Fe ( 0.000000,  0.000000,  2.431709)
  13 Co ( 0.000000,  0.000000,  1.432158)
  14 Ni ( 0.000000,  0.000000,  0.471403)
  15 Co ( 0.000000,  0.000000,  1.132200)
  16 Cr ( 0.000000,  0.000000,  2.242960)
  17 Ni ( 0.000000,  0.000000,  0.389461)
  18 Al ( 0.000000,  0.000000, -0.060195)
  19 Fe ( 0.000000,  0.000000,  2.684157)
  20 Al ( 0.000000,  0.000000, -0.009004)
  21 Ni ( 0.000000,  0.000000,  0.027226)
  22 Cr ( 0.000000,  0.000000,  2.005243)
  23 Ni ( 0.000000,  0.000000,  0.367510)
  24 Fe ( 0.000000,  0.000000,  2.462612)
  25 Co ( 0.000000,  0.000000, -0.016196)
  26 Co ( 0.000000,  0.000000,  0.715174)
  27 Cr ( 0.000000,  0.000000, -1.775974)
  28 Fe ( 0.000000,  0.000000,  2.214992)
  29 Fe ( 0.000000,  0.000000,  2.059601)
  30 Cr ( 0.000000,  0.000000, -0.055205)
  31 Ni ( 0.000000,  0.000000,  0.205644)
  32 Fe ( 0.000000,  0.000000,  2.375333)
  33 Co ( 0.000000,  0.000000,  1.410940)
  34 Cr ( 0.000000,  0.000000,  0.625139)
  35 Ni ( 0.000000,  0.000000,  0.308913)
  36 Ni ( 0.000000,  0.000000,  0.297913)
  37 Ni ( 0.000000,  0.000000,  0.471207)
  38 Co ( 0.000000,  0.000000,  1.204321)
  39 Fe ( 0.000000,  0.000000,  1.796725)
  40 Co ( 0.000000,  0.000000,  1.367535)
  41 Co ( 0.000000,  0.000000,  0.992353)
  42 Co ( 0.000000,  0.000000,  1.595869)
  43 Fe ( 0.000000,  0.000000,  2.178442)
  44 Ni ( 0.000000,  0.000000,  0.445804)
  45 Cr ( 0.000000,  0.000000, -1.953136)
  46 Fe ( 0.000000,  0.000000,  2.300071)
  47 Co ( 0.000000,  0.000000,  1.170303)
  48 Fe ( 0.000000,  0.000000,  2.093766)
  49 Al ( 0.000000,  0.000000, -0.055895)
  50 Cr ( 0.000000,  0.000000,  0.158448)
  51 Ni ( 0.000000,  0.000000,  0.239368)
  52 Co ( 0.000000,  0.000000,  0.935384)
  53 Co ( 0.000000,  0.000000,  1.221654)
  54 Cr ( 0.000000,  0.000000, -1.321408)
  55 Cr ( 0.000000,  0.000000,  0.133000)
  56 Al ( 0.000000,  0.000000, -0.035550)
  57 Ni ( 0.000000,  0.000000,  0.335670)
  58 Co ( 0.000000,  0.000000,  0.869687)
  59 Cr ( 0.000000,  0.000000, -0.139319)
  60 Fe ( 0.000000,  0.000000,  2.129658)
  61 Cr ( 0.000000,  0.000000,  1.356875)
  62 Co ( 0.000000,  0.000000,  1.007338)
  63 Cr ( 0.000000,  0.000000, -0.051114)
  64 Cr ( 0.000000,  0.000000, -1.178211)
  65 Ni ( 0.000000,  0.000000,  0.287067)
  66 Cr ( 0.000000,  0.000000, -1.925007)
  67 Ni ( 0.000000,  0.000000,  0.235496)
  68 Co ( 0.000000,  0.000000,  0.936110)
  69 Co ( 0.000000,  0.000000,  1.260842)
  70 Fe ( 0.000000,  0.000000,  2.106083)
  71 Co ( 0.000000,  0.000000,  1.268993)
  72 Al ( 0.000000,  0.000000, -0.028513)
  73 Cr ( 0.000000,  0.000000,  1.314174)
  74 Ni ( 0.000000,  0.000000,  0.309239)
  75 Cr ( 0.000000,  0.000000,  0.841800)
  76 Ni ( 0.000000,  0.000000,  0.438603)
  77 Fe ( 0.000000,  0.000000,  2.220769)
  78 Fe ( 0.000000,  0.000000,  2.200105)
  79 Fe ( 0.000000,  0.000000,  1.941729)
  80 Co ( 0.000000,  0.000000,  0.903008)
  81 Ni ( 0.000000,  0.000000,  0.315331)
  82 Ni ( 0.000000,  0.000000,  0.380405)
  83 Al ( 0.000000,  0.000000, -0.038020)
  84 Cr ( 0.000000,  0.000000, -0.487275)
  85 Co ( 0.000000,  0.000000,  1.164041)
  86 Ni ( 0.000000,  0.000000,  0.312607)
  87 Co ( 0.000000,  0.000000,  0.345963)
  88 Cr ( 0.000000,  0.000000, -1.254365)
  89 Al ( 0.000000,  0.000000, -0.031147)
  90 Fe ( 0.000000,  0.000000,  2.374237)
  91 Al ( 0.000000,  0.000000, -0.036423)
  92 Co ( 0.000000,  0.000000,  1.236926)
  93 Fe ( 0.000000,  0.000000,  2.394943)
  94 Co ( 0.000000,  0.000000,  1.111552)
  95 Co ( 0.000000,  0.000000,  1.071385)
  96 Ni ( 0.000000,  0.000000,  0.342659)
  97 Co ( 0.000000,  0.000000,  1.285243)
  98 Co ( 0.000000,  0.000000,  0.838381)
  99 Cr ( 0.000000,  0.000000, -0.182074)
 100 Al ( 0.000000,  0.000000, -0.038870)
 101 Fe ( 0.000000,  0.000000,  2.440543)
 102 Cr ( 0.000000,  0.000000, -2.263316)
 103 Cr ( 0.000000,  0.000000, -1.899200)
 104 Co ( 0.000000,  0.000000,  1.146809)
 105 Ni ( 0.000000,  0.000000,  0.361643)
 106 Fe ( 0.000000,  0.000000,  2.378538)
 107 Fe ( 0.000000,  0.000000,  2.299724)
 108 Ni ( 0.000000,  0.000000,  0.530702)
 109 Ni ( 0.000000,  0.000000,  0.298966)
 110 Al ( 0.000000,  0.000000, -0.033669)
 111 Cr ( 0.000000,  0.000000, -2.687131)
 112 Fe ( 0.000000,  0.000000,  2.526403)
 113 Fe ( 0.000000,  0.000000,  2.147529)
 114 Fe ( 0.000000,  0.000000,  2.378230)
 115 Ni ( 0.000000,  0.000000,  0.210844)
 116 Cr ( 0.000000,  0.000000,  2.403269)
 117 Ni ( 0.000000,  0.000000,  0.285390)
 118 Fe ( 0.000000,  0.000000,  2.444752)
 119 Ni ( 0.000000,  0.000000,  0.378503)
 120 Co ( 0.000000,  0.000000,  1.230048)
 121 Ni ( 0.000000,  0.000000,  0.352643)
 122 Al ( 0.000000,  0.000000, -0.042384)
 123 Ni ( 0.000000,  0.000000,  0.163142)
 124 Cr ( 0.000000,  0.000000, -2.111483)

Energy contributions relative to reference atoms: (reference = -4103091.665053)

Kinetic:       +291.437469
Potential:     -310.987081
External:        +0.000000
XC:            -966.237906
Entropy (-ST):   -5.321132
Local:          +40.639505
--------------------------
Free energy:   -950.469145
Extrapolated:  -947.808579

Dipole-layer corrected work functions: 4.929524, 4.911625 eV

Spin contamination: 37.264631 electrons
Showing all kpts
                      Up                     Down
 Kpt  Band  Eigenvalues  Occupancy  Eigenvalues  Occupancy
  0   566     -0.08062    0.99675      0.87784    0.02066
  0   567     -0.06559    0.99622      0.88742    0.01881
  0   568     -0.05928    0.99598      0.89707    0.01711
  0   569     -0.04717    0.99546      0.90919    0.01518

  1   566     -0.06331    0.99614      0.88201    0.01983
  1   567     -0.05733    0.99590      0.89617    0.01726
  1   568     -0.04973    0.99558      0.90038    0.01656
  1   569     -0.03778    0.99502      0.90732    0.01547


Fermi level: 0.49197

No gap

Forces in eV/Ang:
  0 Fe   -0.18511    0.18436    0.53108
  1 Cr    0.08099   -0.13680   -0.22965
  2 Fe    0.17416   -0.51023    0.00199
  3 Fe    0.05937   -0.62786    0.20312
  4 Cr   -0.24617    0.05766    0.16533
  5 Fe   -0.28149   -0.25194   -0.12015
  6 Fe   -0.18016    0.21248    0.15596
  7 Al    0.24937   -0.14937   -0.84844
  8 Co    0.23920   -0.02701    0.58374
  9 Cr    0.19929    0.12371    0.10487
 10 Ni   -0.01787    0.07687    0.11300
 11 Cr   -0.45674    0.90206    0.21348
 12 Fe    0.82863    0.06786    0.03498
 13 Co   -0.36418   -0.14138    0.27838
 14 Ni    0.00577   -0.07816    0.02190
 15 Co   -0.45075   -0.04058    0.59191
 16 Cr    0.08152   -0.02341   -0.10472
 17 Ni    0.03211   -0.20690    0.94353
 18 Al   -0.45387    0.01052   -1.40414
 19 Fe    0.28024    0.18303   -0.11048
 20 Al    0.56264    0.21213   -1.06053
 21 Ni   -0.10486    0.14644   -0.29927
 22 Cr   -0.19876   -0.02657   -0.29228
 23 Ni    0.17442    0.14446    0.84364
 24 Fe   -0.40754    0.14993   -0.00500
 25 Co   -0.08467   -0.04177    0.36667
 26 Co   -0.11880   -0.18240    0.29666
 27 Cr   -0.21376    0.50809   -0.62933
 28 Fe    0.32302    0.09465    0.34644
 29 Fe   -0.29193   -0.00354    0.93378
 30 Cr   -0.29319    0.12181   -0.08364
 31 Ni   -0.04482    0.21825    0.20735
 32 Fe    0.69886   -0.02024    0.80997
 33 Co    0.01595    0.15692    0.03567
 34 Cr   -0.41103   -0.02626   -0.06329
 35 Ni    0.20749    0.01981    0.35691
 36 Ni    0.00975    0.15479    0.49331
 37 Ni    0.01733   -0.42477    0.57491
 38 Co   -0.29468   -0.21821    0.04564
 39 Fe    0.22848    0.02102   -0.11849
 40 Co    0.55832    0.19725    0.12541
 41 Co   -0.56160    0.00106    0.14007
 42 Co   -0.11492    0.04310    0.25037
 43 Fe   -0.17715   -0.20223    0.32099
 44 Ni    0.27702    0.19661    0.47802
 45 Cr   -0.04863   -0.68137    0.85657
 46 Fe    0.05255    0.28389    0.23913
 47 Co   -0.15192    0.00512    0.58847
 48 Fe    0.18616    0.25565    0.45290
 49 Al    0.70819   -0.09841    0.91920
 50 Cr    0.23570   -0.44997   -0.42679
 51 Ni    0.15777   -0.41639   -0.02542
 52 Co    0.17437   -0.50730   -0.11549
 53 Co    0.02460   -0.37805   -0.51275
 54 Cr   -0.48572   -0.36697    0.03475
 55 Cr   -1.13483    0.08847    0.08186
 56 Al    0.51643   -0.18688   -0.34106
 57 Ni    0.33332   -0.08908   -0.93032
 58 Co   -0.16896   -0.11159   -0.48956
 59 Cr   -0.02305    0.18636    0.16183
 60 Fe   -0.13866    0.22227    0.29378
 61 Cr    0.35521    0.88901    0.09761
 62 Co    0.10041    0.10749   -0.16368
 63 Cr   -0.54754   -0.04214   -0.59258
 64 Cr    0.45568    0.09386   -0.31565
 65 Ni   -0.31519    0.30076   -0.42096
 66 Cr    0.50214   -0.27343   -0.38584
 67 Ni    0.08000    0.02523    0.50953
 68 Co    0.21504    0.14388    0.05879
 69 Co   -0.08832    0.16051   -0.16852
 70 Fe   -0.33916    0.26534   -0.51219
 71 Co    0.00368    0.08139   -0.03960
 72 Al   -0.54915   -0.51415    1.00495
 73 Cr    0.53415    0.13478    0.03285
 74 Ni    0.01761   -0.20796   -0.54584
 75 Cr   -0.00478    0.67808   -0.99381
 76 Ni    0.22155   -0.02667   -0.35981
 77 Fe    0.18982   -0.66927    0.13659
 78 Fe   -0.08236   -0.59500   -0.07771
 79 Fe   -0.01615   -0.28665    0.12538
 80 Co    0.15120   -0.25950   -0.45741
 81 Ni    0.02636    0.41713   -0.57809
 82 Ni   -0.14988    0.61152    0.15318
 83 Al   -0.88137   -0.10283   -0.81569
 84 Cr    0.00748   -0.70321    0.01815
 85 Co    0.63388    0.37878   -0.91116
 86 Ni    0.00768   -0.31899   -0.38135
 87 Co   -0.27082   -0.13800    0.05312
 88 Cr   -0.55137    0.79832   -0.20063
 89 Al    0.82769    1.14567   -0.10712
 90 Fe   -0.32403   -0.19734   -0.36288
 91 Al   -0.07724   -0.22885   -0.20332
 92 Co    0.64144   -0.12556   -0.57097
 93 Fe   -0.10764    0.16623   -0.99847
 94 Co   -0.24510    0.41182   -0.16477
 95 Co   -0.79320   -0.02216   -0.81078
 96 Ni    0.44174    0.25537   -0.50228
 97 Co   -0.04814   -0.21434   -0.30956
 98 Co   -0.10929   -0.25332    0.08475
 99 Cr    0.30126    0.14865   -0.20638
100 Al   -0.28144   -0.40882    1.51382
101 Fe    0.62919    0.07210    0.13836
102 Cr   -0.09031    0.71064   -0.11555
103 Cr    0.56015    0.64683   -0.11558
104 Co   -0.54083    0.30226   -0.43969
105 Ni    0.01903   -0.01405    0.18224
106 Fe    0.04887   -0.07471    0.14038
107 Fe    0.45979   -0.46543    0.24911
108 Ni    0.07054    0.01588   -0.86593
109 Ni   -0.41449   -0.01001    0.47636
110 Al   -0.75458    0.39312    0.85494
111 Cr    1.21433   -0.02591   -0.27171
112 Fe    0.23348   -0.19834    0.42598
113 Fe    0.21398   -0.08460    0.23668
114 Fe   -0.56876   -0.29599    0.52392
115 Ni    0.19246   -0.10060   -0.17165
116 Cr   -0.20922   -0.12914    0.44126
117 Ni   -0.07502   -0.03170   -0.08551
118 Fe    0.17043   -0.02571    0.17698
119 Ni   -0.28001    0.16167    0.09368
120 Co   -0.29908    0.16605   -0.12054
121 Ni    0.07459    0.11395    0.22848
122 Al   -0.30675   -0.80281    0.64736
123 Ni   -0.13475   -0.15692   -0.59613
124 Cr    0.26919   -0.41366    0.15958

Timing:                              incl.     excl.
-----------------------------------------------------------
Forces:                             44.819    44.819   0.2% |
Hamiltonian:                         1.747     0.015   0.0% |
 Atomic:                             0.429     0.001   0.0% |
  XC Correction:                     0.427     0.427   0.0% |
 Calculate atomic Hamiltonians:      0.626     0.626   0.0% |
 Communicate:                        0.080     0.080   0.0% |
 Initialize Hamiltonian:             0.001     0.001   0.0% |
 Poisson:                            0.122     0.122   0.0% |
 XC 3D grid:                         0.474     0.474   0.0% |
LCAO initialization:               367.573     0.631   0.0% |
 LCAO eigensolver:                  24.772     0.019   0.0% |
  Calculate projections:             0.000     0.000   0.0% |
  DenseAtomicCorrection:             0.000     0.000   0.0% |
  Distribute overlap matrix:        12.037    12.037   0.0% |
  Orbital Layouts:                  12.653    12.653   0.0% |
  Potential matrix:                  0.006     0.006   0.0% |
  Sum over cells:                    0.056     0.056   0.0% |
 LCAO to grid:                     339.192   339.192   1.2% |
 Set positions (LCAO WFS):           2.978     2.596   0.0% |
  Basic WFS set positions:           0.004     0.004   0.0% |
  Basis functions set positions:     0.001     0.001   0.0% |
  P tci:                             0.001     0.001   0.0% |
  ST tci:                            0.152     0.152   0.0% |
  mktci:                             0.225     0.225   0.0% |
PWDescriptor:                        0.124     0.124   0.0% |
SCF-cycle:                       28048.657     1.224   0.0% |
 Davidson:                       27423.191  7121.043  25.0% |---------|
  Apply H:                         525.203   516.120   1.8% ||
   HMM T:                            9.082     9.082   0.0% |
  Subspace diag:                  2562.844     0.082   0.0% |
   calc_h_matrix:                 1113.053   638.528   2.2% ||
    Apply H:                       474.525   465.004   1.6% ||
     HMM T:                          9.521     9.521   0.0% |
   diagonalize:                    242.443   242.443   0.9% |
   rotate_psi:                    1207.266  1207.266   4.2% |-|
  calc. matrices:                 5927.938  4999.274  17.6% |------|
   Apply H:                        928.664   910.317   3.2% ||
    HMM T:                          18.347    18.347   0.1% |
  diagonalize:                    8708.162  8708.162  30.6% |-----------|
  rotate_psi:                     2578.001  2578.001   9.1% |---|
 Density:                          370.923     0.007   0.0% |
  Atomic density matrices:           4.454     4.454   0.0% |
  Mix:                             131.292   131.292   0.5% |
  Multipole moments:                 0.144     0.144   0.0% |
  Pseudo density:                  235.026   235.018   0.8% |
   Symmetrize density:               0.008     0.008   0.0% |
 Hamiltonian:                      232.880     2.347   0.0% |
  Atomic:                           60.653     0.232   0.0% |
   XC Correction:                   60.421    60.421   0.2% |
  Calculate atomic Hamiltonians:    86.832    86.832   0.3% |
  Communicate:                      10.288    10.288   0.0% |
  Poisson:                           6.426     6.426   0.0% |
  XC 3D grid:                       66.333    66.333   0.2% |
 Orthonormalize:                    20.440     0.001   0.0% |
  calc_s_matrix:                     2.577     2.577   0.0% |
  inverse-cholesky:                  1.067     1.067   0.0% |
  projections:                      12.437    12.437   0.0% |
  rotate_psi_s:                      4.358     4.358   0.0% |
Set symmetry:                        0.001     0.001   0.0% |
Other:                               8.722     8.722   0.0% |
-----------------------------------------------------------
Total:                                     28471.644 100.0%

Date: Wed Apr 19 04:17:28 2023
