
  ___ ___ ___ _ _ _  
 |   |   |_  | | | | 
 | | | | | . | | | | 
 |__ |  _|___|_____|  22.8.0
 |___|_|             

User:   c.zeng@d0029
Date:   Sun Apr 16 17:40:22 2023
Arch:   x86_64
Pid:    3522
CWD:    /home/c.zeng/projects/hea-corrosion/hea-mlp/data-curation/surface-md/dft-jobs/0
Python: 3.8.1
gpaw:   /home/c.zeng/usr/installs/gpaw/source/gpaw-22.8.0/gpaw
_gpaw:  /home/c.zeng/usr/installs/gpaw/source/gpaw-22.8.0/
        _gpaw.cpython-38-x86_64-linux-gnu.so
ase:    /home/c.zeng/.local/lib/python3.8/site-packages/ase-3.22.1-py3.8.egg/ase (version 3.22.1)
numpy:  /home/c.zeng/.local/lib/python3.8/site-packages/numpy (version 1.24.2)
scipy:  /home/c.zeng/.local/lib/python3.8/site-packages/scipy (version 1.10.1)
libxc:  4.2.3
units:  Angstrom and eV
cores: 30
OpenMP: False
OMP_NUM_THREADS: 1

Input parameters:
  convergence: {energy: 0.0001}
  kpts: [2 2 1]
  maxiter: 666
  mode: {ecut: 350.0,
         name: pw}
  occupations: {fixmagmom: False,
                name: fermi-dirac,
                width: 0.1}
  poissonsolver: {dipolelayer: xy}
  spinpol: True
  symmetry: {point_group: False}
  xc: PBE

System changes: positions, numbers, cell, pbc, initial_charges, initial_magmoms 

Initialize ...

species:
  Cr:
    name: Chromium
    id: 33f258bda2ca9f93018e70263a35547b
    Z: 24.0
    valence: 6
    core: 18
    charge: 0.0
    file: /home/c.zeng/usr/data/gpaw-setups-0.9.20000/Cr.PBE.gz
    compensation charges: {type: gauss,
                           rc: 0.35,
                           lmax: 2}
    cutoffs: {filter: 2.14,
              core: 3.04}
    valence states:
      #              energy  rcut
      - 4s(1.00)    -4.007   1.164
      - 4p(0.00)    -0.989   1.217
      - 3d(5.00)    -2.913   1.111
      -  s          23.205   1.164
      -  p          26.223   1.217
      -  d          24.299   1.111
  
    # Using partial waves for Cr as LCAO basis

  Fe:
    name: Iron
    id: 37abbd8d6c3c35915a9b583b742da910
    Z: 26.0
    valence: 8
    core: 18
    charge: 0.0
    file: /home/c.zeng/usr/data/gpaw-setups-0.9.20000/Fe.PBE.gz
    compensation charges: {type: gauss,
                           rc: 0.33,
                           lmax: 2}
    cutoffs: {filter: 2.06,
              core: 2.67}
    valence states:
      #              energy  rcut
      - 4s(2.00)    -5.291   1.164
      - 4p(0.00)    -1.326   1.058
      - 3d(6.00)    -7.505   1.058
      -  s          21.920   1.164
      -  p          25.885   1.058
      -  d          19.706   1.058
  
    # Using partial waves for Fe as LCAO basis

  Ni:
    name: Nickel
    id: 0d9f38a9d6e76a2886f07bb4381f212b
    Z: 28.0
    valence: 16
    core: 12
    charge: 0.0
    file: /home/c.zeng/usr/data/gpaw-setups-0.9.20000/Ni.PBE.gz
    compensation charges: {type: gauss,
                           rc: 0.36,
                           lmax: 2}
    cutoffs: {filter: 2.14,
              core: 1.98}
    valence states:
      #              energy  rcut
      - 4s(2.00)    -5.642   1.164
      - 3p(6.00)   -71.394   1.207
      - 4p(0.00)    -1.226   1.207
      - 3d(8.00)    -8.875   1.138
      -  s          21.570   1.164
      -  d          18.337   1.138
  
    # Using partial waves for Ni as LCAO basis

  Co:
    name: Cobalt
    id: 339d20d5b0b93d2de9531a1bee871d91
    Z: 27.0
    valence: 9
    core: 18
    charge: 0.0
    file: /home/c.zeng/usr/data/gpaw-setups-0.9.20000/Co.PBE.gz
    compensation charges: {type: gauss,
                           rc: 0.32,
                           lmax: 2}
    cutoffs: {filter: 1.87,
              core: 2.55}
    valence states:
      #              energy  rcut
      - 4s(2.00)    -5.469   1.005
      - 4p(0.00)    -1.277   1.058
      - 3d(7.00)    -8.205   1.005
      -  s          21.742   1.005
      -  p          25.934   1.058
      -  d          19.007   1.005
  
    # Using partial waves for Co as LCAO basis

Reference energy: -4451268.207082  # eV

Spin-polarized calculation.
Magnetic moment: 175.600000

Convergence criteria:
 Maximum [total energy] change in last 3 cyles: 0.0001 eV / electron
 Maximum integral of absolute [dens]ity change: 0.0001 electrons / valence electron
 Maximum integral of absolute [eigenst]ate change: 4e-08 eV^2 / valence electron
 Maximum number of scf [iter]ations: 666
 (Square brackets indicate name in SCF output, whereas a 'c' in
 the SCF output indicates the quantity has converged.)

Symmetries present (total): 1

  ( 1  0  0)
  ( 0  1  0)
  ( 0  0  1)

4 k-points: 2 x 2 x 1 Monkhorst-Pack grid
2 k-points in the irreducible part of the Brillouin zone
       k-points in crystal coordinates                weights
   0:     0.25000000   -0.25000000    0.00000000          2/4
   1:     0.25000000    0.25000000    0.00000000          2/4

Wave functions: Plane wave expansion
  Cutoff energy: 350.000 eV
  Number of coefficients (min, max): 58495, 58567
  Pulay-stress correction: 0.000000 eV/Ang^3 (de/decut=0.000000)
  Using FFTW library
  ScaLapack parameters: grid=1x1, blocksize=None
  Wavefunction extrapolation:
    Improved wavefunction reuse through dual PAW basis 

Occupation numbers: Fermi-Dirac:
  width: 0.1000  # eV
 

Eigensolver
   Davidson(niter=2) 

Densities:
  Coarse grid: 54*54*128 grid
  Fine grid: 108*108*256 grid
  Total Charge: 0.000000 

Density mixing:
  Method: difference
  Backend: pulay
  Linear mixing parameter: 0.05
  old densities: 5
  Damping of long wavelength oscillations: 50 

Hamiltonian:
  XC and Coulomb potentials evaluated on a 108*108*256 grid
  Using the PBE Exchange-Correlation functional
  External potential:
    NoExternalPotential
 

XC parameters: PBE with 2 nearest neighbor stencil

Memory estimate:
  Process memory now: 367.93 MiB
  Calculator: 2405.48 MiB
    Density: 16.73 MiB
      Arrays: 6.75 MiB
      Localized functions: 7.29 MiB
      Mixer: 2.70 MiB
    Hamiltonian: 5.22 MiB
      Arrays: 5.01 MiB
      XC: 0.00 MiB
      Poisson: 0.00 MiB
      vbar: 0.21 MiB
    Wavefunctions: 2383.52 MiB
      Arrays psit_nG: 1501.35 MiB
      Eigensolver: 862.84 MiB
      Projections: 3.85 MiB
      Projectors: 0.98 MiB
      PW-descriptor: 14.51 MiB

Total number of cores used: 30
Parallelization over k-points: 2
Domain decomposition: 1 x 3 x 5

Number of atoms: 125
Number of atomic orbitals: 1218
Number of bands in calculation: 840
Number of valence electrons: 1217
Bands to converge: occupied

... initialized

Initializing position-dependent things.

Density initialized from atomic densities
Creating initial wave functions:
  840 bands from LCAO basis set

                                                                  
                                                                  
                                                                  
                                                                  
                                   Co    Ni                       
                                                      Co          
                         Ni    Ni    Co    Cr    Cr               
                    Cr     Ni   CCr   FCo   CCr         Co        
                Co    Ni    Ni     Ni    Cr       Fe              
                        Fe  CoNi  NiCr  Fe    Fe    Fe            
            Co    Ni   Ni   CCo    Fe   NiFe   Ni    Fe           
       Co          Fe    NFe   Co   CFe    Co                     
              Ni     Ni Fe Fe  NiCo    Fe Fe     Cr   Fe          
                    Co    Cr   NCo   CFe   NCo   Fe     Cr        
               Fe     Co   Co     Co    Cr                        
           Co    Fe Fe     Ni  NiCoCr CNi   NCo   Fe    Cr        
                Ni    NCr  NCFe   NFe   Cr    Cr    Cr            
            Fe    Co    Fe    Cr    Fe          Ni                
             Co     Co Cr Cr Cr       Co Fe                       
                   Fe    Cr    Cr    Cr    Cr                     
              Fe    Ni    Co    Ni     Cr                         
                                                                  
                                                                  
                                                                  
                                                                  
                                                                  

Positions:
   0 Cr    12.359773    1.504870   10.538743    ( 0.0000,  0.0000,  0.0000)
   1 Fe     2.441077    1.375732   10.633688    ( 0.0000,  0.0000,  2.0000)
   2 Ni     4.802959    1.424961   10.597667    ( 0.0000,  0.0000,  1.5000)
   3 Co     7.431499    1.340739   10.587030    ( 0.0000,  0.0000,  2.1000)
   4 Ni     9.831703    1.369831   10.566740    ( 0.0000,  0.0000,  1.5000)
   5 Cr    13.742797    3.590382   10.512501    ( 0.0000,  0.0000,  0.0000)
   6 Fe     3.789396    3.656626   10.629841    ( 0.0000,  0.0000,  2.0000)
   7 Cr     6.156891    3.519965   10.520962    ( 0.0000,  0.0000,  0.0000)
   8 Cr     8.857820    3.685227   10.373808    ( 0.0000,  0.0000,  0.0000)
   9 Cr    11.233885    3.644629   10.494477    ( 0.0000,  0.0000,  0.0000)
  10 Ni    14.954573    5.773363   10.621908    ( 0.0000,  0.0000,  1.5000)
  11 Cr     5.012515    5.638563   10.408684    ( 0.0000,  0.0000,  0.0000)
  12 Cr     7.390899    5.761505   10.544670    ( 0.0000,  0.0000,  0.0000)
  13 Cr    10.095090    5.914873   10.518546    ( 0.0000,  0.0000,  0.0000)
  14 Fe    12.392957    5.952538   10.454313    ( 0.0000,  0.0000,  2.0000)
  15 Cr    16.163784    8.037293   10.495144    ( 0.0000,  0.0000,  0.0000)
  16 Ni     6.224337    7.914479   10.652141    ( 0.0000,  0.0000,  1.5000)
  17 Ni     8.688718    7.943440   10.492103    ( 0.0000,  0.0000,  1.5000)
  18 Fe    11.263709    7.955569   10.603933    ( 0.0000,  0.0000,  2.0000)
  19 Cr    13.820014    7.957069   10.417414    ( 0.0000,  0.0000,  0.0000)
  20 Cr    17.421829   10.156560   10.663178    ( 0.0000,  0.0000,  0.0000)
  21 Ni     7.297116   10.122473   10.697100    ( 0.0000,  0.0000,  1.5000)
  22 Cr    10.105039    9.994768   10.656153    ( 0.0000,  0.0000,  0.0000)
  23 Ni    12.464911   10.072710   10.711172    ( 0.0000,  0.0000,  1.5000)
  24 Fe    14.979260   10.103048   10.666517    ( 0.0000,  0.0000,  2.0000)
  25 Co    12.289473    0.173542   12.619894    ( 0.0000,  0.0000,  2.1000)
  26 Co     2.465066    0.031125   12.859156    ( 0.0000,  0.0000,  2.1000)
  27 Co     4.881860    0.259179   12.729723    ( 0.0000,  0.0000,  2.1000)
  28 Cr     7.478411    0.099613   12.586975    ( 0.0000,  0.0000,  0.0000)
  29 Fe    16.099985   10.766473   12.608183    ( 0.0000,  0.0000,  2.0000)
  30 Fe     1.199392    2.301616   12.608781    ( 0.0000,  0.0000,  2.0000)
  31 Co     3.635852    2.230891   12.668660    ( 0.0000,  0.0000,  2.1000)
  32 Fe     6.168059    2.194395   12.717444    ( 0.0000,  0.0000,  2.0000)
  33 Cr     8.740260    2.122905   12.544882    ( 0.0000,  0.0000,  0.0000)
  34 Fe    11.144219    2.285399   12.557308    ( 0.0000,  0.0000,  2.0000)
  35 Ni     2.549965    4.314708   12.596878    ( 0.0000,  0.0000,  1.5000)
  36 Ni     5.088637    4.323865   12.538253    ( 0.0000,  0.0000,  1.5000)
  37 Cr     7.516756    4.273751   12.503857    ( 0.0000,  0.0000,  0.0000)
  38 Fe     9.972199    4.393916   12.615612    ( 0.0000,  0.0000,  2.0000)
  39 Cr    12.346489    4.444663   12.469319    ( 0.0000,  0.0000,  0.0000)
  40 Fe     3.736524    6.580894   12.547455    ( 0.0000,  0.0000,  2.0000)
  41 Ni     6.314521    6.437462   12.458043    ( 0.0000,  0.0000,  1.5000)
  42 Co     8.811810    6.495115   12.568504    ( 0.0000,  0.0000,  2.1000)
  43 Ni    11.139571    6.509857   12.474786    ( 0.0000,  0.0000,  1.5000)
  44 Co    13.560880    6.442824   12.563731    ( 0.0000,  0.0000,  2.1000)
  45 Cr    17.460707    8.865414   12.610491    ( 0.0000,  0.0000,  0.0000)
  46 Ni     7.392716    8.805994   12.574686    ( 0.0000,  0.0000,  1.5000)
  47 Co    10.021648    8.691059   12.528076    ( 0.0000,  0.0000,  2.1000)
  48 Ni    12.499956    8.712809   12.525284    ( 0.0000,  0.0000,  1.5000)
  49 Fe    14.914584    8.646089   12.581199    ( 0.0000,  0.0000,  2.0000)
  50 Co     1.188639    0.694144   14.775053    ( 0.0000,  0.0000,  2.1000)
  51 Fe     3.592193    0.705043   14.808314    ( 0.0000,  0.0000,  2.0000)
  52 Cr     6.100004    0.488281   14.751878    ( 0.0000,  0.0000,  0.0000)
  53 Fe     8.744961    0.757347   14.619401    ( 0.0000,  0.0000,  2.0000)
  54 Cr    11.073928    0.676558   14.860937    ( 0.0000,  0.0000,  0.0000)
  55 Fe     2.612448    2.859402   14.767857    ( 0.0000,  0.0000,  2.0000)
  56 Co     5.062168    2.929799   14.813296    ( 0.0000,  0.0000,  2.1000)
  57 Co     7.443681    2.728966   14.768543    ( 0.0000,  0.0000,  2.1000)
  58 Co    10.057044    2.975150   14.605711    ( 0.0000,  0.0000,  2.1000)
  59 Cr    12.558335    2.864536   14.762363    ( 0.0000,  0.0000,  0.0000)
  60 Co     3.858230    4.856207   14.718528    ( 0.0000,  0.0000,  2.1000)
  61 Cr     6.294263    5.072400   14.481815    ( 0.0000,  0.0000,  0.0000)
  62 Co     8.839090    4.952903   14.634216    ( 0.0000,  0.0000,  2.1000)
  63 Fe    11.330793    5.018134   14.569197    ( 0.0000,  0.0000,  2.0000)
  64 Co    13.756891    4.914928   14.518684    ( 0.0000,  0.0000,  2.1000)
  65 Fe     5.116663    7.111007   14.424376    ( 0.0000,  0.0000,  2.0000)
  66 Ni     7.681466    7.193005   14.643399    ( 0.0000,  0.0000,  1.5000)
  67 Cr    10.028645    7.034690   14.805374    ( 0.0000,  0.0000,  0.0000)
  68 Fe    12.471915    7.161341   14.456789    ( 0.0000,  0.0000,  2.0000)
  69 Cr    14.991220    7.039403   14.642188    ( 0.0000,  0.0000,  0.0000)
  70 Cr     6.236474    9.354066   14.603830    ( 0.0000,  0.0000,  0.0000)
  71 Ni     8.834356    9.285034   14.590451    ( 0.0000,  0.0000,  1.5000)
  72 Ni    11.064194    9.209695   14.791317    ( 0.0000,  0.0000,  1.5000)
  73 Co    13.663870    9.208108   14.597072    ( 0.0000,  0.0000,  2.1000)
  74 Fe    16.139634    9.392689   14.662977    ( 0.0000,  0.0000,  2.0000)
  75 Fe    12.345068    1.350151   16.800282    ( 0.0000,  0.0000,  2.0000)
  76 Ni     2.388336    1.475505   16.861681    ( 0.0000,  0.0000,  1.5000)
  77 Ni     5.039382    1.409370   16.766802    ( 0.0000,  0.0000,  1.5000)
  78 Fe     7.496917    1.525774   16.949190    ( 0.0000,  0.0000,  2.0000)
  79 Co     9.873640    1.554988   16.809610    ( 0.0000,  0.0000,  2.1000)
  80 Co    13.765151    3.592517   16.658668    ( 0.0000,  0.0000,  2.1000)
  81 Fe     3.827109    3.577192   16.768210    ( 0.0000,  0.0000,  2.0000)
  82 Ni     6.202774    3.602106   16.777509    ( 0.0000,  0.0000,  1.5000)
  83 Co     8.708641    3.579492   16.745967    ( 0.0000,  0.0000,  2.1000)
  84 Fe    11.112953    3.573560   16.724378    ( 0.0000,  0.0000,  2.0000)
  85 Ni    14.880533    5.759989   16.768328    ( 0.0000,  0.0000,  1.5000)
  86 Ni     4.960703    5.714419   16.777591    ( 0.0000,  0.0000,  1.5000)
  87 Co     7.425936    5.755322   16.634613    ( 0.0000,  0.0000,  2.1000)
  88 Fe    10.029621    5.709571   16.788298    ( 0.0000,  0.0000,  2.0000)
  89 Fe    12.617481    5.858543   16.560919    ( 0.0000,  0.0000,  2.0000)
  90 Fe    16.101239    7.845565   16.670096    ( 0.0000,  0.0000,  2.0000)
  91 Co     6.272174    7.883976   16.708435    ( 0.0000,  0.0000,  2.1000)
  92 Ni     8.817478    7.740395   16.872840    ( 0.0000,  0.0000,  1.5000)
  93 Fe    11.183578    7.909970   16.701026    ( 0.0000,  0.0000,  2.0000)
  94 Fe    13.747148    8.003723   16.745372    ( 0.0000,  0.0000,  2.0000)
  95 Co    17.364703   10.003131   16.804307    ( 0.0000,  0.0000,  2.1000)
  96 Co     7.571740    9.936525   16.770510    ( 0.0000,  0.0000,  2.1000)
  97 Fe    10.066584   10.060435   16.813021    ( 0.0000,  0.0000,  2.0000)
  98 Co    12.504406   10.082571   16.792812    ( 0.0000,  0.0000,  2.1000)
  99 Fe    14.864641   10.014843   16.460922    ( 0.0000,  0.0000,  2.0000)
 100 Co    -0.028584   -0.050873   18.828574    ( 0.0000,  0.0000,  2.1000)
 101 Co     8.782877   10.702279   18.692441    ( 0.0000,  0.0000,  2.1000)
 102 Ni    11.214578   10.680076   19.122180    ( 0.0000,  0.0000,  1.5000)
 103 Fe     7.496620   -0.180441   18.835716    ( 0.0000,  0.0000,  2.0000)
 104 Co    16.110951   10.774298   18.591324    ( 0.0000,  0.0000,  2.1000)
 105 Co     1.251420    2.143608   18.786372    ( 0.0000,  0.0000,  2.1000)
 106 Ni     3.795213    2.154973   18.682001    ( 0.0000,  0.0000,  1.5000)
 107 Fe     6.096118    2.243421   19.048535    ( 0.0000,  0.0000,  2.0000)
 108 Ni     8.654467    2.012492   18.969217    ( 0.0000,  0.0000,  1.5000)
 109 Cr    11.051428    2.251554   18.832563    ( 0.0000,  0.0000,  0.0000)
 110 Co     2.595309    4.371191   18.773394    ( 0.0000,  0.0000,  2.1000)
 111 Ni     4.925155    4.408547   19.307795    ( 0.0000,  0.0000,  1.5000)
 112 Ni     7.334015    4.080681   18.799765    ( 0.0000,  0.0000,  1.5000)
 113 Ni     9.988123    4.328836   18.769591    ( 0.0000,  0.0000,  1.5000)
 114 Cr    12.465796    4.443843   18.493620    ( 0.0000,  0.0000,  0.0000)
 115 Cr     3.628665    6.400058   18.714220    ( 0.0000,  0.0000,  0.0000)
 116 Ni     6.253697    6.323644   18.680608    ( 0.0000,  0.0000,  1.5000)
 117 Cr     8.700431    6.389078   18.744037    ( 0.0000,  0.0000,  0.0000)
 118 Co    11.255467    6.396457   18.740498    ( 0.0000,  0.0000,  2.1000)
 119 Cr    13.691441    6.664313   18.685403    ( 0.0000,  0.0000,  0.0000)
 120 Ni     5.058106    8.577290   18.791693    ( 0.0000,  0.0000,  1.5000)
 121 Ni     7.479799    8.467882   18.759450    ( 0.0000,  0.0000,  1.5000)
 122 Co    10.041907    8.413190   18.800958    ( 0.0000,  0.0000,  2.1000)
 123 Cr    12.366152    8.593881   18.721482    ( 0.0000,  0.0000,  0.0000)
 124 Cr    14.980151    8.685532   18.558563    ( 0.0000,  0.0000,  0.0000)

Unit cell:
           periodic     x           y           z      points  spacing
  1. axis:    yes   12.446800    0.000000    0.000000    54     0.1996
  2. axis:    yes    6.223010   10.778600    0.000000    54     0.1996
  3. axis:    no     0.000000    0.000000   29.353100   128     0.2293

  Lengths:  12.446800  12.446046  29.353100
  Angles:   90.000000  90.000000  60.000070

Effective grid spacing dv^(1/3) = 0.2193

     iter     time        total  log10-change:  magmom
                         energy  eigst   dens
iter:   1 17:51:18 -1247.661850                  +175.9175
iter:   2 17:55:14 -1161.326625  -0.07  -1.11    +98.4499
iter:   3 17:59:11 -1348.568288  -0.49  -1.10    +79.3149
iter:   4 18:03:08 -2231.057929  +0.26  -0.98    +71.8434
iter:   5 18:07:04 -1070.394886  -0.52  -0.75    +43.9310
iter:   6 18:11:01 -1046.226480  -1.37  -1.24    +40.6508
iter:   7 18:14:59 -1046.538307  -1.87  -1.26    +40.9214
iter:   8 18:18:56 -1018.321294  -1.57  -1.26    +42.7829
iter:   9 18:22:52 -1377.283045  -0.34  -1.34    +43.8025
iter:  10 18:26:49 -1042.621675  -0.85  -0.98    +41.8030
iter:  11 18:30:45 -1010.506286  -1.39  -1.31    +40.7404
iter:  12 18:34:43  -985.673919  -1.68  -1.50    +42.1692
iter:  13 18:38:40  -987.386059  -1.91  -1.67    +43.0477
iter:  14 18:42:37 -1063.849999  -1.58  -1.64    +44.9767
iter:  15 18:46:35 -1045.466396  -1.30  -1.27    +45.1209
iter:  16 18:50:29  -982.345279  -1.82  -1.34    +43.9435
iter:  17 18:54:27  -990.021519  -2.28  -1.73    +45.4196
iter:  18 18:58:24  -984.925190  -2.47  -1.62    +47.6121
iter:  19 19:02:21  -985.534229  -2.43  -1.72    +52.3738
iter:  20 19:06:17  -982.892297  -2.36  -1.76    +53.6057
iter:  21 19:10:13  -981.447487  -2.22  -1.80    +54.9126
iter:  22 19:14:09  -981.400144  -2.27  -1.91    +54.7918
iter:  23 19:18:06  -983.890183  -2.34  -1.94    +57.3933
iter:  24 19:22:04  -980.588801  -2.74  -1.85    +57.9303
iter:  25 19:26:01  -982.376093  -2.86  -2.01    +58.9540
iter:  26 19:29:56 -1014.832232  -2.02  -1.96    +59.5607
iter:  27 19:33:53  -981.236305  -2.32  -1.49    +60.3706
iter:  28 19:37:51  -980.671600  -3.06  -2.08    +61.9294
iter:  29 19:41:47  -981.536320  -2.83  -2.21    +62.7597
iter:  30 19:45:44  -981.293739  -3.12  -2.18    +64.0346
iter:  31 19:49:41  -981.219338  -3.32  -2.21    +65.1118
iter:  32 19:53:38  -983.241509  -2.88  -2.29    +66.6080
iter:  33 19:57:36  -982.611646  -3.00  -2.10    +67.6505
iter:  34 20:01:33  -982.515898  -3.35  -2.16    +68.6989
iter:  35 20:05:31  -982.367940  -3.05  -2.23    +68.7187
iter:  36 20:09:30  -982.362444  -3.25  -2.40    +69.1790
iter:  37 20:13:29  -982.763245  -3.26  -2.46    +69.8674
iter:  38 20:17:27  -983.441596  -3.07  -2.34    +70.2349
iter:  39 20:21:27  -982.601016  -3.37  -2.22    +70.3571
iter:  40 20:25:25  -982.598671  -3.86  -2.48    +70.5960
iter:  41 20:29:25  -982.603313c -3.91  -2.57    +70.7082
iter:  42 20:33:21  -982.804368  -3.99  -2.68    +70.9307
iter:  43 20:37:18  -982.793759  -4.19  -2.54    +70.6843
iter:  44 20:41:18  -982.796031c -3.74  -2.61    +70.4698
iter:  45 20:45:16  -983.026758  -4.03  -2.75    +70.5383
iter:  46 20:49:16  -982.835057  -4.14  -2.52    +70.2965
iter:  47 20:53:15  -983.006323  -3.88  -2.85    +70.2699
iter:  48 20:57:14  -982.864752  -4.37  -2.66    +70.2274
iter:  49 21:01:14  -982.895877  -4.33  -2.95    +70.1582
iter:  50 21:05:11  -982.902101c -4.77  -3.03    +70.2568
iter:  51 21:09:07  -982.951313c -4.40  -3.07    +70.4082
iter:  52 21:13:07  -982.993070c -4.45  -3.06    +70.4042
iter:  53 21:17:05  -983.001087c -4.85  -3.03    +70.4241
iter:  54 21:21:04  -983.049875c -4.59  -3.05    +70.3561
iter:  55 21:25:04  -983.019703c -4.69  -2.99    +70.4366
iter:  56 21:29:03  -983.120457c -3.96  -2.96    +70.2064
iter:  57 21:33:02  -983.101799c -5.05  -2.98    +70.2967
iter:  58 21:37:01  -983.194695c -4.40  -3.04    +70.3359
iter:  59 21:41:01  -983.179070c -4.59  -2.82    +70.2255
iter:  60 21:45:00  -983.227409c -4.57  -2.89    +70.1104
iter:  61 21:48:59  -983.413882  -4.20  -2.84    +69.8749
iter:  62 21:52:53  -983.420504  -5.04  -2.60    +69.8316
iter:  63 21:56:52  -983.324976c -3.97  -2.59    +69.2335
iter:  64 22:00:51  -983.484589  -4.24  -2.78    +69.2487
iter:  65 22:04:50  -983.358137  -4.22  -2.57    +69.0833
iter:  66 22:08:49  -984.240532  -3.44  -2.74    +69.0686
iter:  67 22:12:49  -983.481494  -3.60  -2.31    +69.1721
iter:  68 22:16:48  -983.539230  -4.40  -2.62    +69.0864
iter:  69 22:20:47  -983.543961c -4.43  -2.58    +68.6760
iter:  70 22:24:46  -983.678019  -4.59  -2.59    +68.4666
iter:  71 22:28:41  -983.751641  -4.83  -2.49    +68.2692
iter:  72 22:32:40  -983.942156  -3.45  -2.45    +68.3272
iter:  73 22:36:38  -983.816306  -3.55  -2.41    +68.1704
iter:  74 22:40:37  -983.886263  -3.94  -2.44    +68.3210
iter:  75 22:44:26  -984.041126  -4.06  -2.42    +67.8230
iter:  76 22:48:09  -983.643808  -3.49  -2.35    +67.5845
iter:  77 22:51:52  -983.682707  -3.90  -2.55    +67.6968
iter:  78 22:55:35  -986.313275  -2.99  -2.49    +67.6090
iter:  79 22:59:18  -983.793301  -3.18  -2.06    +67.6033
iter:  80 23:03:01  -983.756443  -3.82  -2.45    +67.6050
iter:  81 23:06:44  -983.800215c -3.95  -2.49    +67.4945
iter:  82 23:10:26  -983.646180  -3.59  -2.45    +67.5333
iter:  83 23:14:57  -983.958615  -3.50  -2.58    +67.6903
iter:  84 23:18:43  -983.791270  -3.45  -2.40    +67.8730
iter:  85 23:22:26  -983.554781  -3.77  -2.49    +67.9380
iter:  86 23:26:08  -983.549327  -4.27  -2.64    +68.0684
iter:  87 23:29:52  -983.447672c -4.32  -2.66    +68.1961
iter:  88 23:33:33  -983.483776c -4.65  -2.88    +68.2801
iter:  89 23:37:15  -983.755609  -3.75  -2.80    +68.5095
iter:  90 23:40:56  -983.470445  -4.03  -2.53    +68.4454
iter:  91 23:44:40  -983.464226  -4.23  -2.89    +68.4118
iter:  92 23:48:22  -983.457090c -4.34  -2.96    +68.5317
iter:  93 23:52:06  -983.473095c -4.38  -3.04    +69.0504
iter:  94 23:55:48  -983.463344c -4.79  -3.05    +69.1942
iter:  95 23:59:31  -983.466838c -5.24  -3.24    +69.2546
iter:  96 00:03:13  -983.482985c -4.94  -3.24    +69.3567
iter:  97 00:06:56  -983.484744c -4.86  -3.15    +69.2906
iter:  98 00:11:02  -983.473926c -5.11  -3.12    +69.3583
iter:  99 00:15:16  -983.478806c -5.07  -3.39    +69.4041
iter: 100 00:18:59  -983.481810c -5.09  -3.32    +69.4711
iter: 101 00:22:40  -983.512191c -4.87  -3.35    +69.5856
iter: 102 00:26:23  -983.490324c -4.95  -3.01    +69.5837
iter: 103 00:30:06  -983.485958c -5.28  -3.26    +69.5993
iter: 104 00:33:49  -983.487175c -5.56  -3.46    +69.6449
iter: 105 00:37:32  -983.489443c -5.53  -3.55    +69.6841
iter: 106 00:41:13  -983.491030c -5.69  -3.59    +69.7381
iter: 107 00:44:56  -983.501872c -5.10  -3.63    +69.7904
iter: 108 00:48:39  -983.499150c -5.35  -3.29    +69.7766
iter: 109 00:52:23  -983.495970c -5.61  -3.35    +69.8379
iter: 110 00:56:07  -983.499230c -5.50  -3.69    +69.8408
iter: 111 00:59:52  -983.497991c -5.57  -3.51    +69.8806
iter: 112 01:03:37  -983.498631c -5.86  -3.62    +69.9072
iter: 113 01:07:20  -983.500806c -5.72  -3.69    +69.9359
iter: 114 01:11:05  -983.527101c -5.08  -3.62    +69.9420
iter: 115 01:14:49  -983.500014c -5.58  -3.05    +69.9304
iter: 116 01:18:34  -983.501992c -5.89  -3.82    +69.9645
iter: 117 01:23:10  -983.502085c -5.74  -3.70    +69.9220
iter: 118 01:27:00  -983.502589c -5.83  -3.75    +69.9354
iter: 119 01:30:45  -983.501967c -6.35  -3.75    +69.9318
iter: 120 01:34:29  -983.519825c -5.29  -3.92    +69.9397
iter: 121 01:38:14  -983.503238c -5.60  -3.14    +69.9490
iter: 122 01:41:59  -983.503200c -6.39  -3.87    +69.9386
iter: 123 01:45:42  -983.503953c -6.24  -4.00c   +69.9445
iter: 124 01:49:26  -983.505001c -5.86  -3.97    +69.9374
iter: 125 01:53:09  -983.504431c -6.46  -3.91    +69.9498
iter: 126 01:57:33  -983.507268c -5.96  -4.04c   +69.9541
iter: 127 02:01:33  -983.504542c -6.20  -3.52    +69.9588
iter: 128 02:05:17  -983.504741c -6.73  -4.04c   +69.9767
iter: 129 02:09:01  -983.504936c -6.81  -4.17c   +69.9821
iter: 130 02:12:46  -983.505069c -7.21  -4.23c   +69.9918
iter: 131 02:16:31  -983.505551c -6.63  -4.22c   +70.0065
iter: 132 02:20:17  -983.505650c -6.77  -4.10c   +70.0039
iter: 133 02:24:01  -983.505647c -6.74  -3.92    +70.0108
iter: 134 02:27:45  -983.506069c -6.82  -4.08c   +70.0159
iter: 135 02:31:29  -983.505981c -7.66c -3.96    +70.0118
iter: 136 02:35:15  -983.506159c -6.51  -4.01c   +70.0078
iter: 137 02:39:39  -983.506150c -6.94  -4.01c   +70.0064
iter: 138 02:43:33  -983.509475c -5.98  -4.03c   +70.0047
iter: 139 02:47:18  -983.506113c -6.17  -3.48    +70.0072
iter: 140 02:51:03  -983.506230c -6.88  -4.02c   +70.0235
iter: 141 02:54:46  -983.506334c -7.03  -4.13c   +70.0265
iter: 142 02:58:31  -983.506336c -7.10  -4.13c   +70.0291
iter: 143 03:02:15  -983.506402c -6.90  -4.19c   +70.0320
iter: 144 03:06:00  -983.506730c -6.98  -4.20c   +70.0392
iter: 145 03:09:44  -983.506660c -6.88  -4.05c   +70.0389
iter: 146 03:13:27  -983.506600c -7.01  -4.17c   +70.0394
iter: 147 03:17:12  -983.506724c -7.15  -4.22c   +70.0502
iter: 148 03:20:58  -983.506817c -7.33  -4.31c   +70.0513
iter: 149 03:25:34  -983.506861c -7.36  -4.29c   +70.0542
iter: 150 03:29:22  -983.506865c -7.15  -4.35c   +70.0557
iter: 151 03:33:06  -983.506943c -7.46c -4.26c   +70.0579

Converged after 151 iterations.

Dipole moment: (71.895225, 16.790044, -0.048749) |e|*Ang

Total magnetic moment: (0.000000, 0.000000, 70.057886)
Local magnetic moments:
   0 Cr ( 0.000000,  0.000000, -2.032490)
   1 Fe ( 0.000000,  0.000000,  2.554018)
   2 Ni ( 0.000000,  0.000000,  0.435218)
   3 Co ( 0.000000,  0.000000,  0.895793)
   4 Ni ( 0.000000,  0.000000,  0.129082)
   5 Cr ( 0.000000,  0.000000, -2.357654)
   6 Fe ( 0.000000,  0.000000,  2.235501)
   7 Cr ( 0.000000,  0.000000, -1.863108)
   8 Cr ( 0.000000,  0.000000, -2.338723)
   9 Cr ( 0.000000,  0.000000,  1.682579)
  10 Ni ( 0.000000,  0.000000,  0.131470)
  11 Cr ( 0.000000,  0.000000, -2.185249)
  12 Cr ( 0.000000,  0.000000,  2.035662)
  13 Cr ( 0.000000,  0.000000, -1.751181)
  14 Fe ( 0.000000,  0.000000,  2.183150)
  15 Cr ( 0.000000,  0.000000, -1.875238)
  16 Ni ( 0.000000,  0.000000,  0.022654)
  17 Ni ( 0.000000,  0.000000,  0.213472)
  18 Fe ( 0.000000,  0.000000,  2.197255)
  19 Cr ( 0.000000,  0.000000, -2.207960)
  20 Cr ( 0.000000,  0.000000,  0.683873)
  21 Ni ( 0.000000,  0.000000,  0.143638)
  22 Cr ( 0.000000,  0.000000, -2.502223)
  23 Ni ( 0.000000,  0.000000,  0.273259)
  24 Fe ( 0.000000,  0.000000,  1.533756)
  25 Co ( 0.000000,  0.000000,  0.590537)
  26 Co ( 0.000000,  0.000000,  1.486322)
  27 Co ( 0.000000,  0.000000,  1.213321)
  28 Cr ( 0.000000,  0.000000, -0.465199)
  29 Fe ( 0.000000,  0.000000,  0.370921)
  30 Fe ( 0.000000,  0.000000,  2.050739)
  31 Co ( 0.000000,  0.000000,  1.399305)
  32 Fe ( 0.000000,  0.000000,  2.150180)
  33 Cr ( 0.000000,  0.000000, -0.631144)
  34 Fe ( 0.000000,  0.000000,  1.752571)
  35 Ni ( 0.000000,  0.000000,  0.352850)
  36 Ni ( 0.000000,  0.000000,  0.229631)
  37 Cr ( 0.000000,  0.000000,  0.892352)
  38 Fe ( 0.000000,  0.000000,  1.345301)
  39 Cr ( 0.000000,  0.000000, -1.150389)
  40 Fe ( 0.000000,  0.000000,  2.181349)
  41 Ni ( 0.000000,  0.000000,  0.206428)
  42 Co ( 0.000000,  0.000000,  1.197013)
  43 Ni ( 0.000000,  0.000000,  0.257232)
  44 Co ( 0.000000,  0.000000,  1.077334)
  45 Cr ( 0.000000,  0.000000, -0.368578)
  46 Ni ( 0.000000,  0.000000,  0.123110)
  47 Co ( 0.000000,  0.000000,  1.309328)
  48 Ni ( 0.000000,  0.000000,  0.356210)
  49 Fe ( 0.000000,  0.000000,  1.857817)
  50 Co ( 0.000000,  0.000000,  1.127246)
  51 Fe ( 0.000000,  0.000000,  2.315417)
  52 Cr ( 0.000000,  0.000000, -2.087766)
  53 Fe ( 0.000000,  0.000000,  1.732735)
  54 Cr ( 0.000000,  0.000000, -1.339518)
  55 Fe ( 0.000000,  0.000000,  2.130427)
  56 Co ( 0.000000,  0.000000,  1.443388)
  57 Co ( 0.000000,  0.000000,  1.363911)
  58 Co ( 0.000000,  0.000000,  1.103944)
  59 Cr ( 0.000000,  0.000000, -1.737837)
  60 Co ( 0.000000,  0.000000,  1.324026)
  61 Cr ( 0.000000,  0.000000, -1.674950)
  62 Co ( 0.000000,  0.000000,  1.006608)
  63 Fe ( 0.000000,  0.000000,  1.724232)
  64 Co ( 0.000000,  0.000000,  1.004419)
  65 Fe ( 0.000000,  0.000000,  2.077097)
  66 Ni ( 0.000000,  0.000000,  0.271237)
  67 Cr ( 0.000000,  0.000000, -1.713326)
  68 Fe ( 0.000000,  0.000000,  2.165117)
  69 Cr ( 0.000000,  0.000000, -2.039427)
  70 Cr ( 0.000000,  0.000000, -1.015130)
  71 Ni ( 0.000000,  0.000000,  0.425235)
  72 Ni ( 0.000000,  0.000000,  0.311311)
  73 Co ( 0.000000,  0.000000,  0.930235)
  74 Fe ( 0.000000,  0.000000,  1.260613)
  75 Fe ( 0.000000,  0.000000,  2.299384)
  76 Ni ( 0.000000,  0.000000,  0.629308)
  77 Ni ( 0.000000,  0.000000,  0.472181)
  78 Fe ( 0.000000,  0.000000,  2.541218)
  79 Co ( 0.000000,  0.000000,  1.273521)
  80 Co ( 0.000000,  0.000000,  1.202671)
  81 Fe ( 0.000000,  0.000000,  2.584451)
  82 Ni ( 0.000000,  0.000000,  0.562994)
  83 Co ( 0.000000,  0.000000,  1.470476)
  84 Fe ( 0.000000,  0.000000,  1.927918)
  85 Ni ( 0.000000,  0.000000,  0.321883)
  86 Ni ( 0.000000,  0.000000,  0.397016)
  87 Co ( 0.000000,  0.000000,  1.487566)
  88 Fe ( 0.000000,  0.000000,  2.132793)
  89 Fe ( 0.000000,  0.000000,  2.060267)
  90 Fe ( 0.000000,  0.000000,  1.978363)
  91 Co ( 0.000000,  0.000000,  1.594760)
  92 Ni ( 0.000000,  0.000000,  0.398925)
  93 Fe ( 0.000000,  0.000000,  1.956340)
  94 Fe ( 0.000000,  0.000000,  0.968543)
  95 Co ( 0.000000,  0.000000,  1.324848)
  96 Co ( 0.000000,  0.000000,  1.664570)
  97 Fe ( 0.000000,  0.000000,  2.563626)
  98 Co ( 0.000000,  0.000000,  1.058583)
  99 Fe ( 0.000000,  0.000000,  2.009841)
 100 Co ( 0.000000,  0.000000,  1.751716)
 101 Co ( 0.000000,  0.000000,  1.759027)
 102 Ni ( 0.000000,  0.000000,  0.488505)
 103 Fe ( 0.000000,  0.000000,  2.277398)
 104 Co ( 0.000000,  0.000000,  1.478931)
 105 Co ( 0.000000,  0.000000,  1.634683)
 106 Ni ( 0.000000,  0.000000,  0.654438)
 107 Fe ( 0.000000,  0.000000,  2.949284)
 108 Ni ( 0.000000,  0.000000,  0.541108)
 109 Cr ( 0.000000,  0.000000, -2.675629)
 110 Co ( 0.000000,  0.000000,  1.384628)
 111 Ni ( 0.000000,  0.000000,  0.483492)
 112 Ni ( 0.000000,  0.000000,  0.574943)
 113 Ni ( 0.000000,  0.000000,  0.260140)
 114 Cr ( 0.000000,  0.000000, -1.988065)
 115 Cr ( 0.000000,  0.000000, -2.083373)
 116 Ni ( 0.000000,  0.000000,  0.467366)
 117 Cr ( 0.000000,  0.000000, -2.517165)
 118 Co ( 0.000000,  0.000000,  1.128511)
 119 Cr ( 0.000000,  0.000000,  1.531664)
 120 Ni ( 0.000000,  0.000000,  0.459323)
 121 Ni ( 0.000000,  0.000000,  0.459525)
 122 Co ( 0.000000,  0.000000,  1.403817)
 123 Cr ( 0.000000,  0.000000, -2.097682)
 124 Cr ( 0.000000,  0.000000, -1.597102)

Energy contributions relative to reference atoms: (reference = -4451268.207082)

Kinetic:       +356.186549
Potential:     -386.294486
External:        +0.000000
XC:            -995.676442
Entropy (-ST):   -5.581741
Local:          +45.068308
--------------------------
Free energy:   -986.297814
Extrapolated:  -983.506943

Dipole-layer corrected work functions: 4.896627, 4.962379 eV

Spin contamination: 54.049754 electrons
Showing all kpts
                      Up                     Down
 Kpt  Band  Eigenvalues  Occupancy  Eigenvalues  Occupancy
  0   606     -0.02226    0.99644      0.84396    0.04617
  0   607     -0.00198    0.99564      0.85708    0.04073
  0   608      0.00140    0.99549      0.86166    0.03897
  0   609      0.01504    0.99484      0.87411    0.03457

  1   606     -0.00466    0.99576      0.85334    0.04221
  1   607      0.00579    0.99529      0.86740    0.03688
  1   608      0.01813    0.99468      0.88082    0.03240
  1   609      0.03012    0.99400      0.88619    0.03076


Fermi level: 0.54114

No gap

Forces in eV/Ang:
  0 Cr   -0.23426   -0.25122    0.14843
  1 Fe   -0.05667    0.11191    0.15631
  2 Ni    1.00220    0.11089    0.24616
  3 Co   -0.08271    1.04247    0.17137
  4 Ni    0.35853    0.89311   -0.29079
  5 Cr    0.41142    0.62378   -0.35945
  6 Fe   -0.55877   -0.82272   -0.36215
  7 Cr    1.00581   -0.91098    0.07625
  8 Cr   -0.54605   -0.54560    0.18834
  9 Cr    0.00128   -0.18463   -0.41554
 10 Ni   -0.07678    0.23178   -0.31376
 11 Cr   -0.20642    1.15048    0.24562
 12 Cr    0.89445   -0.19321   -1.25759
 13 Cr   -1.04637   -0.46280   -0.48484
 14 Fe    1.03873   -1.03697   -0.14636
 15 Cr    1.12264   -0.37834    0.15885
 16 Ni   -0.29306    0.49754   -0.92638
 17 Ni   -0.08700    0.16717    0.54539
 18 Fe   -0.27759    0.70115   -0.63275
 19 Cr   -1.26483    0.06154    0.46123
 20 Cr   -0.21099   -0.43820   -0.22252
 21 Ni    1.16767   -0.00904   -0.66825
 22 Cr   -1.14983    0.58970   -0.47365
 23 Ni    0.03119    0.82037   -1.27030
 24 Fe   -0.69817   -0.26715   -0.36552
 25 Co    0.89877    0.47778    0.97636
 26 Co   -0.35156    0.54930   -1.57834
 27 Co    0.02739   -1.58731   -0.09366
 28 Cr   -0.16722   -0.54713    0.15383
 29 Fe    0.46590    0.28158    0.26681
 30 Fe    0.03753   -0.59665    0.16305
 31 Co    0.48162   -0.16570   -0.17684
 32 Fe    0.30081   -0.14681   -0.34258
 33 Cr   -0.28145    0.78936    0.24504
 34 Fe    0.09364   -0.85140    0.33166
 35 Ni   -0.28218    0.77944   -0.03421
 36 Ni   -1.06285    0.21305    0.39396
 37 Cr    0.57360   -0.11760    0.40256
 38 Fe   -0.31151    0.07072   -0.46247
 39 Cr    0.60088   -0.56448    0.23553
 40 Fe    0.23279   -0.46997   -0.10066
 41 Ni   -0.29539    0.63124    0.98951
 42 Co   -0.87272    0.11749   -0.04082
 43 Ni    0.63622    0.33580    1.40246
 44 Co    1.19483    0.39304   -0.55939
 45 Cr   -0.67468   -1.34788   -0.14803
 46 Ni    1.06900   -1.33412    0.71673
 47 Co   -0.61988   -0.17651    0.64469
 48 Ni   -0.59208   -0.52957    0.95437
 49 Fe    0.11370   -0.08880    0.16696
 50 Co   -0.08730   -0.02036   -0.18595
 51 Fe    1.06991    0.21029   -0.28772
 52 Cr    0.83487    1.22639   -0.05587
 53 Fe   -0.65129    0.36328    0.02938
 54 Cr    0.19145    0.07385   -1.05370
 55 Fe   -0.79130   -0.03368   -0.74652
 56 Co    0.23998   -1.14963   -0.97831
 57 Co    0.52364    0.57338   -0.05802
 58 Co   -0.59936   -0.85980    0.49047
 59 Cr   -0.65383   -0.19434   -0.40708
 60 Co   -0.68014    1.54786   -0.47577
 61 Cr    0.49542   -0.32920    1.13117
 62 Co   -0.83133    0.29444    0.25244
 63 Fe   -0.30889   -0.18094    0.28593
 64 Co    0.03487    0.43832    0.52660
 65 Fe   -0.52761    0.30701    1.57584
 66 Ni   -1.31591   -0.07394   -0.10054
 67 Cr    0.06617   -0.05932   -0.82869
 68 Fe    0.04460    0.33498    0.80036
 69 Cr   -0.03997    0.43810   -0.21300
 70 Cr    0.03610   -0.13510    0.62867
 71 Ni   -1.53413   -0.19853    0.92545
 72 Ni    1.91697    0.74269   -1.25219
 73 Co   -0.27568    0.72441    0.25880
 74 Fe    0.74046   -0.68085   -0.62203
 75 Fe    0.65322    0.21149    0.55980
 76 Ni    0.41462   -0.73934   -0.73475
 77 Ni   -0.12850    0.15236    0.34913
 78 Fe   -0.65179   -0.64670   -0.65274
 79 Co    0.17150   -0.86607   -0.40492
 80 Co   -0.46244    0.05447    0.81120
 81 Fe   -0.64273    0.26059    0.97021
 82 Ni    0.48522    0.17659    0.02701
 83 Co   -0.32971    0.69315   -0.04401
 84 Fe    1.05490    0.24712   -0.15252
 85 Ni    0.97343   -0.59441   -0.77382
 86 Ni    0.04073    0.29183   -0.69944
 87 Co    0.27582   -0.63445   -0.13536
 88 Fe   -0.06491   -0.49160   -0.43067
 89 Fe   -1.41669   -0.51870   -0.17089
 90 Fe    1.37333    0.04247   -0.21855
 91 Co   -0.39943    0.09414   -0.17458
 92 Ni   -0.82866    1.37268   -1.14371
 93 Fe    1.04809   -0.62338    0.75959
 94 Fe   -0.95606   -0.54212   -1.04381
 95 Co    0.46930   -0.26984   -0.38895
 96 Co   -0.59713    0.42976   -0.13406
 97 Fe   -0.61089   -0.00922    0.67046
 98 Co   -0.05878   -0.36565    0.16485
 99 Fe    0.46870    1.08949    1.29998
100 Co    0.37573    0.15060   -0.57369
101 Co   -0.38732    0.03227    0.58199
102 Ni   -0.07428    0.38947   -1.06513
103 Fe   -0.42242    0.64328   -0.13975
104 Co    0.56281   -0.07535    0.50668
105 Co   -0.29934    0.21423   -0.14236
106 Ni   -0.74015    0.00784    1.09909
107 Fe   -0.02541   -1.24392   -0.20382
108 Ni   -0.20228    0.67510   -0.16848
109 Cr    0.93043   -1.15835    0.17753
110 Co   -0.68260   -1.04686   -0.26494
111 Ni    0.18350   -0.45648   -1.03743
112 Ni    1.08818    1.38574   -0.09300
113 Ni   -0.73853   -0.42105    0.40050
114 Cr    0.52819   -0.20018    0.56545
115 Cr    0.82551    0.25509    0.55316
116 Ni   -0.13693    0.40430    0.47998
117 Cr    0.11247   -0.57211    0.78211
118 Co   -0.27664   -0.12783   -0.27953
119 Cr    0.45998   -0.47402    0.88323
120 Ni   -0.41821   -0.23349   -0.33800
121 Ni   -0.03857    0.74628    0.12930
122 Co   -0.79038    1.19711   -0.05078
123 Cr   -0.02167    0.10474    0.35588
124 Cr    0.54651    0.01763    0.93896

Timing:                              incl.     excl.
-----------------------------------------------------------
Forces:                             52.035    52.035   0.1% |
Hamiltonian:                         1.739     0.017   0.0% |
 Atomic:                             0.428     0.002   0.0% |
  XC Correction:                     0.426     0.426   0.0% |
 Calculate atomic Hamiltonians:      0.600     0.600   0.0% |
 Communicate:                        0.082     0.082   0.0% |
 Initialize Hamiltonian:             0.001     0.001   0.0% |
 Poisson:                            0.130     0.130   0.0% |
 XC 3D grid:                         0.482     0.482   0.0% |
LCAO initialization:               395.007     0.478   0.0% |
 LCAO eigensolver:                  28.329     0.023   0.0% |
  Calculate projections:             0.000     0.000   0.0% |
  DenseAtomicCorrection:             0.000     0.000   0.0% |
  Distribute overlap matrix:        12.840    12.840   0.0% |
  Orbital Layouts:                  15.395    15.395   0.0% |
  Potential matrix:                  0.010     0.010   0.0% |
  Sum over cells:                    0.061     0.061   0.0% |
 LCAO to grid:                     362.848   362.848   1.0% |
 Set positions (LCAO WFS):           3.353     2.959   0.0% |
  Basic WFS set positions:           0.004     0.004   0.0% |
  Basis functions set positions:     0.001     0.001   0.0% |
  P tci:                             0.001     0.001   0.0% |
  ST tci:                            0.159     0.159   0.0% |
  mktci:                             0.230     0.230   0.0% |
PWDescriptor:                        0.138     0.138   0.0% |
SCF-cycle:                       35163.239     1.811   0.0% |
 Davidson:                       34301.315  8566.329  24.0% |---------|
  Apply H:                         596.977   586.144   1.6% ||
   HMM T:                           10.833    10.833   0.0% |
  Subspace diag:                  3127.326     0.098   0.0% |
   calc_h_matrix:                 1334.171   798.725   2.2% ||
    Apply H:                       535.446   523.907   1.5% ||
     HMM T:                         11.539    11.539   0.0% |
   diagonalize:                    332.425   332.425   0.9% |
   rotate_psi:                    1460.632  1460.632   4.1% |-|
  calc. matrices:                 7298.396  6281.944  17.6% |------|
   Apply H:                       1016.451   994.547   2.8% ||
    HMM T:                          21.904    21.904   0.1% |
  diagonalize:                   11569.803 11569.803  32.5% |------------|
  rotate_psi:                     3142.484  3142.484   8.8% |---|
 Density:                          504.294     0.008   0.0% |
  Atomic density matrices:           5.997     5.997   0.0% |
  Mix:                             233.842   233.842   0.7% |
  Multipole moments:                 0.166     0.166   0.0% |
  Pseudo density:                  264.282   264.271   0.7% |
   Symmetrize density:               0.011     0.011   0.0% |
 Hamiltonian:                      333.136     2.498   0.0% |
  Atomic:                           67.138     0.326   0.0% |
   XC Correction:                   66.812    66.812   0.2% |
  Calculate atomic Hamiltonians:   174.872   174.872   0.5% |
  Communicate:                      10.723    10.723   0.0% |
  Poisson:                           7.403     7.403   0.0% |
  XC 3D grid:                       70.502    70.502   0.2% |
 Orthonormalize:                    22.682     0.001   0.0% |
  calc_s_matrix:                     2.974     2.974   0.0% |
  inverse-cholesky:                  1.208     1.208   0.0% |
  projections:                      13.578    13.578   0.0% |
  rotate_psi_s:                      4.921     4.921   0.0% |
Set symmetry:                        0.001     0.001   0.0% |
Other:                               8.162     8.162   0.0% |
-----------------------------------------------------------
Total:                                     35620.321 100.0%

Date: Mon Apr 17 03:34:02 2023
