
  ___ ___ ___ _ _ _  
 |   |   |_  | | | | 
 | | | | | . | | | | 
 |__ |  _|___|_____|  22.8.0
 |___|_|             

User:   c.zeng@d0105
Date:   Wed Apr 19 20:06:52 2023
Arch:   x86_64
Pid:    150938
CWD:    /home/c.zeng/projects/hea-corrosion/hea-mlp/data-curation/surface-mcmc/dft-jobs/230
Python: 3.8.1
gpaw:   /home/c.zeng/usr/installs/gpaw/source/gpaw-22.8.0/gpaw
_gpaw:  /home/c.zeng/usr/installs/gpaw/source/gpaw-22.8.0/
        _gpaw.cpython-38-x86_64-linux-gnu.so
ase:    /home/c.zeng/.local/lib/python3.8/site-packages/ase-3.22.1-py3.8.egg/ase (version 3.22.1)
numpy:  /home/c.zeng/.local/lib/python3.8/site-packages/numpy (version 1.24.2)
scipy:  /home/c.zeng/.local/lib/python3.8/site-packages/scipy (version 1.10.1)
libxc:  4.2.3
units:  Angstrom and eV
cores: 30
OpenMP: False
OMP_NUM_THREADS: 1

Input parameters:
  convergence: {energy: 0.0001}
  kpts: [2 2 1]
  maxiter: 666
  mode: {ecut: 350.0,
         name: pw}
  occupations: {fixmagmom: False,
                name: fermi-dirac,
                width: 0.1}
  poissonsolver: {dipolelayer: xy}
  spinpol: True
  symmetry: {point_group: False}
  xc: PBE

System changes: positions, numbers, cell, pbc, initial_charges, initial_magmoms 

Initialize ...

species:
  Co:
    name: Cobalt
    id: 339d20d5b0b93d2de9531a1bee871d91
    Z: 27.0
    valence: 9
    core: 18
    charge: 0.0
    file: /home/c.zeng/usr/data/gpaw-setups-0.9.20000/Co.PBE.gz
    compensation charges: {type: gauss,
                           rc: 0.32,
                           lmax: 2}
    cutoffs: {filter: 1.87,
              core: 2.55}
    valence states:
      #              energy  rcut
      - 4s(2.00)    -5.469   1.005
      - 4p(0.00)    -1.277   1.058
      - 3d(7.00)    -8.205   1.005
      -  s          21.742   1.005
      -  p          25.934   1.058
      -  d          19.007   1.005
  
    # Using partial waves for Co as LCAO basis

  Al:
    name: Aluminium
    id: 0292cae29f5d6237e50f6abdd43a7bdd
    Z: 13.0
    valence: 3
    core: 10
    charge: 0.0
    file: /home/c.zeng/usr/data/gpaw-setups-0.9.20000/Al.PBE.gz
    compensation charges: {type: gauss,
                           rc: 0.34,
                           lmax: 2}
    cutoffs: {filter: 1.91,
              core: 2.36}
    valence states:
      #              energy  rcut
      - 3s(2.00)    -7.753   1.085
      - 3p(1.00)    -2.712   1.085
      -  s          19.459   1.085
      -  p          24.499   1.085
      -  d           0.000   1.085
  
    # Using partial waves for Al as LCAO basis

  Cr:
    name: Chromium
    id: 33f258bda2ca9f93018e70263a35547b
    Z: 24.0
    valence: 6
    core: 18
    charge: 0.0
    file: /home/c.zeng/usr/data/gpaw-setups-0.9.20000/Cr.PBE.gz
    compensation charges: {type: gauss,
                           rc: 0.35,
                           lmax: 2}
    cutoffs: {filter: 2.14,
              core: 3.04}
    valence states:
      #              energy  rcut
      - 4s(1.00)    -4.007   1.164
      - 4p(0.00)    -0.989   1.217
      - 3d(5.00)    -2.913   1.111
      -  s          23.205   1.164
      -  p          26.223   1.217
      -  d          24.299   1.111
  
    # Using partial waves for Cr as LCAO basis

  Ni:
    name: Nickel
    id: 0d9f38a9d6e76a2886f07bb4381f212b
    Z: 28.0
    valence: 16
    core: 12
    charge: 0.0
    file: /home/c.zeng/usr/data/gpaw-setups-0.9.20000/Ni.PBE.gz
    compensation charges: {type: gauss,
                           rc: 0.36,
                           lmax: 2}
    cutoffs: {filter: 2.14,
              core: 1.98}
    valence states:
      #              energy  rcut
      - 4s(2.00)    -5.642   1.164
      - 3p(6.00)   -71.394   1.207
      - 4p(0.00)    -1.226   1.207
      - 3d(8.00)    -8.875   1.138
      -  s          21.570   1.164
      -  d          18.337   1.138
  
    # Using partial waves for Ni as LCAO basis

  Fe:
    name: Iron
    id: 37abbd8d6c3c35915a9b583b742da910
    Z: 26.0
    valence: 8
    core: 18
    charge: 0.0
    file: /home/c.zeng/usr/data/gpaw-setups-0.9.20000/Fe.PBE.gz
    compensation charges: {type: gauss,
                           rc: 0.33,
                           lmax: 2}
    cutoffs: {filter: 2.06,
              core: 2.67}
    valence states:
      #              energy  rcut
      - 4s(2.00)    -5.291   1.164
      - 4p(0.00)    -1.326   1.058
      - 3d(6.00)    -7.505   1.058
      -  s          21.920   1.164
      -  p          25.885   1.058
      -  d          19.706   1.058
  
    # Using partial waves for Fe as LCAO basis

Reference energy: -3726899.091688  # eV

Spin-polarized calculation.
Magnetic moment: 140.000000

Convergence criteria:
 Maximum [total energy] change in last 3 cyles: 0.0001 eV / electron
 Maximum integral of absolute [dens]ity change: 0.0001 electrons / valence electron
 Maximum integral of absolute [eigenst]ate change: 4e-08 eV^2 / valence electron
 Maximum number of scf [iter]ations: 666
 (Square brackets indicate name in SCF output, whereas a 'c' in
 the SCF output indicates the quantity has converged.)

Symmetries present (total): 1

  ( 1  0  0)
  ( 0  1  0)
  ( 0  0  1)

4 k-points: 2 x 2 x 1 Monkhorst-Pack grid
2 k-points in the irreducible part of the Brillouin zone
       k-points in crystal coordinates                weights
   0:     0.25000000   -0.25000000    0.00000000          2/4
   1:     0.25000000    0.25000000    0.00000000          2/4

Wave functions: Plane wave expansion
  Cutoff energy: 350.000 eV
  Number of coefficients (min, max): 60935, 60955
  Pulay-stress correction: 0.000000 eV/Ang^3 (de/decut=0.000000)
  Using FFTW library
  ScaLapack parameters: grid=1x1, blocksize=None
  Wavefunction extrapolation:
    Improved wavefunction reuse through dual PAW basis 

Occupation numbers: Fermi-Dirac:
  width: 0.1000  # eV
 

Eigensolver
   Davidson(niter=2) 

Densities:
  Coarse grid: 56*56*128 grid
  Fine grid: 112*112*256 grid
  Total Charge: 0.000000 

Density mixing:
  Method: difference
  Backend: pulay
  Linear mixing parameter: 0.05
  old densities: 5
  Damping of long wavelength oscillations: 50 

Hamiltonian:
  XC and Coulomb potentials evaluated on a 112*112*256 grid
  Using the PBE Exchange-Correlation functional
  External potential:
    NoExternalPotential
 

XC parameters: PBE with 2 nearest neighbor stencil

Memory estimate:
  Process memory now: 379.68 MiB
  Calculator: 2131.41 MiB
    Density: 19.02 MiB
      Arrays: 7.39 MiB
      Localized functions: 8.68 MiB
      Mixer: 2.95 MiB
    Hamiltonian: 5.75 MiB
      Arrays: 5.49 MiB
      XC: 0.00 MiB
      Poisson: 0.00 MiB
      vbar: 0.26 MiB
    Wavefunctions: 2106.64 MiB
      Arrays psit_nG: 1335.62 MiB
      Eigensolver: 751.15 MiB
      Projections: 3.10 MiB
      Projectors: 1.18 MiB
      PW-descriptor: 15.59 MiB

Total number of cores used: 30
Parallelization over k-points: 2
Domain decomposition: 1 x 3 x 5

Number of atoms: 125
Number of atomic orbitals: 1075
Number of bands in calculation: 718
Number of valence electrons: 1050
Bands to converge: occupied

... initialized

Initializing position-dependent things.

Density initialized from atomic densities
Creating initial wave functions:
  718 bands from LCAO basis set

                                                                  
                                                                  
                                                                  
                                                                  
                          Fe    Al           Cr    Fe             
                                  Cr                              
                      Cr    Ni          Cr    Cr                  
                       Al    NAl   CFe   AAl    Fe    Al          
                   Al   NCr   CrAl   CNi   NFe   Ni               
        Al                 Fe    Co                               
               Ni   CCo  NNi   CCr    NCr   FAl   Cr              
                Fe   NAl   CCr   CFe     Cr   Al                  
           Ni    Co     Al    AlCo  Ni  Cr               Co       
                 Ni   CFe   FAl   NCo   CFe    Co                 
            Co   CFe    Fe    CCo   NAl                           
        Ni    Al    Ni    Cr Fe Co Al    CCr    Co    Al          
             Al    Ni   FNi    Cr    FFe   Fe    Fe               
               Fe   AAl   CNi   FFe    Ni    Co                   
                 Fe          Ni        Cr                         
                Cr    CAl   Co    Al    Co                        
           Al    Cr     Cr    Ni    Co                            
                                                                  
                                                                  
                                                                  
                                                                  
                                                                  

Positions:
   0 Co    12.697578    1.490688   10.582791    ( 0.0000,  0.0000,  2.1000)
   1 Al     2.542164    1.500437   10.627261    ( 0.0000,  0.0000,  2.0000)
   2 Cr     5.051596    1.499469   10.598054    ( 0.0000,  0.0000,  2.1000)
   3 Cr     7.634905    1.492702   10.546246    ( 0.0000,  0.0000,  2.0000)
   4 Ni    10.187798    1.493538   10.639090    ( 0.0000,  0.0000,  2.1000)
   5 Co    13.968644    3.696637   10.562654    ( 0.0000,  0.0000,  2.0000)
   6 Cr     3.815030    3.662669   10.568965    ( 0.0000,  0.0000,  2.1000)
   7 Cr     6.371550    3.676864   10.379256    ( 0.0000,  0.0000,  0.0000)
   8 Co     8.929883    3.680660   10.627114    ( 0.0000,  0.0000,  2.1000)
   9 Al    11.419281    3.649344   10.658345    ( 0.0000,  0.0000,  2.1000)
  10 Co    15.274513    5.897370   10.548477    ( 0.0000,  0.0000,  2.0000)
  11 Al     5.059810    5.865944   10.632192    ( 0.0000,  0.0000,  2.0000)
  12 Co     7.645770    5.857944   10.631253    ( 0.0000,  0.0000,  2.1000)
  13 Fe    10.112359    5.849582   10.633748    ( 0.0000,  0.0000,  2.1000)
  14 Cr    12.664006    5.872612   10.350226    ( 0.0000,  0.0000,  0.0000)
  15 Fe    16.518089    8.029617   10.573985    ( 0.0000,  0.0000,  2.0000)
  16 Fe     6.372474    8.042931   10.433618    ( 0.0000,  0.0000,  0.0000)
  17 Co     8.899359    8.058149   10.655528    ( 0.0000,  0.0000,  2.1000)
  18 Fe    11.347730    8.053396   10.581235    ( 0.0000,  0.0000,  0.0000)
  19 Fe    13.974474    8.072476   10.508234    ( 0.0000,  0.0000,  1.5000)
  20 Al    17.786763   10.267487   10.540522    ( 0.0000,  0.0000,  1.5000)
  21 Fe     7.620185   10.288537   10.551618    ( 0.0000,  0.0000,  1.5000)
  22 Al    10.097013   10.262150   10.527196    ( 0.0000,  0.0000,  0.0000)
  23 Co    12.628341   10.288140   10.200907    ( 0.0000,  0.0000,  0.0000)
  24 Co    15.305799   10.302687   10.215701    ( 0.0000,  0.0000,  0.0000)
  25 Co    18.929799   10.964438   12.614348    ( 0.0000,  0.0000,  0.0000)
  26 Co     8.907314   10.932825   12.633339    ( 0.0000,  0.0000,  0.0000)
  27 Fe     5.161938    0.027744   12.591364    ( 0.0000,  0.0000,  0.0000)
  28 Al     7.639849   -0.017272   12.455019    ( 0.0000,  0.0000,  2.0000)
  29 Ni    10.112151   -0.034156   12.574340    ( 0.0000,  0.0000,  0.0000)
  30 Ni    13.898459    2.274577   12.629494    ( 0.0000,  0.0000,  0.0000)
  31 Fe     3.834283    2.207500   12.641705    ( 0.0000,  0.0000,  1.5000)
  32 Al     6.373751    2.258204   12.578625    ( 0.0000,  0.0000,  1.5000)
  33 Ni     8.903971    2.228935   12.670354    ( 0.0000,  0.0000,  0.0000)
  34 Fe    11.398903    2.240324   12.667418    ( 0.0000,  0.0000,  2.1000)
  35 Al     2.693918    4.433332   12.569320    ( 0.0000,  0.0000,  0.0000)
  36 Ni     5.180997    4.392564   12.579271    ( 0.0000,  0.0000,  2.0000)
  37 Ni     7.640404    4.433761   12.623682    ( 0.0000,  0.0000,  1.5000)
  38 Cr    10.149737    4.418753   12.659728    ( 0.0000,  0.0000,  2.1000)
  39 Fe    12.642941    4.469149   12.588547    ( 0.0000,  0.0000,  0.0000)
  40 Co     3.879740    6.581821   12.636392    ( 0.0000,  0.0000,  2.0000)
  41 Ni     6.395207    6.593022   12.619455    ( 0.0000,  0.0000,  0.0000)
  42 Cr     8.882544    6.578464   12.632987    ( 0.0000,  0.0000,  2.0000)
  43 Ni    11.378039    6.588192   12.568968    ( 0.0000,  0.0000,  1.5000)
  44 Cr    13.955999    6.597324   12.503922    ( 0.0000,  0.0000,  0.0000)
  45 Co     5.115939    8.711196   12.577128    ( 0.0000,  0.0000,  2.0000)
  46 Fe     7.617963    8.744371   12.628555    ( 0.0000,  0.0000,  1.5000)
  47 Ni    10.162962    8.726392   12.644406    ( 0.0000,  0.0000,  1.5000)
  48 Cr    12.676321    8.832597   12.504509    ( 0.0000,  0.0000,  1.5000)
  49 Co    15.240247    8.741951   12.606188    ( 0.0000,  0.0000,  0.0000)
  50 Ni     1.269616    0.713733   14.695512    ( 0.0000,  0.0000,  2.1000)
  51 Al     3.799097    0.728240   14.717292    ( 0.0000,  0.0000,  0.0000)
  52 Ni     6.399959    0.810401   14.610329    ( 0.0000,  0.0000,  2.1000)
  53 Cr     8.880072    0.764388   14.691902    ( 0.0000,  0.0000,  1.5000)
  54 Co    11.370392    0.737436   14.704406    ( 0.0000,  0.0000,  1.5000)
  55 Co     2.596190    2.870472   14.732086    ( 0.0000,  0.0000,  0.0000)
  56 Fe     5.091424    2.954792   14.649428    ( 0.0000,  0.0000,  0.0000)
  57 Fe     7.608212    2.991224   14.707811    ( 0.0000,  0.0000,  2.1000)
  58 Co    10.154418    2.949686   14.778640    ( 0.0000,  0.0000,  2.1000)
  59 Al    12.643335    2.944834   14.730413    ( 0.0000,  0.0000,  0.0000)
  60 Ni     3.883223    5.134376   14.743182    ( 0.0000,  0.0000,  0.0000)
  61 Fe     6.365651    5.154303   14.674026    ( 0.0000,  0.0000,  2.1000)
  62 Al     8.874207    5.127400   14.687176    ( 0.0000,  0.0000,  2.1000)
  63 Co    11.381160    5.128401   14.701764    ( 0.0000,  0.0000,  1.5000)
  64 Fe    13.994437    5.150045   14.709073    ( 0.0000,  0.0000,  0.0000)
  65 Ni     5.105303    7.314819   14.691491    ( 0.0000,  0.0000,  0.0000)
  66 Co     7.621049    7.313641   14.679104    ( 0.0000,  0.0000,  2.0000)
  67 Co    10.101824    7.296971   14.657206    ( 0.0000,  0.0000,  0.0000)
  68 Cr    12.701036    7.418890   14.544344    ( 0.0000,  0.0000,  0.0000)
  69 Al    15.272539    7.347367   14.706285    ( 0.0000,  0.0000,  2.0000)
  70 Ni     6.372338    9.509071   14.708838    ( 0.0000,  0.0000,  0.0000)
  71 Co     8.874214    9.489484   14.713828    ( 0.0000,  0.0000,  1.5000)
  72 Ni    11.385336    9.581859   14.631493    ( 0.0000,  0.0000,  2.1000)
  73 Fe    13.954574    9.609885   14.606455    ( 0.0000,  0.0000,  2.1000)
  74 Cr    16.558825    9.502579   14.642677    ( 0.0000,  0.0000,  0.0000)
  75 Ni    12.678535    1.403816   16.741746    ( 0.0000,  0.0000,  0.0000)
  76 Ni     2.534863    1.419242   16.733997    ( 0.0000,  0.0000,  2.1000)
  77 Co     5.032024    1.508844   16.664371    ( 0.0000,  0.0000,  1.5000)
  78 Al     7.624501    1.526769   16.714506    ( 0.0000,  0.0000,  2.0000)
  79 Al    10.140089    1.502748   16.858366    ( 0.0000,  0.0000,  2.0000)
  80 Cr    14.024748    3.670735   16.858777    ( 0.0000,  0.0000,  0.0000)
  81 Cr     3.842392    3.667775   16.756276    ( 0.0000,  0.0000,  0.0000)
  82 Al     6.334927    3.681056   16.705378    ( 0.0000,  0.0000,  0.0000)
  83 Cr     8.882482    3.670933   16.761471    ( 0.0000,  0.0000,  2.1000)
  84 Fe    11.419526    3.695856   16.803945    ( 0.0000,  0.0000,  2.0000)
  85 Al    15.257368    5.911564   16.801303    ( 0.0000,  0.0000,  1.5000)
  86 Cr     5.087177    5.870422   16.771246    ( 0.0000,  0.0000,  0.0000)
  87 Ni     7.609371    5.857537   16.712716    ( 0.0000,  0.0000,  2.0000)
  88 Cr    10.109019    5.830149   16.764730    ( 0.0000,  0.0000,  1.5000)
  89 Cr    12.675452    5.872392   16.756129    ( 0.0000,  0.0000,  2.1000)
  90 Ni    16.524277    8.015940   16.738312    ( 0.0000,  0.0000,  2.1000)
  91 Ni     6.365933    8.035031   16.712716    ( 0.0000,  0.0000,  2.1000)
  92 Cr     8.835843    8.056003   16.741658    ( 0.0000,  0.0000,  2.0000)
  93 Co    11.351160    8.059051   16.752372    ( 0.0000,  0.0000,  0.0000)
  94 Ni    13.956058    8.042161   16.704057    ( 0.0000,  0.0000,  1.5000)
  95 Al    17.805404   10.218279   16.745210    ( 0.0000,  0.0000,  0.0000)
  96 Ni     7.627525   10.221888   16.720318    ( 0.0000,  0.0000,  2.1000)
  97 Co    10.100033   10.295513   16.718880    ( 0.0000,  0.0000,  1.5000)
  98 Al    12.667792   10.363481   16.695163    ( 0.0000,  0.0000,  0.0000)
  99 Fe    15.313358   10.247516   16.718322    ( 0.0000,  0.0000,  0.0000)
 100 Fe     6.385878   10.951211   18.797109    ( 0.0000,  0.0000,  0.0000)
 101 Al     8.871549   10.998570   18.734029    ( 0.0000,  0.0000,  0.0000)
 102 Fe     5.012222    0.026603   18.714245    ( 0.0000,  0.0000,  2.0000)
 103 Cr    13.906085   10.955272   18.815278    ( 0.0000,  0.0000,  0.0000)
 104 Fe    16.555065   10.890208   19.190793    ( 0.0000,  0.0000,  0.0000)
 105 Al     1.301962    2.175788   18.880296    ( 0.0000,  0.0000,  0.0000)
 106 Ni     3.763381    2.154408   18.701741    ( 0.0000,  0.0000,  2.0000)
 107 Co     6.282513    2.143955   18.673151    ( 0.0000,  0.0000,  1.5000)
 108 Fe     8.786510    2.178935   18.943933    ( 0.0000,  0.0000,  0.0000)
 109 Co    11.486117    2.202240   18.868055    ( 0.0000,  0.0000,  0.0000)
 110 Fe    15.251278    4.387183   18.855257    ( 0.0000,  0.0000,  1.5000)
 111 Al     5.107352    4.303073   18.990839    ( 0.0000,  0.0000,  0.0000)
 112 Cr     7.597350    4.408838   18.714597    ( 0.0000,  0.0000,  2.0000)
 113 Al    10.211555    4.416706   18.931135    ( 0.0000,  0.0000,  0.0000)
 114 Ni    12.733768    4.452313   18.836295    ( 0.0000,  0.0000,  1.5000)
 115 Fe    16.467351    6.659351   18.958316    ( 0.0000,  0.0000,  0.0000)
 116 Al     6.329237    6.609791   18.727483    ( 0.0000,  0.0000,  1.5000)
 117 Al     8.815790    6.680885   18.889219    ( 0.0000,  0.0000,  0.0000)
 118 Fe    11.427553    6.639820   18.779556    ( 0.0000,  0.0000,  2.0000)
 119 Al    13.906938    6.631006   18.740193    ( 0.0000,  0.0000,  0.0000)
 120 Cr     5.095653    8.774950   18.707200    ( 0.0000,  0.0000,  2.0000)
 121 Ni     7.571098    8.829550   18.729127    ( 0.0000,  0.0000,  1.5000)
 122 Cr    10.146396    8.866884   18.778117    ( 0.0000,  0.0000,  1.5000)
 123 Cr    12.685104    8.811284   18.742072    ( 0.0000,  0.0000,  2.0000)
 124 Cr    15.188299    8.776017   18.730565    ( 0.0000,  0.0000,  2.0000)

Unit cell:
           periodic     x           y           z      points  spacing
  1. axis:    yes   12.688900    0.000000    0.000000    56     0.1962
  2. axis:    yes    6.352870   11.003500    0.000000    56     0.1965
  3. axis:    no     0.000000    0.000000   29.353100   128     0.2293

  Lengths:  12.688900  12.705746  29.353100
  Angles:   90.000000  90.000000  60.000014

Effective grid spacing dv^(1/3) = 0.2169

     iter     time        total  log10-change:  magmom
                         energy  eigst   dens
iter:   1 20:12:30 -1033.593861                  +139.2311
iter:   2 20:14:22 -2868.254941  +1.04  -1.11    +98.1536
iter:   3 20:16:15 -1084.553238  +0.74  -0.60    +68.8582
iter:   4 20:18:08  -956.931243  +0.17  -1.05    +49.7204
iter:   5 20:20:01  -947.037411  -0.40  -1.21    +44.1003
iter:   6 20:21:54  -918.764943  -1.09  -1.22    +41.6955
iter:   7 20:23:47  -920.431498  -1.38  -1.29    +41.1192
iter:   8 20:25:40 -1119.474404  -0.89  -1.28    +42.1126
iter:   9 20:27:32  -919.223462  -1.07  -1.02    +39.4789
iter:  10 20:29:25  -904.616585  -1.64  -1.30    +39.7269
iter:  11 20:31:17  -896.849898  -1.36  -1.39    +41.8772
iter:  12 20:33:10  -968.043725  -1.53  -1.49    +42.7700
iter:  13 20:35:03  -904.395437  -1.45  -1.20    +44.4730
iter:  14 20:36:55  -917.023594  -1.50  -1.47    +43.1559
iter:  15 20:38:47  -897.156028  -1.69  -1.42    +39.5299
iter:  16 20:40:40  -891.776159  -2.36  -1.55    +40.9518
iter:  17 20:42:33  -894.943219  -2.24  -1.66    +42.9324
iter:  18 20:44:25  -901.992918  -1.88  -1.63    +43.1206
iter:  19 20:46:18  -891.334451  -1.96  -1.58    +43.9145
iter:  20 20:48:11  -892.216411  -2.42  -1.74    +45.3381
iter:  21 20:50:03  -895.063516  -2.42  -1.78    +45.4332
iter:  22 20:51:56  -893.058947  -2.31  -1.74    +44.9051
iter:  23 20:53:48  -891.247200  -2.48  -1.82    +45.2659
iter:  24 20:55:41  -890.284381  -2.52  -1.87    +47.5491
iter:  25 20:57:33  -892.126291  -2.63  -2.12    +48.2423
iter:  26 20:59:26  -890.912884  -2.91  -1.98    +48.4389
iter:  27 21:01:19  -892.840209  -2.78  -2.16    +49.3897
iter:  28 21:03:11  -892.288384  -2.92  -2.00    +50.2933
iter:  29 21:05:04  -892.568200  -2.93  -2.09    +50.8488
iter:  30 21:06:57  -892.376999  -3.27  -2.15    +49.9621
iter:  31 21:08:50  -893.078391  -2.82  -2.23    +49.9789
iter:  32 21:10:42  -892.971721  -3.41  -2.21    +50.5581
iter:  33 21:12:35  -893.288045  -3.00  -2.28    +51.2470
iter:  34 21:14:27  -894.173992  -2.74  -2.35    +53.1432
iter:  35 21:16:20  -894.353400  -3.05  -2.27    +53.2897
iter:  36 21:18:12  -893.761662  -3.09  -2.19    +53.9444
iter:  37 21:20:05  -894.200542  -3.28  -2.54    +54.8088
iter:  38 21:21:58  -893.855985  -3.70  -2.33    +54.5168
iter:  39 21:23:50  -894.038545  -3.65  -2.59    +55.0535
iter:  40 21:25:43  -894.072852  -4.11  -2.50    +54.7997
iter:  41 21:27:36  -894.024751c -3.75  -2.47    +54.3491
iter:  42 21:29:29  -894.082850c -4.02  -2.59    +54.4415
iter:  43 21:31:22  -894.291918  -3.53  -2.57    +54.4013
iter:  44 21:33:14  -894.072895  -3.85  -2.45    +54.7149
iter:  45 21:35:07  -894.126939  -3.91  -2.69    +54.8578
iter:  46 21:36:59  -894.205849  -3.77  -2.68    +54.7667
iter:  47 21:38:52  -894.095419  -4.03  -2.60    +54.4840
iter:  48 21:40:44  -894.141283  -4.09  -2.91    +54.5618
iter:  49 21:42:37  -894.123355c -4.46  -2.81    +54.7037
iter:  50 21:44:29  -894.150183c -4.39  -2.96    +54.6840
iter:  51 21:46:22  -894.154993c -4.65  -2.94    +54.7605
iter:  52 21:48:14  -894.179081c -4.50  -2.98    +54.7467
iter:  53 21:50:07  -894.178563c -4.91  -2.94    +54.6420
iter:  54 21:52:00  -894.195588c -4.74  -2.98    +54.5627
iter:  55 21:53:52  -894.214744c -4.70  -2.95    +54.5463
iter:  56 21:55:45  -894.223115c -4.73  -2.93    +54.4823
iter:  57 21:57:37  -894.246665c -4.56  -2.91    +54.4550
iter:  58 21:59:30  -894.300091c -4.47  -2.92    +54.3696
iter:  59 22:01:23  -894.248050c -4.37  -2.76    +54.2598
iter:  60 22:03:16  -894.326458c -4.28  -2.87    +54.1430
iter:  61 22:05:08  -894.263832c -4.64  -2.68    +54.0833
iter:  62 22:07:01  -894.332298c -3.84  -2.88    +53.9646
iter:  63 22:08:54  -894.304185c -4.10  -2.74    +53.9811
iter:  64 22:10:46  -894.295434c -4.23  -2.82    +54.0851
iter:  65 22:12:39  -894.282556c -4.44  -2.86    +53.7975
iter:  66 22:14:32  -894.294334c -4.39  -3.06    +53.5503
iter:  67 22:16:24  -894.289749c -4.67  -3.00    +53.6663
iter:  68 22:18:17  -894.296685c -5.06  -3.10    +53.5351
iter:  69 22:20:10  -894.316550c -4.48  -3.11    +53.1382
iter:  70 22:22:02  -894.331246c -4.61  -3.09    +52.9171
iter:  71 22:23:55  -894.328013c -5.22  -3.01    +52.9441
iter:  72 22:25:47  -894.375616c -4.52  -3.09    +52.9247
iter:  73 22:27:40  -894.336931c -4.89  -2.80    +52.9318
iter:  74 22:29:32  -894.356262c -4.61  -3.06    +52.8758
iter:  75 22:31:25  -894.545605  -4.00  -3.02    +52.8419
iter:  76 22:33:18  -894.359863  -4.22  -2.52    +52.7185
iter:  77 22:35:10  -894.375589  -4.45  -2.99    +52.5530
iter:  78 22:37:03  -894.374415c -4.33  -2.87    +52.4497
iter:  79 22:38:55  -894.358904c -4.59  -2.89    +52.5062
iter:  80 22:40:48  -894.360544c -5.04  -3.05    +52.4803
iter:  81 22:42:41  -894.356112c -5.13  -3.02    +52.3058
iter:  82 22:44:33  -894.358141c -5.16  -3.11    +52.3053
iter:  83 22:46:26  -894.359079c -5.44  -3.10    +52.3072
iter:  84 22:48:18  -894.378732c -4.69  -3.10    +52.2688
iter:  85 22:50:11  -894.361468c -4.84  -2.92    +52.2978
iter:  86 22:52:04  -894.364235c -4.72  -3.10    +52.2841
iter:  87 22:53:56  -894.419260c -4.42  -3.18    +52.2492
iter:  88 22:55:49  -894.358295c -4.62  -2.79    +52.2493
iter:  89 22:57:42  -894.370385c -4.67  -3.29    +52.2410
iter:  90 22:59:35  -894.355846c -5.18  -3.07    +52.3645
iter:  91 23:01:27  -894.360990c -5.20  -3.54    +52.3651
iter:  92 23:03:20  -894.355712c -5.73  -3.28    +52.3739
iter:  93 23:05:13  -894.358514c -5.75  -3.60    +52.3778
iter:  94 23:07:05  -894.360576c -5.44  -3.43    +52.4101
iter:  95 23:08:58  -894.358877c -5.48  -3.42    +52.4316
iter:  96 23:10:50  -894.358699c -5.59  -3.59    +52.3952
iter:  97 23:12:43  -894.359114c -5.71  -3.54    +52.4372
iter:  98 23:14:36  -894.360336c -5.73  -3.67    +52.4295
iter:  99 23:16:29  -894.359065c -6.15  -3.51    +52.4542
iter: 100 23:18:22  -894.360123c -6.02  -3.77    +52.4692
iter: 101 23:20:14  -894.361279c -5.59  -3.79    +52.4972
iter: 102 23:22:07  -894.361022c -6.09  -3.74    +52.4862
iter: 103 23:24:00  -894.362073c -5.79  -3.89    +52.4756
iter: 104 23:25:52  -894.362290c -5.97  -3.72    +52.4656
iter: 105 23:27:45  -894.362684c -5.99  -3.77    +52.4542
iter: 106 23:29:38  -894.362605c -6.22  -3.70    +52.4651
iter: 107 23:31:31  -894.363348c -6.09  -4.02c   +52.4597
iter: 108 23:33:24  -894.363647c -6.31  -3.97    +52.4574
iter: 109 23:35:16  -894.363977c -6.12  -4.08c   +52.4346
iter: 110 23:37:09  -894.364142c -6.54  -3.97    +52.4330
iter: 111 23:39:02  -894.364551c -6.42  -4.19c   +52.4222
iter: 112 23:40:54  -894.366406c -5.40  -4.19c   +52.3925
iter: 113 23:42:47  -894.361172c -4.57  -4.00    +52.4601
iter: 114 23:44:40  -894.361280c -5.85  -4.11c   +52.4412
iter: 115 23:46:33  -894.361751c -6.38  -4.12c   +52.4392
iter: 116 23:48:25  -894.361712c -6.45  -3.82    +52.4319
iter: 117 23:50:18  -894.361954c -6.51  -4.34c   +52.4367
iter: 118 23:52:11  -894.362304c -6.69  -4.38c   +52.4172
iter: 119 23:54:03  -894.362807c -6.46  -4.43c   +52.4036
iter: 120 23:55:56  -894.361877c -6.11  -4.36c   +52.4276
iter: 121 23:57:49  -894.364363c -5.29  -4.36c   +52.3754
iter: 122 23:59:41  -894.362557c -5.76  -3.97    +52.4032
iter: 123 00:01:35  -894.363262c -6.54  -4.35c   +52.3897
iter: 124 00:03:27  -894.361892c -5.78  -4.19c   +52.4046
iter: 125 00:05:20  -894.363421c -5.80  -4.02c   +52.3973
iter: 126 00:07:12  -894.363681c -6.45  -4.25c   +52.3946
iter: 127 00:09:05  -894.364087c -6.36  -4.06c   +52.3835
iter: 128 00:10:58  -894.365687c -5.99  -4.06c   +52.3672
iter: 129 00:12:51  -894.364988c -6.29  -3.66    +52.3545
iter: 130 00:14:43  -894.365132c -5.97  -3.91    +52.3233
iter: 131 00:16:36  -894.365584c -6.06  -3.91    +52.3472
iter: 132 00:18:28  -894.365897c -6.18  -3.93    +52.3599
iter: 133 00:20:21  -894.365854c -6.26  -3.83    +52.3789
iter: 134 00:22:14  -894.367315c -5.97  -4.15c   +52.3725
iter: 135 00:24:06  -894.366232c -6.29  -3.75    +52.3615
iter: 136 00:25:59  -894.366674c -6.42  -4.00c   +52.3687
iter: 137 00:27:51  -894.367086c -6.26  -4.07c   +52.3795
iter: 138 00:29:44  -894.367157c -6.61  -4.08c   +52.3807
iter: 139 00:31:36  -894.367930c -6.18  -3.92    +52.3755
iter: 140 00:33:29  -894.369853c -6.10  -3.85    +52.3704
iter: 141 00:35:22  -894.367960c -6.14  -3.53    +52.3458
iter: 142 00:37:15  -894.368756c -6.11  -3.98    +52.3397
iter: 143 00:39:08  -894.368894c -6.13  -3.91    +52.3430
iter: 144 00:41:01  -894.372596c -5.59  -3.79    +52.3730
iter: 145 00:42:53  -894.368927c -5.94  -3.37    +52.4021
iter: 146 00:44:46  -894.370763c -5.87  -4.02c   +52.4039
iter: 147 00:46:39  -894.368939c -6.28  -3.61    +52.3889
iter: 148 00:48:31  -894.369386c -6.34  -4.07c   +52.3889
iter: 149 00:50:24  -894.369471c -6.70  -4.01c   +52.3908
iter: 150 00:52:17  -894.369781c -6.49  -4.12c   +52.3915
iter: 151 00:54:09  -894.370557c -5.98  -4.03c   +52.3869
iter: 152 00:56:02  -894.369861c -6.20  -3.66    +52.4013
iter: 153 00:57:54  -894.370060c -6.37  -4.05c   +52.3930
iter: 154 00:59:47  -894.370158c -6.39  -4.03c   +52.4040
iter: 155 01:01:40  -894.370146c -6.50  -4.14c   +52.4218
iter: 156 01:03:32  -894.370229c -6.85  -4.28c   +52.4281
iter: 157 01:05:25  -894.370405c -7.00  -4.19c   +52.4350
iter: 158 01:07:18  -894.370464c -7.10  -4.31c   +52.4373
iter: 159 01:09:10  -894.370785c -6.28  -4.40c   +52.4609
iter: 160 01:11:03  -894.370640c -6.45  -4.24c   +52.4345
iter: 161 01:12:55  -894.370746c -6.95  -4.27c   +52.4452
iter: 162 01:14:48  -894.370789c -7.14  -4.53c   +52.4480
iter: 163 01:16:40  -894.370821c -6.95  -4.40c   +52.4481
iter: 164 01:18:33  -894.370969c -6.96  -4.12c   +52.4548
iter: 165 01:20:26  -894.371059c -7.13  -4.40c   +52.4627
iter: 166 01:22:18  -894.371257c -6.84  -4.61c   +52.4785
iter: 167 01:24:11  -894.371323c -7.19  -4.63c   +52.4752
iter: 168 01:26:04  -894.371440c -7.30  -4.56c   +52.4780
iter: 169 01:27:57  -894.371272c -7.25  -4.30c   +52.4811
iter: 170 01:29:50  -894.371465c -7.06  -4.30c   +52.4772
iter: 171 01:31:42  -894.371697c -6.54  -4.46c   +52.4656
iter: 172 01:33:35  -894.371712c -7.06  -4.33c   +52.4811
iter: 173 01:35:27  -894.372345c -6.47  -4.24c   +52.4931
iter: 174 01:37:20  -894.371964c -6.91  -3.83    +52.5056
iter: 175 01:39:13  -894.372044c -7.09  -4.38c   +52.5176
iter: 176 01:41:05  -894.372300c -6.71  -4.29c   +52.5217
iter: 177 01:42:58  -894.372197c -6.96  -4.17c   +52.5237
iter: 178 01:44:50  -894.372226c -7.25  -4.26c   +52.5271
iter: 179 01:46:43  -894.372305c -7.29  -4.27c   +52.5400
iter: 180 01:48:35  -894.372663c -6.90  -4.45c   +52.5404
iter: 181 01:50:28  -894.372403c -7.18  -4.07c   +52.5422
iter: 182 01:52:20  -894.372679c -6.97  -4.51c   +52.5441
iter: 183 01:54:13  -894.372522c -7.47c -4.18c   +52.5410

Converged after 183 iterations.

Dipole moment: (64.486313, 51.233037, 0.030631) |e|*Ang

Total magnetic moment: (0.000000, 0.000000, 52.541044)
Local magnetic moments:
   0 Co ( 0.000000,  0.000000,  1.501472)
   1 Al ( 0.000000,  0.000000, -0.049775)
   2 Cr ( 0.000000,  0.000000,  1.436643)
   3 Cr ( 0.000000,  0.000000,  2.403954)
   4 Ni ( 0.000000,  0.000000,  0.449042)
   5 Co ( 0.000000,  0.000000,  1.142444)
   6 Cr ( 0.000000,  0.000000,  1.642285)
   7 Cr ( 0.000000,  0.000000, -2.699658)
   8 Co ( 0.000000,  0.000000,  1.212845)
   9 Al ( 0.000000,  0.000000, -0.041448)
  10 Co ( 0.000000,  0.000000,  1.058455)
  11 Al ( 0.000000,  0.000000, -0.044034)
  12 Co ( 0.000000,  0.000000,  1.268934)
  13 Fe ( 0.000000,  0.000000,  2.354359)
  14 Cr ( 0.000000,  0.000000, -2.816400)
  15 Fe ( 0.000000,  0.000000,  2.528627)
  16 Fe ( 0.000000,  0.000000,  2.709710)
  17 Co ( 0.000000,  0.000000,  1.417047)
  18 Fe ( 0.000000,  0.000000,  2.536162)
  19 Fe ( 0.000000,  0.000000,  2.523318)
  20 Al ( 0.000000,  0.000000, -0.063226)
  21 Fe ( 0.000000,  0.000000,  2.520021)
  22 Al ( 0.000000,  0.000000, -0.059195)
  23 Co ( 0.000000,  0.000000,  1.453374)
  24 Co ( 0.000000,  0.000000,  1.595800)
  25 Co ( 0.000000,  0.000000,  1.638262)
  26 Co ( 0.000000,  0.000000,  1.400150)
  27 Fe ( 0.000000,  0.000000,  2.268026)
  28 Al ( 0.000000,  0.000000, -0.027039)
  29 Ni ( 0.000000,  0.000000,  0.305436)
  30 Ni ( 0.000000,  0.000000,  0.329217)
  31 Fe ( 0.000000,  0.000000,  1.777695)
  32 Al ( 0.000000,  0.000000, -0.014731)
  33 Ni ( 0.000000,  0.000000,  0.273343)
  34 Fe ( 0.000000,  0.000000,  2.413818)
  35 Al ( 0.000000,  0.000000, -0.023926)
  36 Ni ( 0.000000,  0.000000,  0.105646)
  37 Ni ( 0.000000,  0.000000,  0.305203)
  38 Cr ( 0.000000,  0.000000, -1.531569)
  39 Fe ( 0.000000,  0.000000,  1.906786)
  40 Co ( 0.000000,  0.000000,  1.119998)
  41 Ni ( 0.000000,  0.000000,  0.409577)
  42 Cr ( 0.000000,  0.000000,  0.547965)
  43 Ni ( 0.000000,  0.000000,  0.248782)
  44 Cr ( 0.000000,  0.000000,  1.348344)
  45 Co ( 0.000000,  0.000000,  1.499895)
  46 Fe ( 0.000000,  0.000000,  2.587688)
  47 Ni ( 0.000000,  0.000000,  0.360141)
  48 Cr ( 0.000000,  0.000000, -1.734673)
  49 Co ( 0.000000,  0.000000,  1.096078)
  50 Ni ( 0.000000,  0.000000,  0.300980)
  51 Al ( 0.000000,  0.000000, -0.016114)
  52 Ni ( 0.000000,  0.000000,  0.191879)
  53 Cr ( 0.000000,  0.000000,  1.437850)
  54 Co ( 0.000000,  0.000000,  1.026847)
  55 Co ( 0.000000,  0.000000, -0.657457)
  56 Fe ( 0.000000,  0.000000, -1.961428)
  57 Fe ( 0.000000,  0.000000,  1.431249)
  58 Co ( 0.000000,  0.000000,  0.753459)
  59 Al ( 0.000000,  0.000000, -0.016772)
  60 Ni ( 0.000000,  0.000000, -0.007974)
  61 Fe ( 0.000000,  0.000000,  2.311134)
  62 Al ( 0.000000,  0.000000, -0.011800)
  63 Co ( 0.000000,  0.000000,  0.840680)
  64 Fe ( 0.000000,  0.000000, -1.914203)
  65 Ni ( 0.000000,  0.000000,  0.191100)
  66 Co ( 0.000000,  0.000000,  1.229403)
  67 Co ( 0.000000,  0.000000,  1.082516)
  68 Cr ( 0.000000,  0.000000, -1.496969)
  69 Al ( 0.000000,  0.000000, -0.003329)
  70 Ni ( 0.000000,  0.000000,  0.303147)
  71 Co ( 0.000000,  0.000000,  1.514129)
  72 Ni ( 0.000000,  0.000000,  0.308539)
  73 Fe ( 0.000000,  0.000000,  2.049069)
  74 Cr ( 0.000000,  0.000000, -1.762535)
  75 Ni ( 0.000000,  0.000000, -0.043647)
  76 Ni ( 0.000000,  0.000000, -0.001487)
  77 Co ( 0.000000,  0.000000, -0.766854)
  78 Al ( 0.000000,  0.000000,  0.022766)
  79 Al ( 0.000000,  0.000000,  0.012578)
  80 Cr ( 0.000000,  0.000000, -1.699589)
  81 Cr ( 0.000000,  0.000000,  1.409585)
  82 Al ( 0.000000,  0.000000, -0.012231)
  83 Cr ( 0.000000,  0.000000, -1.103261)
  84 Fe ( 0.000000,  0.000000,  1.663574)
  85 Al ( 0.000000,  0.000000,  0.001810)
  86 Cr ( 0.000000,  0.000000, -1.498570)
  87 Ni ( 0.000000,  0.000000,  0.161884)
  88 Cr ( 0.000000,  0.000000,  0.938370)
  89 Cr ( 0.000000,  0.000000,  1.203695)
  90 Ni ( 0.000000,  0.000000,  0.065576)
  91 Ni ( 0.000000,  0.000000,  0.187434)
  92 Cr ( 0.000000,  0.000000, -1.582599)
  93 Co ( 0.000000,  0.000000,  0.636561)
  94 Ni ( 0.000000,  0.000000,  0.147912)
  95 Al ( 0.000000,  0.000000,  0.019916)
  96 Ni ( 0.000000,  0.000000,  0.081241)
  97 Co ( 0.000000,  0.000000,  1.025944)
  98 Al ( 0.000000,  0.000000, -0.003572)
  99 Fe ( 0.000000,  0.000000, -1.653010)
 100 Fe ( 0.000000,  0.000000, -2.384899)
 101 Al ( 0.000000,  0.000000, -0.006036)
 102 Fe ( 0.000000,  0.000000,  2.073787)
 103 Cr ( 0.000000,  0.000000, -2.051766)
 104 Fe ( 0.000000,  0.000000, -2.688602)
 105 Al ( 0.000000,  0.000000,  0.018844)
 106 Ni ( 0.000000,  0.000000,  0.088982)
 107 Co ( 0.000000,  0.000000, -0.455549)
 108 Fe ( 0.000000,  0.000000, -2.340095)
 109 Co ( 0.000000,  0.000000, -1.200944)
 110 Fe ( 0.000000,  0.000000,  2.194272)
 111 Al ( 0.000000,  0.000000, -0.011818)
 112 Cr ( 0.000000,  0.000000,  2.149616)
 113 Al ( 0.000000,  0.000000, -0.006004)
 114 Ni ( 0.000000,  0.000000,  0.015233)
 115 Fe ( 0.000000,  0.000000, -2.049643)
 116 Al ( 0.000000,  0.000000, -0.003658)
 117 Al ( 0.000000,  0.000000, -0.014789)
 118 Fe ( 0.000000,  0.000000,  1.831602)
 119 Al ( 0.000000,  0.000000, -0.019652)
 120 Cr ( 0.000000,  0.000000,  2.515810)
 121 Ni ( 0.000000,  0.000000, -0.023943)
 122 Cr ( 0.000000,  0.000000,  1.704439)
 123 Cr ( 0.000000,  0.000000,  1.370077)
 124 Cr ( 0.000000,  0.000000,  1.904509)

Energy contributions relative to reference atoms: (reference = -3726899.091688)

Kinetic:       +416.703553
Potential:     -382.644939
External:        +0.000000
XC:            -961.188337
Entropy (-ST):   -5.055999
Local:          +35.285201
--------------------------
Free energy:   -896.900522
Extrapolated:  -894.372522

Dipole-layer corrected work functions: 4.838452, 4.798754 eV

Spin contamination: 44.132962 electrons
Showing all kpts
                      Up                     Down
 Kpt  Band  Eigenvalues  Occupancy  Eigenvalues  Occupancy
  0   523      0.06281    0.97975      0.73890    0.05307
  0   524      0.07203    0.97784      0.74535    0.04991
  0   525      0.08294    0.97535      0.75438    0.04580
  0   526      0.09460    0.97238      0.77370    0.03806

  1   523      0.04229    0.98344      0.74225    0.05141
  1   524      0.04903    0.98231      0.75026    0.04764
  1   525      0.06120    0.98007      0.76328    0.04207
  1   526      0.07733    0.97666      0.76788    0.04025


Fermi level: 0.45073

Gap: 0.002 eV
Transition (v -> c):
  (s=0, k=0, n=551, [0.25, -0.25, 0.00]) -> (s=1, k=1, n=499, [0.25, 0.25, 0.00])

Forces in eV/Ang:
  0 Co    0.17704   -0.11846    0.46944
  1 Al   -1.45807    0.20968   -0.64848
  2 Cr    0.35138    0.13694   -0.72497
  3 Cr    0.38739    0.15007   -1.28899
  4 Ni   -0.15435   -0.10545   -0.17975
  5 Co   -0.13669    0.22332    0.54165
  6 Cr    0.39378   -0.42237   -0.88535
  7 Cr    0.27376   -0.19630    0.09497
  8 Co   -0.00242    0.23122    0.24061
  9 Al    0.00163   -0.66507   -1.95763
 10 Co   -0.41733   -0.15028    0.10736
 11 Al    0.36960    0.51827   -0.82606
 12 Co    0.16977    0.20027    0.00751
 13 Fe   -0.36858   -0.27013   -0.57009
 14 Cr    0.45566    0.58058    0.58235
 15 Fe   -0.71067    0.41652    0.15791
 16 Fe    0.46961   -0.00914    0.45738
 17 Co   -0.32561   -0.15238   -0.19886
 18 Fe    0.36701    0.24164   -0.18842
 19 Fe    0.00287    0.67875   -0.17776
 20 Al   -0.31586    0.20060   -0.61461
 21 Fe   -0.24953    0.01180    0.47238
 22 Al    0.70067   -0.83124   -0.48386
 23 Co    0.36430   -0.15215    1.16742
 24 Co   -0.51610   -0.45250    1.03892
 25 Co    1.02790    0.15411    0.55754
 26 Co   -0.29335    0.30598    0.20343
 27 Fe   -0.64490   -0.51583   -0.21224
 28 Al    0.90900   -0.69287    0.04331
 29 Ni    0.03081    0.05457    0.31278
 30 Ni    0.38730   -0.46428    0.30547
 31 Fe    0.06986   -0.18808    0.20467
 32 Al    0.18992    0.62435    0.70524
 33 Ni   -0.22440   -0.08066   -0.16271
 34 Fe   -0.16347   -0.95206    0.24339
 35 Al   -0.94061   -0.27610    1.14489
 36 Ni   -0.36957   -0.11260    0.40401
 37 Ni    0.06589   -0.18536   -0.30842
 38 Cr   -0.00375   -0.01864   -0.03556
 39 Fe    0.40401   -0.15013    0.22261
 40 Co   -0.25993    0.60652    0.17820
 41 Ni   -0.16631    0.06425    0.21003
 42 Cr    0.09297    0.24974   -0.37267
 43 Ni    0.40160    0.12312    0.43483
 44 Cr   -0.02519    0.41949    0.28879
 45 Co   -0.08758    0.29002    0.23956
 46 Fe   -0.23155    0.60581    0.23049
 47 Ni   -0.05234    0.65913    0.23949
 48 Cr   -0.43545   -0.72166   -0.44972
 49 Co    0.20680    0.23947   -0.15122
 50 Ni   -0.20882   -0.11053   -0.35679
 51 Al   -0.10841   -0.26786   -0.36955
 52 Ni   -0.30198   -0.21679    0.07154
 53 Cr    0.93457    0.02844   -0.41969
 54 Co   -0.07266   -0.44635   -0.49527
 55 Co   -0.35425    0.98031   -0.21396
 56 Fe   -0.50027    0.18531    0.18345
 57 Fe    0.48219   -0.31228   -0.03109
 58 Co   -0.32045   -0.23969   -0.31589
 59 Al    0.64172   -0.14412   -0.06495
 60 Ni   -0.40110   -0.03282   -0.40496
 61 Fe   -0.53756    0.15425   -0.33183
 62 Al   -0.17096    0.23448    0.10108
 63 Co    0.51193    0.55243    0.05306
 64 Fe   -0.14378   -0.34816   -0.26034
 65 Ni    0.16191    0.08515   -0.21083
 66 Co    0.12629    0.27969   -0.29095
 67 Co    0.61785    0.27702    0.22999
 68 Cr   -0.94967   -0.44711    0.62379
 69 Al    0.07306   -0.18155   -0.92283
 70 Ni   -0.05197    0.12262   -0.63782
 71 Co   -0.00623   -0.18569   -0.39600
 72 Ni    0.19390   -0.47273    0.19225
 73 Fe    0.21007   -0.79089   -0.19630
 74 Cr   -0.28743    0.83950   -0.87912
 75 Ni    0.16767    0.51894    0.24349
 76 Ni   -0.35767    0.43018   -0.17848
 77 Co   -0.04321    0.17709    0.51242
 78 Al   -0.64355   -0.65491    0.51263
 79 Al    1.26583   -0.38906    0.47202
 80 Cr   -0.01539    0.12857   -0.24959
 81 Cr   -0.63112   -0.38251   -0.30596
 82 Al   -0.26221   -0.00134   -0.14877
 83 Cr    0.37576    0.72365    0.52391
 84 Fe    0.36597    0.02032    0.20671
 85 Al    0.47624   -0.25045   -0.25407
 86 Cr   -0.41195   -0.18456   -0.62604
 87 Ni   -0.02085    0.45806    0.02352
 88 Cr    0.76980    0.52943    0.01221
 89 Cr   -1.02987   -0.22322   -1.31472
 90 Ni   -0.04036    0.26467   -0.01875
 91 Ni   -0.12842    0.02552   -0.04744
 92 Cr    0.51384    0.37191   -0.66571
 93 Co    0.41199   -0.02958   -0.13823
 94 Ni   -0.13449    0.62895   -0.36798
 95 Al    0.37043    0.31088   -0.61087
 96 Ni   -0.02327    0.35269   -0.17932
 97 Co    0.53144   -0.68314    0.29498
 98 Al   -0.44319   -1.35979   -0.99987
 99 Fe   -0.65275    0.17647    0.44060
100 Fe   -1.04550    0.55879    0.18449
101 Al    0.12187   -0.34326    0.77542
102 Fe    0.09798    0.23554   -0.14704
103 Cr    0.01359   -0.11127    0.58565
104 Fe    0.02002    0.53702   -0.92200
105 Al   -0.75205    0.45292    0.73777
106 Ni    0.29024    0.36619    0.27985
107 Co    0.44607   -0.01267   -0.01631
108 Fe    0.44657    0.29063   -0.31599
109 Co   -0.47134   -0.37753   -0.48140
110 Fe   -0.22164    0.20443   -0.32504
111 Al   -0.89682   -0.33148    0.74312
112 Cr    0.94555   -1.05515    0.42760
113 Al    0.45785   -0.68071    0.73909
114 Ni   -0.12232   -0.37326    0.03963
115 Fe    0.21434   -0.06457   -0.58920
116 Al    0.20599    0.40196    1.27243
117 Al    0.66799   -0.02202    0.82740
118 Fe   -0.56770    0.08341   -0.25530
119 Al   -0.06465   -0.51250    2.29253
120 Cr   -0.32130    0.07885    1.44853
121 Ni    0.36482   -0.34307    0.21845
122 Cr    0.66630   -0.49615   -0.45020
123 Cr   -0.38531    0.13603    0.02143
124 Cr    0.22696    0.56197    0.03893

Timing:                              incl.     excl.
-----------------------------------------------------------
Forces:                             31.671    31.671   0.2% |
Hamiltonian:                         1.261     0.011   0.0% |
 Atomic:                             0.316     0.001   0.0% |
  XC Correction:                     0.315     0.315   0.0% |
 Calculate atomic Hamiltonians:      0.443     0.443   0.0% |
 Communicate:                        0.104     0.104   0.0% |
 Initialize Hamiltonian:             0.001     0.001   0.0% |
 Poisson:                            0.084     0.084   0.0% |
 XC 3D grid:                         0.303     0.303   0.0% |
LCAO initialization:               208.706     0.468   0.0% |
 LCAO eigensolver:                  10.487     0.009   0.0% |
  Calculate projections:             0.000     0.000   0.0% |
  DenseAtomicCorrection:             0.000     0.000   0.0% |
  Distribute overlap matrix:         6.957     6.957   0.0% |
  Orbital Layouts:                   3.497     3.497   0.0% |
  Potential matrix:                  0.002     0.002   0.0% |
  Sum over cells:                    0.021     0.021   0.0% |
 LCAO to grid:                     196.022   196.022   0.9% |
 Set positions (LCAO WFS):           1.730     1.479   0.0% |
  Basic WFS set positions:           0.003     0.003   0.0% |
  Basis functions set positions:     0.000     0.000   0.0% |
  P tci:                             0.000     0.000   0.0% |
  ST tci:                            0.097     0.097   0.0% |
  mktci:                             0.151     0.151   0.0% |
PWDescriptor:                        0.089     0.089   0.0% |
SCF-cycle:                       20627.758     2.469   0.0% |
 Davidson:                       20078.728  6981.470  33.4% |------------|
  Apply H:                         389.753   382.890   1.8% ||
   HMM T:                            6.863     6.863   0.0% |
  Subspace diag:                  2232.879     0.053   0.0% |
   calc_h_matrix:                  933.176   581.791   2.8% ||
    Apply H:                       351.386   344.619   1.7% ||
     HMM T:                          6.767     6.767   0.0% |
   diagonalize:                    176.695   176.695   0.8% |
   rotate_psi:                    1122.956  1122.956   5.4% |-|
  calc. matrices:                 5216.617  4563.542  21.9% |--------|
   Apply H:                        653.075   639.470   3.1% ||
    HMM T:                          13.605    13.605   0.1% |
  diagonalize:                    2881.907  2881.907  13.8% |-----|
  rotate_psi:                     2376.101  2376.101  11.4% |----|
 Density:                          312.520     0.005   0.0% |
  Atomic density matrices:           3.881     3.881   0.0% |
  Mix:                             104.433   104.433   0.5% |
  Multipole moments:                 0.110     0.110   0.0% |
  Pseudo density:                  204.091   204.084   1.0% |
   Symmetrize density:               0.008     0.008   0.0% |
 Hamiltonian:                      219.371     1.915   0.0% |
  Atomic:                           58.416     0.199   0.0% |
   XC Correction:                   58.217    58.217   0.3% |
  Calculate atomic Hamiltonians:    80.859    80.859   0.4% |
  Communicate:                      17.716    17.716   0.1% |
  Poisson:                           5.838     5.838   0.0% |
  XC 3D grid:                       54.626    54.626   0.3% |
 Orthonormalize:                    14.671     0.000   0.0% |
  calc_s_matrix:                     1.749     1.749   0.0% |
  inverse-cholesky:                  0.604     0.604   0.0% |
  projections:                       9.273     9.273   0.0% |
  rotate_psi_s:                      3.045     3.045   0.0% |
Set symmetry:                        0.001     0.001   0.0% |
Other:                               6.535     6.535   0.0% |
-----------------------------------------------------------
Total:                                     20876.021 100.0%

Date: Thu Apr 20 01:54:48 2023
