
  ___ ___ ___ _ _ _  
 |   |   |_  | | | | 
 | | | | | . | | | | 
 |__ |  _|___|_____|  22.8.0
 |___|_|             

User:   c.zeng@d0102
Date:   Mon Apr 17 22:56:50 2023
Arch:   x86_64
Pid:    278961
CWD:    /home/c.zeng/projects/hea-corrosion/hea-mlp/data-curation/surface-md/dft-jobs/9
Python: 3.8.1
gpaw:   /home/c.zeng/usr/installs/gpaw/source/gpaw-22.8.0/gpaw
_gpaw:  /home/c.zeng/usr/installs/gpaw/source/gpaw-22.8.0/
        _gpaw.cpython-38-x86_64-linux-gnu.so
ase:    /home/c.zeng/.local/lib/python3.8/site-packages/ase-3.22.1-py3.8.egg/ase (version 3.22.1)
numpy:  /home/c.zeng/.local/lib/python3.8/site-packages/numpy (version 1.24.2)
scipy:  /home/c.zeng/.local/lib/python3.8/site-packages/scipy (version 1.10.1)
libxc:  4.2.3
units:  Angstrom and eV
cores: 30
OpenMP: False
OMP_NUM_THREADS: 1

Input parameters:
  convergence: {energy: 0.0001}
  kpts: [2 2 1]
  maxiter: 666
  mode: {ecut: 350.0,
         name: pw}
  occupations: {fixmagmom: False,
                name: fermi-dirac,
                width: 0.1}
  poissonsolver: {dipolelayer: xy}
  spinpol: True
  symmetry: {point_group: False}
  xc: PBE

System changes: positions, numbers, cell, pbc, initial_charges, initial_magmoms 

Initialize ...

species:
  Cr:
    name: Chromium
    id: 33f258bda2ca9f93018e70263a35547b
    Z: 24.0
    valence: 6
    core: 18
    charge: 0.0
    file: /home/c.zeng/usr/data/gpaw-setups-0.9.20000/Cr.PBE.gz
    compensation charges: {type: gauss,
                           rc: 0.35,
                           lmax: 2}
    cutoffs: {filter: 2.14,
              core: 3.04}
    valence states:
      #              energy  rcut
      - 4s(1.00)    -4.007   1.164
      - 4p(0.00)    -0.989   1.217
      - 3d(5.00)    -2.913   1.111
      -  s          23.205   1.164
      -  p          26.223   1.217
      -  d          24.299   1.111
  
    # Using partial waves for Cr as LCAO basis

  Fe:
    name: Iron
    id: 37abbd8d6c3c35915a9b583b742da910
    Z: 26.0
    valence: 8
    core: 18
    charge: 0.0
    file: /home/c.zeng/usr/data/gpaw-setups-0.9.20000/Fe.PBE.gz
    compensation charges: {type: gauss,
                           rc: 0.33,
                           lmax: 2}
    cutoffs: {filter: 2.06,
              core: 2.67}
    valence states:
      #              energy  rcut
      - 4s(2.00)    -5.291   1.164
      - 4p(0.00)    -1.326   1.058
      - 3d(6.00)    -7.505   1.058
      -  s          21.920   1.164
      -  p          25.885   1.058
      -  d          19.706   1.058
  
    # Using partial waves for Fe as LCAO basis

  Ni:
    name: Nickel
    id: 0d9f38a9d6e76a2886f07bb4381f212b
    Z: 28.0
    valence: 16
    core: 12
    charge: 0.0
    file: /home/c.zeng/usr/data/gpaw-setups-0.9.20000/Ni.PBE.gz
    compensation charges: {type: gauss,
                           rc: 0.36,
                           lmax: 2}
    cutoffs: {filter: 2.14,
              core: 1.98}
    valence states:
      #              energy  rcut
      - 4s(2.00)    -5.642   1.164
      - 3p(6.00)   -71.394   1.207
      - 4p(0.00)    -1.226   1.207
      - 3d(8.00)    -8.875   1.138
      -  s          21.570   1.164
      -  d          18.337   1.138
  
    # Using partial waves for Ni as LCAO basis

  Co:
    name: Cobalt
    id: 339d20d5b0b93d2de9531a1bee871d91
    Z: 27.0
    valence: 9
    core: 18
    charge: 0.0
    file: /home/c.zeng/usr/data/gpaw-setups-0.9.20000/Co.PBE.gz
    compensation charges: {type: gauss,
                           rc: 0.32,
                           lmax: 2}
    cutoffs: {filter: 1.87,
              core: 2.55}
    valence states:
      #              energy  rcut
      - 4s(2.00)    -5.469   1.005
      - 4p(0.00)    -1.277   1.058
      - 3d(7.00)    -8.205   1.005
      -  s          21.742   1.005
      -  p          25.934   1.058
      -  d          19.007   1.005
  
    # Using partial waves for Co as LCAO basis

Reference energy: -4451268.207082  # eV

Spin-polarized calculation.
Magnetic moment: 175.600000

Convergence criteria:
 Maximum [total energy] change in last 3 cyles: 0.0001 eV / electron
 Maximum integral of absolute [dens]ity change: 0.0001 electrons / valence electron
 Maximum integral of absolute [eigenst]ate change: 4e-08 eV^2 / valence electron
 Maximum number of scf [iter]ations: 666
 (Square brackets indicate name in SCF output, whereas a 'c' in
 the SCF output indicates the quantity has converged.)

Symmetries present (total): 1

  ( 1  0  0)
  ( 0  1  0)
  ( 0  0  1)

4 k-points: 2 x 2 x 1 Monkhorst-Pack grid
2 k-points in the irreducible part of the Brillouin zone
       k-points in crystal coordinates                weights
   0:     0.25000000   -0.25000000    0.00000000          2/4
   1:     0.25000000    0.25000000    0.00000000          2/4

Wave functions: Plane wave expansion
  Cutoff energy: 350.000 eV
  Number of coefficients (min, max): 58495, 58567
  Pulay-stress correction: 0.000000 eV/Ang^3 (de/decut=0.000000)
  Using FFTW library
  ScaLapack parameters: grid=1x1, blocksize=None
  Wavefunction extrapolation:
    Improved wavefunction reuse through dual PAW basis 

Occupation numbers: Fermi-Dirac:
  width: 0.1000  # eV
 

Eigensolver
   Davidson(niter=2) 

Densities:
  Coarse grid: 54*54*128 grid
  Fine grid: 108*108*256 grid
  Total Charge: 0.000000 

Density mixing:
  Method: difference
  Backend: pulay
  Linear mixing parameter: 0.05
  old densities: 5
  Damping of long wavelength oscillations: 50 

Hamiltonian:
  XC and Coulomb potentials evaluated on a 108*108*256 grid
  Using the PBE Exchange-Correlation functional
  External potential:
    NoExternalPotential
 

XC parameters: PBE with 2 nearest neighbor stencil

Memory estimate:
  Process memory now: 369.34 MiB
  Calculator: 2405.48 MiB
    Density: 16.73 MiB
      Arrays: 6.75 MiB
      Localized functions: 7.29 MiB
      Mixer: 2.70 MiB
    Hamiltonian: 5.22 MiB
      Arrays: 5.01 MiB
      XC: 0.00 MiB
      Poisson: 0.00 MiB
      vbar: 0.21 MiB
    Wavefunctions: 2383.52 MiB
      Arrays psit_nG: 1501.35 MiB
      Eigensolver: 862.84 MiB
      Projections: 3.85 MiB
      Projectors: 0.98 MiB
      PW-descriptor: 14.51 MiB

Total number of cores used: 30
Parallelization over k-points: 2
Domain decomposition: 1 x 3 x 5

Number of atoms: 125
Number of atomic orbitals: 1218
Number of bands in calculation: 840
Number of valence electrons: 1217
Bands to converge: occupied

... initialized

Initializing position-dependent things.

Density initialized from atomic densities
Creating initial wave functions:
  840 bands from LCAO basis set

                                                                 
                                                                 
                                                                 
                                                                 
                                         Ni                      
                                          Cr        Co           
                                   Co           Cr               
                        Ni    Ni     Co     Cr                   
               Co   Cr    Ni   CoCr    Co  Co    Fe    Co        
                 Ni  Ni    Ni        Fe     Fe                   
                       Fe  CCNi NNi    Cr     Ni   Fe            
           Co         Ni Fe        Cr  Fe    Co    Fe            
       Co         Fe    NiCr  Co NFe   NFe    Cr                 
                 CoNi Fe Fe Ni    CrFe    Co       Fe            
              Ni        Cr    CCo   FeFeFe    Fe                 
                  FCo     CoNi  Co Co    NiCo       Cr           
              Fe   Ni CrNi   NiCo     Cr       Fe                
         Co    Fe          Fe   FeCrrNi   NiCo  Cr   Cr          
                   CrFe Ni  Cr Ni    FCr   Cr                    
          Fe  NiCo     Cr  Cr    CFe                             
           Co        Cr    Cr     CrCoFe                         
                 Co    Co                   Ni                   
            Fe  Fe            Ni    Cr Cr                        
                  Ni                                             
                                                                 
                                                                 
                                                                 
                                                                 
                                                                 

Positions:
   0 Cr    12.184771    1.025781   10.199476    ( 0.0000,  0.0000,  0.0000)
   1 Fe     2.166753    1.365503   10.215988    ( 0.0000,  0.0000,  2.0000)
   2 Ni     4.481300    1.305163    9.341659    ( 0.0000,  0.0000,  1.5000)
   3 Co     6.677501    1.341573   10.908070    ( 0.0000,  0.0000,  2.1000)
   4 Ni     9.576513    1.213149   10.498959    ( 0.0000,  0.0000,  1.5000)
   5 Cr    12.977826    3.233439    9.590762    ( 0.0000,  0.0000,  0.0000)
   6 Fe     3.329794    3.416667    8.893945    ( 0.0000,  0.0000,  2.0000)
   7 Cr     5.425219    3.901474   10.836889    ( 0.0000,  0.0000,  0.0000)
   8 Cr     7.925232    3.538314   10.459008    ( 0.0000,  0.0000,  0.0000)
   9 Cr    10.775719    3.295692   10.394922    ( 0.0000,  0.0000,  0.0000)
  10 Ni    14.531811    5.514314    9.081750    ( 0.0000,  0.0000,  1.5000)
  11 Cr     3.980197    5.788725   11.047856    ( 0.0000,  0.0000,  0.0000)
  12 Cr     7.250629    6.135071   10.609850    ( 0.0000,  0.0000,  0.0000)
  13 Cr     9.622151    5.816933   10.332751    ( 0.0000,  0.0000,  0.0000)
  14 Fe    12.069520    5.223072    9.909021    ( 0.0000,  0.0000,  2.0000)
  15 Cr    15.426946    8.078327   10.579675    ( 0.0000,  0.0000,  0.0000)
  16 Ni     5.638273    7.748292   10.438618    ( 0.0000,  0.0000,  1.5000)
  17 Ni     8.459825    8.088851   10.413918    ( 0.0000,  0.0000,  1.5000)
  18 Fe    10.865593    8.081940    9.985066    ( 0.0000,  0.0000,  2.0000)
  19 Cr    13.243809    7.656987   10.151264    ( 0.0000,  0.0000,  0.0000)
  20 Cr    16.784235   10.033231   10.304324    ( 0.0000,  0.0000,  0.0000)
  21 Ni     6.999787    9.838324   10.734331    ( 0.0000,  0.0000,  1.5000)
  22 Cr     9.367764   10.055459    9.735495    ( 0.0000,  0.0000,  0.0000)
  23 Ni    12.367383   10.162341    9.581295    ( 0.0000,  0.0000,  1.5000)
  24 Fe    14.405622   10.089039   11.013642    ( 0.0000,  0.0000,  2.0000)
  25 Co    12.242770    0.118225   12.675048    ( 0.0000,  0.0000,  2.1000)
  26 Co     2.306844    0.057507   12.347609    ( 0.0000,  0.0000,  2.1000)
  27 Co     4.622612   -0.073497   11.626993    ( 0.0000,  0.0000,  2.1000)
  28 Cr     7.002436    0.140992   13.060556    ( 0.0000,  0.0000,  0.0000)
  29 Fe    15.973228   10.827791   12.572107    ( 0.0000,  0.0000,  2.0000)
  30 Fe     1.120901    2.234470   12.306658    ( 0.0000,  0.0000,  2.0000)
  31 Co     3.640472    2.201102   11.923738    ( 0.0000,  0.0000,  2.1000)
  32 Fe     5.837216    2.268721   13.077918    ( 0.0000,  0.0000,  2.0000)
  33 Cr     8.519507    2.226941   12.555356    ( 0.0000,  0.0000,  0.0000)
  34 Fe    11.181100    2.146919   12.397781    ( 0.0000,  0.0000,  2.0000)
  35 Ni     2.342266    4.119372   11.036495    ( 0.0000,  0.0000,  1.5000)
  36 Ni     4.541891    4.196454   13.284866    ( 0.0000,  0.0000,  1.5000)
  37 Cr     7.593147    4.317540   13.001031    ( 0.0000,  0.0000,  0.0000)
  38 Fe     9.765735    4.309970   12.480231    ( 0.0000,  0.0000,  2.0000)
  39 Cr    12.220505    4.367775   11.987600    ( 0.0000,  0.0000,  0.0000)
  40 Fe     3.501495    6.397066   13.244455    ( 0.0000,  0.0000,  2.0000)
  41 Ni     5.979554    6.322342   12.795536    ( 0.0000,  0.0000,  1.5000)
  42 Co     8.781002    6.486954   12.720948    ( 0.0000,  0.0000,  2.1000)
  43 Ni    11.082579    6.676859   11.926678    ( 0.0000,  0.0000,  1.5000)
  44 Co    13.991104    6.428562   11.783574    ( 0.0000,  0.0000,  2.1000)
  45 Cr    17.105277    8.381374   12.659011    ( 0.0000,  0.0000,  0.0000)
  46 Ni     7.231208    8.431177   12.639226    ( 0.0000,  0.0000,  1.5000)
  47 Co     9.811178    8.553322   12.488689    ( 0.0000,  0.0000,  2.1000)
  48 Ni    12.306562    8.978939   11.767510    ( 0.0000,  0.0000,  1.5000)
  49 Fe    14.486822    8.443783   13.076525    ( 0.0000,  0.0000,  2.0000)
  50 Co     1.235061    0.790689   14.362583    ( 0.0000,  0.0000,  2.1000)
  51 Fe     3.694469    1.060782   14.101241    ( 0.0000,  0.0000,  2.0000)
  52 Cr     6.248730    0.757181   15.170695    ( 0.0000,  0.0000,  0.0000)
  53 Fe     8.553861    0.341515   14.833356    ( 0.0000,  0.0000,  2.0000)
  54 Cr    11.270790    0.629507   14.652190    ( 0.0000,  0.0000,  0.0000)
  55 Fe     2.510065    3.234812   14.009085    ( 0.0000,  0.0000,  2.0000)
  56 Co     4.763536    2.821517   15.407604    ( 0.0000,  0.0000,  2.1000)
  57 Co     7.565473    2.633274   14.858109    ( 0.0000,  0.0000,  2.1000)
  58 Co    10.095035    2.734546   14.676065    ( 0.0000,  0.0000,  2.1000)
  59 Cr    12.449218    2.870905   14.397085    ( 0.0000,  0.0000,  0.0000)
  60 Co     3.473347    4.736883   15.477611    ( 0.0000,  0.0000,  2.1000)
  61 Cr     6.274247    4.716584   14.938872    ( 0.0000,  0.0000,  0.0000)
  62 Co     8.634298    4.986300   14.982320    ( 0.0000,  0.0000,  2.1000)
  63 Fe    11.233827    5.201493   14.333646    ( 0.0000,  0.0000,  2.0000)
  64 Co    13.790637    5.273498   13.689233    ( 0.0000,  0.0000,  2.1000)
  65 Fe     4.995041    6.561181   15.078704    ( 0.0000,  0.0000,  2.0000)
  66 Ni     7.315425    6.957297   14.747408    ( 0.0000,  0.0000,  1.5000)
  67 Cr     9.946148    7.377209   14.630315    ( 0.0000,  0.0000,  0.0000)
  68 Fe    12.419853    7.197276   13.833765    ( 0.0000,  0.0000,  2.0000)
  69 Cr    14.912086    7.017508   15.416411    ( 0.0000,  0.0000,  0.0000)
  70 Cr     6.057487    9.290539   14.467227    ( 0.0000,  0.0000,  0.0000)
  71 Ni     8.891200    9.374470   14.618781    ( 0.0000,  0.0000,  1.5000)
  72 Ni    11.184278    9.677085   14.074820    ( 0.0000,  0.0000,  1.5000)
  73 Co    13.710914    9.072187   15.231630    ( 0.0000,  0.0000,  2.1000)
  74 Fe    16.152872    9.165464   14.860567    ( 0.0000,  0.0000,  2.0000)
  75 Fe    12.876302    1.545447   16.494600    ( 0.0000,  0.0000,  2.0000)
  76 Ni     2.795879    1.672091   16.369628    ( 0.0000,  0.0000,  1.5000)
  77 Ni     5.153942    1.503864   17.628077    ( 0.0000,  0.0000,  1.5000)
  78 Fe     7.483471    1.117292   17.204816    ( 0.0000,  0.0000,  2.0000)
  79 Co     9.958991    1.303175   16.827661    ( 0.0000,  0.0000,  2.1000)
  80 Co    14.006676    3.558095   16.438163    ( 0.0000,  0.0000,  2.1000)
  81 Fe     4.101109    3.468937   17.498291    ( 0.0000,  0.0000,  2.0000)
  82 Ni     6.663553    3.354542   17.406301    ( 0.0000,  0.0000,  1.5000)
  83 Co     8.948477    3.501759   16.881585    ( 0.0000,  0.0000,  2.1000)
  84 Fe    11.602677    3.628329   16.531731    ( 0.0000,  0.0000,  2.0000)
  85 Ni    15.286202    5.701408   17.387912    ( 0.0000,  0.0000,  1.5000)
  86 Ni     5.397127    5.627228   17.137734    ( 0.0000,  0.0000,  1.5000)
  87 Co     7.845512    5.991307   17.216407    ( 0.0000,  0.0000,  2.1000)
  88 Fe    10.240736    5.648540   16.456855    ( 0.0000,  0.0000,  2.0000)
  89 Fe    12.794735    5.893544   16.229266    ( 0.0000,  0.0000,  2.0000)
  90 Fe    16.588531    7.856389   16.897453    ( 0.0000,  0.0000,  2.0000)
  91 Co     6.584184    8.386640   16.682515    ( 0.0000,  0.0000,  2.1000)
  92 Ni     8.919881    8.095434   16.732283    ( 0.0000,  0.0000,  1.5000)
  93 Fe    11.580886    7.773523   16.110289    ( 0.0000,  0.0000,  2.0000)
  94 Fe    13.850296    7.752561   17.673514    ( 0.0000,  0.0000,  2.0000)
  95 Co    17.843514   10.421433   17.072856    ( 0.0000,  0.0000,  2.1000)
  96 Co     7.897369   10.390550   16.697995    ( 0.0000,  0.0000,  2.1000)
  97 Fe    10.404966   10.061864   16.539983    ( 0.0000,  0.0000,  2.0000)
  98 Co    12.723046    9.766788   17.550340    ( 0.0000,  0.0000,  2.1000)
  99 Fe    15.196709    9.857832   17.068522    ( 0.0000,  0.0000,  2.0000)
 100 Co     0.515959    0.325656   18.835354    ( 0.0000,  0.0000,  2.1000)
 101 Co     9.373402   11.326694   18.367477    ( 0.0000,  0.0000,  2.1000)
 102 Ni    11.637959   10.847587   19.735625    ( 0.0000,  0.0000,  1.5000)
 103 Fe     7.730820    0.010734   19.318948    ( 0.0000,  0.0000,  2.0000)
 104 Co    16.509516   10.798200   19.088994    ( 0.0000,  0.0000,  2.1000)
 105 Co     1.633265    2.427097   18.478450    ( 0.0000,  0.0000,  2.1000)
 106 Ni     3.872899    2.231108   20.037074    ( 0.0000,  0.0000,  1.5000)
 107 Fe     6.331533    2.291031   19.422476    ( 0.0000,  0.0000,  2.0000)
 108 Ni     9.034734    2.125908   19.328446    ( 0.0000,  0.0000,  1.5000)
 109 Cr    11.584274    2.292138   18.444801    ( 0.0000,  0.0000,  0.0000)
 110 Co     2.635607    4.331066   19.608623    ( 0.0000,  0.0000,  2.1000)
 111 Ni     5.334701    4.409917   19.338942    ( 0.0000,  0.0000,  1.5000)
 112 Ni     7.826632    4.192124   19.477926    ( 0.0000,  0.0000,  1.5000)
 113 Ni    10.265085    4.455689   18.604256    ( 0.0000,  0.0000,  1.5000)
 114 Cr    12.587868    4.487494   18.599300    ( 0.0000,  0.0000,  0.0000)
 115 Cr     4.181612    6.507495   19.195760    ( 0.0000,  0.0000,  0.0000)
 116 Ni     6.546245    6.761243   19.172691    ( 0.0000,  0.0000,  1.5000)
 117 Cr     9.504164    6.747974   19.013989    ( 0.0000,  0.0000,  0.0000)
 118 Co    11.798904    6.890234   18.357042    ( 0.0000,  0.0000,  2.1000)
 119 Cr    14.185787    6.425369   19.539837    ( 0.0000,  0.0000,  0.0000)
 120 Ni     5.290220    8.703782   18.771850    ( 0.0000,  0.0000,  1.5000)
 121 Ni     7.806767    8.937039   18.757573    ( 0.0000,  0.0000,  1.5000)
 122 Co    10.572261    8.997742   18.533934    ( 0.0000,  0.0000,  2.1000)
 123 Cr    12.842398    8.404391   20.113414    ( 0.0000,  0.0000,  0.0000)
 124 Cr    15.365546    8.590006   19.233821    ( 0.0000,  0.0000,  0.0000)

Unit cell:
           periodic     x           y           z      points  spacing
  1. axis:    yes   12.446800    0.000000    0.000000    54     0.1996
  2. axis:    yes    6.223010   10.778600    0.000000    54     0.1996
  3. axis:    no     0.000000    0.000000   29.353100   128     0.2293

  Lengths:  12.446800  12.446046  29.353100
  Angles:   90.000000  90.000000  60.000070

Effective grid spacing dv^(1/3) = 0.2193

     iter     time        total  log10-change:  magmom
                         energy  eigst   dens
iter:   1 23:06:59 -1250.809403                  +175.9176
iter:   2 23:10:32 -1203.829853  +0.05  -1.10    +97.0232
iter:   3 23:14:06 -1946.078693  -0.13  -1.03    +82.0086
iter:   4 23:17:39 -2069.661442  +0.63  -0.81    +73.5920
iter:   5 23:21:12 -1075.589619  -0.54  -0.77    +44.7967
iter:   6 23:24:45 -1051.464928  -1.40  -1.23    +41.1102
iter:   7 23:28:18 -1049.221045  -1.77  -1.23    +42.4369
iter:   8 23:31:52 -1013.894169  -1.45  -1.23    +45.2042
iter:   9 23:35:25 -1537.385868  -0.15  -1.33    +46.9975
iter:  10 23:38:57 -1113.804600  -0.52  -0.90    +44.0415
iter:  11 23:42:29 -1047.014369  -1.19  -1.13    +41.6668
iter:  12 23:46:00  -999.863467  -1.69  -1.32    +42.6938
iter:  13 23:49:36 -1006.542862  -1.67  -1.46    +42.0793
iter:  14 23:53:10  -994.284603  -1.70  -1.43    +43.4693
iter:  15 23:56:43  -991.575745  -1.37  -1.44    +46.6236
iter:  16 00:00:17 -1026.028846  -1.52  -1.44    +49.5463
iter:  17 00:03:51  -970.809301  -1.82  -1.29    +52.6268
iter:  18 00:07:24  -968.136987  -2.00  -1.61    +55.0563
iter:  19 00:10:57  -965.816150  -2.08  -1.62    +57.8161
iter:  20 00:14:29  -971.550065  -1.84  -1.69    +63.6767
iter:  21 00:18:03  -972.840358  -1.91  -1.62    +66.9488
iter:  22 00:21:35 -1027.128270  -1.63  -1.64    +70.5259
iter:  23 00:25:08  -969.908572  -1.95  -1.34    +70.3070
iter:  24 00:28:41  -969.173792  -2.36  -1.70    +72.7933
iter:  25 00:32:14  -970.112291  -2.89  -1.71    +76.7291
iter:  26 00:35:46  -965.183654  -2.68  -1.70    +82.1894
iter:  27 00:39:20  -968.997170  -2.59  -1.83    +83.1447
iter:  28 00:42:53 -1132.843930  -1.32  -1.76    +84.6520
iter:  29 00:46:24  -977.890075  -1.58  -1.16    +84.4271
iter:  30 00:49:55  -969.891551  -2.65  -1.62    +84.3500
iter:  31 00:53:28  -968.902306  -2.85  -1.77    +87.1308
iter:  32 00:57:02  -969.881873  -3.16  -1.82    +87.3222
iter:  33 01:00:35  -968.362391  -3.12  -1.79    +89.3636
iter:  34 01:04:09  -971.616991  -2.25  -1.87    +89.3190
iter:  35 01:07:44  -968.002944  -2.48  -1.83    +88.7519
iter:  36 01:11:19  -971.549510  -2.61  -1.98    +88.8247
iter:  37 01:14:54  -967.618352  -2.67  -1.86    +89.6658
iter:  38 01:18:27  -969.220721  -2.70  -2.13    +89.0553
iter:  39 01:22:02  -968.124977  -2.76  -2.03    +86.6371
iter:  40 01:25:39  -968.036892  -3.01  -2.17    +86.3428
iter:  41 01:29:13  -968.490451  -3.13  -2.25    +87.8539
iter:  42 01:32:48  -968.585538  -3.48  -2.28    +87.6870
iter:  43 01:36:23  -971.398876  -2.84  -2.30    +88.1091
iter:  44 01:39:59  -974.909777  -2.85  -2.00    +87.6220
iter:  45 01:43:35  -970.167168  -3.09  -1.83    +84.7379
iter:  46 01:47:11  -970.922219  -2.65  -2.11    +83.8512
iter:  47 01:50:51  -970.167650  -2.88  -2.09    +84.0046
iter:  48 01:54:27  -970.184280  -3.37  -2.12    +83.5681
iter:  49 01:58:03  -969.869323  -3.44  -2.16    +83.5105
iter:  50 02:01:36  -969.585046  -3.25  -2.22    +83.1856
iter:  51 02:05:12  -969.500481  -3.16  -2.32    +83.3295
iter:  52 02:08:46  -970.800671  -2.97  -2.36    +84.0491
iter:  53 02:12:21  -969.574555  -3.19  -2.15    +83.1167
iter:  54 02:15:57  -970.042207  -3.50  -2.43    +83.2300
iter:  55 02:19:30  -969.464437  -3.78  -2.28    +82.9701
iter:  56 02:23:04  -969.680729  -3.88  -2.50    +82.8726
iter:  57 02:26:39  -969.755074  -3.47  -2.41    +83.1780
iter:  58 02:30:14  -969.740892c -3.75  -2.44    +83.1979
iter:  59 02:33:49  -969.770250c -4.01  -2.42    +83.0627
iter:  60 02:37:24  -969.704844c -4.55  -2.45    +83.0914
iter:  61 02:40:59  -969.775302c -4.21  -2.50    +83.2296
iter:  62 02:44:34  -969.835984  -4.44  -2.49    +83.1929
iter:  63 02:48:10  -970.440746  -3.34  -2.48    +83.1277
iter:  64 02:51:47  -970.314994  -3.46  -2.33    +83.1375
iter:  65 02:55:22  -970.030059  -3.97  -2.32    +83.0216
iter:  66 02:58:56  -970.085265  -3.79  -2.46    +82.7874
iter:  67 03:02:32  -970.138356c -3.75  -2.44    +83.0338
iter:  68 03:06:07  -970.057629c -3.74  -2.46    +82.9670
iter:  69 03:09:41  -969.830359  -3.62  -2.49    +82.9061
iter:  70 03:13:14  -970.062085  -3.77  -2.81    +83.2917
iter:  71 03:16:49  -969.935291  -4.12  -2.57    +83.4906
iter:  72 03:20:20  -969.895003  -4.39  -2.73    +83.7068
iter:  73 03:23:55  -969.887672c -4.87  -2.94    +83.7299
iter:  74 03:27:29  -969.947291c -4.29  -2.99    +84.1875
iter:  75 03:31:03  -969.991172c -4.24  -3.02    +84.6112
iter:  76 03:34:37  -970.021634c -4.38  -3.03    +84.7629
iter:  77 03:38:12  -970.179595  -4.32  -3.05    +84.9952
iter:  78 03:41:45  -970.037877  -4.67  -2.71    +84.9736
iter:  79 03:45:20  -970.066427  -4.86  -3.06    +85.0406
iter:  80 03:48:54  -970.073006c -4.93  -3.01    +85.1304
iter:  81 03:52:26  -970.083355c -4.67  -2.98    +85.2378
iter:  82 03:56:00  -970.078845c -4.79  -2.98    +85.2316
iter:  83 03:59:32  -970.485614  -4.03  -3.11    +85.3158
iter:  84 04:03:05  -970.081082  -4.11  -2.47    +85.3148
iter:  85 04:06:40  -970.082099  -4.72  -3.18    +85.1577
iter:  86 04:10:14  -970.087340c -4.77  -3.21    +85.2173
iter:  87 04:13:48  -970.098406c -4.81  -3.20    +85.2454
iter:  88 04:17:22  -970.085337c -5.10  -3.09    +85.2871
iter:  89 04:20:55  -970.131180c -4.67  -3.24    +85.3127
iter:  90 04:24:27  -970.085110c -5.08  -2.88    +85.2624
iter:  91 04:27:59  -970.087469c -5.17  -3.37    +85.3025
iter:  92 04:31:33  -970.083529c -5.64  -3.26    +85.2664
iter:  93 04:35:07  -970.106716c -4.91  -3.39    +85.2138
iter:  94 04:38:40  -970.087065c -5.00  -3.08    +85.1898
iter:  95 04:42:14  -970.145603c -4.71  -3.44    +85.1894
iter:  96 04:45:48  -970.082801c -5.10  -2.87    +85.2560
iter:  97 04:49:21  -970.090071c -5.22  -3.60    +85.2328
iter:  98 04:52:56  -970.083075c -5.60  -3.42    +85.2428
iter:  99 04:56:28  -970.083523c -6.29  -3.76    +85.2405
iter: 100 05:00:00  -970.083212c -6.20  -3.78    +85.2500
iter: 101 05:03:33  -970.092454c -5.58  -3.73    +85.2417
iter: 102 05:07:04  -970.085740c -5.59  -3.26    +85.2245
iter: 103 05:10:37  -970.084076c -5.97  -3.63    +85.2383
iter: 104 05:14:10  -970.087333c -5.68  -3.82    +85.2453
iter: 105 05:17:45  -970.084792c -5.95  -3.61    +85.2475
iter: 106 05:21:19  -970.084869c -6.25  -3.80    +85.2379
iter: 107 05:24:53  -970.084826c -6.45  -4.07c   +85.2513
iter: 108 05:28:26  -970.084386c -6.63  -3.94    +85.2724
iter: 109 05:32:01  -970.084548c -7.06  -4.06c   +85.2710
iter: 110 05:35:35  -970.084655c -6.91  -4.23c   +85.2742
iter: 111 05:39:08  -970.084822c -7.12  -4.17c   +85.2718
iter: 112 05:42:41  -970.084907c -7.09  -4.28c   +85.2763
iter: 113 05:46:15  -970.084826c -7.12  -4.20c   +85.2733
iter: 114 05:49:50  -970.085341c -6.85  -4.22c   +85.2679
iter: 115 05:53:25  -970.085141c -7.06  -4.17c   +85.2721
iter: 116 05:56:58  -970.085356c -7.15  -4.28c   +85.2745
iter: 117 06:00:31  -970.085304c -7.59c -4.51c   +85.2768

Converged after 117 iterations.

Dipole moment: (-1.034718, -15.388216, -0.022302) |e|*Ang

Total magnetic moment: (0.000000, 0.000000, 85.276836)
Local magnetic moments:
   0 Cr ( 0.000000,  0.000000, -2.185836)
   1 Fe ( 0.000000,  0.000000,  2.398221)
   2 Ni ( 0.000000,  0.000000,  0.540962)
   3 Co ( 0.000000,  0.000000,  1.398630)
   4 Ni ( 0.000000,  0.000000,  0.093461)
   5 Cr ( 0.000000,  0.000000,  1.883006)
   6 Fe ( 0.000000,  0.000000,  3.112754)
   7 Cr ( 0.000000,  0.000000, -2.776489)
   8 Cr ( 0.000000,  0.000000, -2.759074)
   9 Cr ( 0.000000,  0.000000, -0.270752)
  10 Ni ( 0.000000,  0.000000,  0.427520)
  11 Cr ( 0.000000,  0.000000, -2.028053)
  12 Cr ( 0.000000,  0.000000,  2.657840)
  13 Cr ( 0.000000,  0.000000, -2.615584)
  14 Fe ( 0.000000,  0.000000,  1.829497)
  15 Cr ( 0.000000,  0.000000,  1.848976)
  16 Ni ( 0.000000,  0.000000, -0.192931)
  17 Ni ( 0.000000,  0.000000,  0.189800)
  18 Fe ( 0.000000,  0.000000,  2.700137)
  19 Cr ( 0.000000,  0.000000, -2.233762)
  20 Cr ( 0.000000,  0.000000, -2.312109)
  21 Ni ( 0.000000,  0.000000,  0.098633)
  22 Cr ( 0.000000,  0.000000, -2.844292)
  23 Ni ( 0.000000,  0.000000,  0.599539)
  24 Fe ( 0.000000,  0.000000,  1.967977)
  25 Co ( 0.000000,  0.000000,  0.582849)
  26 Co ( 0.000000,  0.000000,  1.619743)
  27 Co ( 0.000000,  0.000000,  1.680763)
  28 Cr ( 0.000000,  0.000000, -0.203636)
  29 Fe ( 0.000000,  0.000000,  2.279864)
  30 Fe ( 0.000000,  0.000000,  2.247705)
  31 Co ( 0.000000,  0.000000,  1.657816)
  32 Fe ( 0.000000,  0.000000,  2.261330)
  33 Cr ( 0.000000,  0.000000,  0.221906)
  34 Fe ( 0.000000,  0.000000,  1.468159)
  35 Ni ( 0.000000,  0.000000,  0.402838)
  36 Ni ( 0.000000,  0.000000,  0.368734)
  37 Cr ( 0.000000,  0.000000,  0.214839)
  38 Fe ( 0.000000,  0.000000,  1.399103)
  39 Cr ( 0.000000,  0.000000, -1.430074)
  40 Fe ( 0.000000,  0.000000,  2.034022)
  41 Ni ( 0.000000,  0.000000,  0.122071)
  42 Co ( 0.000000,  0.000000,  1.278642)
  43 Ni ( 0.000000,  0.000000,  0.320094)
  44 Co ( 0.000000,  0.000000,  1.186935)
  45 Cr ( 0.000000,  0.000000, -2.033600)
  46 Ni ( 0.000000,  0.000000,  0.191796)
  47 Co ( 0.000000,  0.000000,  1.572218)
  48 Ni ( 0.000000,  0.000000,  0.348555)
  49 Fe ( 0.000000,  0.000000,  2.448737)
  50 Co ( 0.000000,  0.000000,  1.085000)
  51 Fe ( 0.000000,  0.000000,  2.696322)
  52 Cr ( 0.000000,  0.000000, -1.793929)
  53 Fe ( 0.000000,  0.000000,  1.989518)
  54 Cr ( 0.000000,  0.000000, -1.395314)
  55 Fe ( 0.000000,  0.000000,  2.518296)
  56 Co ( 0.000000,  0.000000,  1.435617)
  57 Co ( 0.000000,  0.000000,  1.101790)
  58 Co ( 0.000000,  0.000000,  1.304407)
  59 Cr ( 0.000000,  0.000000, -1.859738)
  60 Co ( 0.000000,  0.000000,  1.476980)
  61 Cr ( 0.000000,  0.000000, -1.406430)
  62 Co ( 0.000000,  0.000000,  1.227655)
  63 Fe ( 0.000000,  0.000000,  2.308236)
  64 Co ( 0.000000,  0.000000,  1.485610)
  65 Fe ( 0.000000,  0.000000,  2.046175)
  66 Ni ( 0.000000,  0.000000,  0.447891)
  67 Cr ( 0.000000,  0.000000, -1.808521)
  68 Fe ( 0.000000,  0.000000,  2.587657)
  69 Cr ( 0.000000,  0.000000, -2.198110)
  70 Cr ( 0.000000,  0.000000,  1.207304)
  71 Ni ( 0.000000,  0.000000,  0.279137)
  72 Ni ( 0.000000,  0.000000,  0.381624)
  73 Co ( 0.000000,  0.000000,  1.293298)
  74 Fe ( 0.000000,  0.000000,  1.894380)
  75 Fe ( 0.000000,  0.000000,  2.115240)
  76 Ni ( 0.000000,  0.000000,  0.632882)
  77 Ni ( 0.000000,  0.000000,  0.684254)
  78 Fe ( 0.000000,  0.000000,  2.486267)
  79 Co ( 0.000000,  0.000000,  1.539747)
  80 Co ( 0.000000,  0.000000,  1.509926)
  81 Fe ( 0.000000,  0.000000,  2.777736)
  82 Ni ( 0.000000,  0.000000,  0.659188)
  83 Co ( 0.000000,  0.000000,  1.753463)
  84 Fe ( 0.000000,  0.000000,  1.857821)
  85 Ni ( 0.000000,  0.000000,  0.312079)
  86 Ni ( 0.000000,  0.000000,  0.415556)
  87 Co ( 0.000000,  0.000000,  1.712856)
  88 Fe ( 0.000000,  0.000000,  2.379092)
  89 Fe ( 0.000000,  0.000000,  2.384112)
  90 Fe ( 0.000000,  0.000000,  2.272844)
  91 Co ( 0.000000,  0.000000,  1.647131)
  92 Ni ( 0.000000,  0.000000,  0.483237)
  93 Fe ( 0.000000,  0.000000,  2.149278)
  94 Fe ( 0.000000,  0.000000,  1.863005)
  95 Co ( 0.000000,  0.000000,  1.605055)
  96 Co ( 0.000000,  0.000000,  1.648342)
  97 Fe ( 0.000000,  0.000000,  2.766839)
  98 Co ( 0.000000,  0.000000,  1.558353)
  99 Fe ( 0.000000,  0.000000,  2.440607)
 100 Co ( 0.000000,  0.000000,  1.703435)
 101 Co ( 0.000000,  0.000000,  1.808415)
 102 Ni ( 0.000000,  0.000000,  0.679838)
 103 Fe ( 0.000000,  0.000000,  2.619038)
 104 Co ( 0.000000,  0.000000,  1.614919)
 105 Co ( 0.000000,  0.000000,  1.432003)
 106 Ni ( 0.000000,  0.000000,  0.753133)
 107 Fe ( 0.000000,  0.000000,  2.881836)
 108 Ni ( 0.000000,  0.000000,  0.649657)
 109 Cr ( 0.000000,  0.000000, -2.042676)
 110 Co ( 0.000000,  0.000000,  1.468193)
 111 Ni ( 0.000000,  0.000000,  0.464730)
 112 Ni ( 0.000000,  0.000000,  0.694262)
 113 Ni ( 0.000000,  0.000000,  0.185270)
 114 Cr ( 0.000000,  0.000000, -2.400282)
 115 Cr ( 0.000000,  0.000000, -2.232586)
 116 Ni ( 0.000000,  0.000000,  0.440863)
 117 Cr ( 0.000000,  0.000000, -3.196892)
 118 Co ( 0.000000,  0.000000,  1.239645)
 119 Cr ( 0.000000,  0.000000,  1.761585)
 120 Ni ( 0.000000,  0.000000,  0.355450)
 121 Ni ( 0.000000,  0.000000,  0.653668)
 122 Co ( 0.000000,  0.000000,  1.654410)
 123 Cr ( 0.000000,  0.000000, -3.280456)
 124 Cr ( 0.000000,  0.000000, -2.164490)

Energy contributions relative to reference atoms: (reference = -4451268.207082)

Kinetic:       +256.374181
Potential:     -303.014182
External:        +0.000000
XC:            -964.526153
Entropy (-ST):   -5.647436
Local:          +43.904569
--------------------------
Free energy:   -972.909022
Extrapolated:  -970.085304

Dipole-layer corrected work functions: 4.618145, 4.648226 eV

Spin contamination: 58.773676 electrons
Showing all kpts
                      Up                     Down
 Kpt  Band  Eigenvalues  Occupancy  Eigenvalues  Occupancy
  0   606      0.10724    0.99865      1.11567    0.02985
  0   607      0.11861    0.99848      1.12193    0.02809
  0   608      0.13350    0.99824      1.13281    0.02527
  0   609      0.13962    0.99813      1.13470    0.02480

  1   606      0.12114    0.99844      1.11858    0.02902
  1   607      0.12908    0.99832      1.13156    0.02558
  1   608      0.14266    0.99807      1.13357    0.02508
  1   609      0.15318    0.99786      1.14645    0.02212


Fermi level: 0.76754

No gap

Forces in eV/Ang:
  0 Cr    0.01928    1.76305    0.51034
  1 Fe    0.20608    0.15938   -0.03441
  2 Ni    0.41245    0.29662    1.19098
  3 Co   -0.01632    0.34300    0.09716
  4 Ni   -0.70539    1.98801   -0.18885
  5 Cr    0.66800   -0.66257    0.01076
  6 Fe   -0.08607   -0.07674    1.26213
  7 Cr   -0.12480   -0.98587    0.27194
  8 Cr    0.85491   -0.25265    0.44449
  9 Cr   -0.82549   -0.10059    0.23194
 10 Ni   -0.32279    0.08968    1.14248
 11 Cr    0.26049    1.38890   -0.25302
 12 Cr   -0.37017   -2.04624    0.52546
 13 Cr   -0.09507   -0.65074   -0.25820
 14 Fe    0.06874    2.17994    0.26777
 15 Cr    1.23062   -0.95787    0.16089
 16 Ni   -0.52285    0.73616    0.63429
 17 Ni    0.19791   -0.77825    0.63813
 18 Fe   -0.07695    0.04572    0.20581
 19 Cr   -0.04081    0.05998   -1.42195
 20 Cr    0.70664   -2.07210    0.56638
 21 Ni   -0.32193   -0.04619   -0.74439
 22 Cr    0.44667    0.49352   -0.10098
 23 Ni   -0.76004   -0.10798    0.66307
 24 Fe   -1.44705    0.23055   -0.42681
 25 Co    0.29938   -1.01168   -1.29663
 26 Co    0.24580   -0.79377   -0.12297
 27 Co   -0.18652    1.23206   -0.14279
 28 Cr    0.15790   -0.48451   -0.24492
 29 Fe    0.24199   -0.84264    1.24170
 30 Fe    0.00315   -0.16232   -0.69793
 31 Co    0.48087    0.01875   -0.06683
 32 Fe    0.56607   -0.38310   -0.23412
 33 Cr   -0.21201   -0.46255    0.32676
 34 Fe   -1.04321    0.34366   -0.03941
 35 Ni   -0.43251   -0.69880    0.68653
 36 Ni    0.15125    0.72202   -0.70212
 37 Cr   -1.39513   -0.18784   -1.21631
 38 Fe    0.87376    0.24091   -0.14987
 39 Cr    0.59472    0.09346    0.20244
 40 Fe   -0.46843    0.08602   -0.14572
 41 Ni    0.00649   -0.81917   -0.43995
 42 Co   -0.90538   -0.67475   -0.06386
 43 Ni    1.11927   -0.70459    0.32234
 44 Co   -0.27932   -0.80316   -0.45048
 45 Cr   -0.01885    0.73171   -0.22699
 46 Ni    0.60135    0.09772   -0.20208
 47 Co   -0.13246    1.26314   -0.87864
 48 Ni   -0.01290   -0.60865    1.50755
 49 Fe    0.16009    0.64641   -0.45642
 50 Co    0.82511   -0.15572    0.52602
 51 Fe    0.58600   -0.68854   -0.17867
 52 Cr   -1.30107   -0.74129    0.99215
 53 Fe    1.07072    0.95128   -0.14770
 54 Cr   -1.11459   -0.11686    0.70170
 55 Fe   -0.09354   -0.94237    0.12439
 56 Co    1.33648   -0.72280   -0.70292
 57 Co    0.36528    0.29721    0.38473
 58 Co   -1.10634    0.45696   -0.01672
 59 Cr    0.67909    1.14849   -0.05384
 60 Co    0.27842    0.43357   -1.08185
 61 Cr   -0.12697   -0.47732    0.46797
 62 Co    0.76410   -0.37382   -0.70051
 63 Fe   -0.09670   -0.82815   -0.50535
 64 Co   -0.19952   -0.85344    1.58835
 65 Fe   -0.36379    1.80756   -0.69471
 66 Ni    0.87911    0.92095    0.42238
 67 Cr    0.08354   -0.81721   -0.46475
 68 Fe    0.57708    0.93453    0.14344
 69 Cr   -0.68572    0.26781   -0.68196
 70 Cr    0.54976   -0.09448    1.16333
 71 Ni   -1.58773    0.94884   -0.28955
 72 Ni    1.20521   -0.38587    0.05081
 73 Co   -1.54298    0.30105    0.39610
 74 Fe    0.26027   -0.13693   -0.12279
 75 Fe   -1.22725   -0.05434    0.17278
 76 Ni    1.13501   -0.54007   -1.04322
 77 Ni   -0.22556   -1.86194   -0.92450
 78 Fe    1.23100    0.65957   -0.38962
 79 Co   -0.14506    0.49986   -0.05008
 80 Co   -0.35334    2.33418   -0.19945
 81 Fe   -1.39615    1.31618    1.33704
 82 Ni   -0.23712    1.44534   -0.95050
 83 Co    0.08386   -0.14525   -0.09266
 84 Fe   -0.87058    0.07658   -0.20762
 85 Ni   -0.88891   -0.02843    1.12417
 86 Ni    0.01890   -0.04653    0.78987
 87 Co   -0.25556   -0.84145   -0.21824
 88 Fe    0.02161    0.73710    1.55502
 89 Fe    1.10535   -1.03999    0.00410
 90 Fe   -0.03196   -0.06235    0.45618
 91 Co   -0.52587   -1.21392    0.10401
 92 Ni    0.77786   -0.51288    0.08393
 93 Fe    0.09416    1.45845    0.44169
 94 Fe    0.31137    0.12594   -1.32571
 95 Co   -0.73699   -0.85721   -0.67275
 96 Co   -0.06145   -0.84794   -0.06317
 97 Fe    0.19813    0.94341   -1.22004
 98 Co   -1.08118    0.16930    0.15302
 99 Fe    0.27465    0.32167    0.48849
100 Co    0.16217   -0.31204   -0.28251
101 Co   -0.31146   -1.16197    1.37429
102 Ni   -0.61456   -0.05862   -0.64622
103 Fe    0.65792   -0.25032    0.29097
104 Co    0.05427    0.34328   -0.85941
105 Co    0.26281    0.24732    0.57892
106 Ni    0.38324    0.13253   -1.37157
107 Fe    0.79608   -0.60552    1.15183
108 Ni    0.02728    0.08588   -1.31872
109 Cr   -0.87995   -0.87156    0.42605
110 Co    0.70717   -0.42015   -0.88981
111 Ni   -0.13766    0.30192    0.27348
112 Ni    0.07944    0.77214   -1.16578
113 Ni   -0.49989   -0.31989    0.38178
114 Cr    1.55845    1.12512   -0.32784
115 Cr    0.00187   -0.52377   -0.00289
116 Ni    0.84908   -0.74399   -0.61929
117 Cr   -0.94197    0.34907   -0.33242
118 Co    0.16668   -0.90508   -0.02339
119 Cr   -0.31122   -0.00916    0.59205
120 Ni    0.54994    0.47213    0.77283
121 Ni    0.40027   -0.16672   -0.13919
122 Co   -0.33169   -0.09991    0.32788
123 Cr   -0.75953    0.75750   -0.76225
124 Cr   -0.09054    0.82266    0.05907

Timing:                              incl.     excl.
-----------------------------------------------------------
Forces:                             51.426    51.426   0.2% |
Hamiltonian:                         1.758     0.017   0.0% |
 Atomic:                             0.412     0.002   0.0% |
  XC Correction:                     0.410     0.410   0.0% |
 Calculate atomic Hamiltonians:      0.688     0.688   0.0% |
 Communicate:                        0.110     0.110   0.0% |
 Initialize Hamiltonian:             0.001     0.001   0.0% |
 Poisson:                            0.114     0.114   0.0% |
 XC 3D grid:                         0.416     0.416   0.0% |
LCAO initialization:               369.721     0.458   0.0% |
 LCAO eigensolver:                  19.716     0.016   0.0% |
  Calculate projections:             0.000     0.000   0.0% |
  DenseAtomicCorrection:             0.000     0.000   0.0% |
  Distribute overlap matrix:        10.302    10.302   0.0% |
  Orbital Layouts:                   9.139     9.139   0.0% |
  Potential matrix:                  0.007     0.007   0.0% |
  Sum over cells:                    0.253     0.253   0.0% |
 LCAO to grid:                     346.670   346.670   1.4% ||
 Set positions (LCAO WFS):           2.877     2.543   0.0% |
  Basic WFS set positions:           0.004     0.004   0.0% |
  Basis functions set positions:     0.001     0.001   0.0% |
  P tci:                             0.000     0.000   0.0% |
  ST tci:                            0.129     0.129   0.0% |
  mktci:                             0.199     0.199   0.0% |
PWDescriptor:                        0.252     0.252   0.0% |
SCF-cycle:                       25045.794     1.455   0.0% |
 Davidson:                       24347.219  6903.855  27.1% |----------|
  Apply H:                         417.445   410.009   1.6% ||
   HMM T:                            7.436     7.436   0.0% |
  Subspace diag:                  2435.215     0.059   0.0% |
   calc_h_matrix:                 1012.429   638.198   2.5% ||
    Apply H:                       374.230   366.845   1.4% ||
     HMM T:                          7.385     7.385   0.0% |
   diagonalize:                    229.867   229.867   0.9% |
   rotate_psi:                    1192.860  1192.860   4.7% |-|
  calc. matrices:                 5680.058  4968.309  19.5% |-------|
   Apply H:                        711.749   696.292   2.7% ||
    HMM T:                          15.456    15.456   0.1% |
  diagonalize:                    6382.774  6382.774  25.1% |---------|
  rotate_psi:                     2527.872  2527.872   9.9% |---|
 Density:                          392.561     0.005   0.0% |
  Atomic density matrices:           3.745     3.745   0.0% |
  Mix:                             195.099   195.099   0.8% |
  Multipole moments:                 0.095     0.095   0.0% |
  Pseudo density:                  193.617   193.610   0.8% |
   Symmetrize density:               0.007     0.007   0.0% |
 Hamiltonian:                      281.082     1.708   0.0% |
  Atomic:                           48.770     0.228   0.0% |
   XC Correction:                   48.542    48.542   0.2% |
  Calculate atomic Hamiltonians:   163.218   163.218   0.6% |
  Communicate:                      13.406    13.406   0.1% |
  Poisson:                           5.494     5.494   0.0% |
  XC 3D grid:                       48.485    48.485   0.2% |
 Orthonormalize:                    23.477     0.001   0.0% |
  calc_s_matrix:                     2.946     2.946   0.0% |
  inverse-cholesky:                  1.192     1.192   0.0% |
  projections:                      14.241    14.241   0.1% |
  rotate_psi_s:                      5.097     5.097   0.0% |
Set symmetry:                        0.001     0.001   0.0% |
Other:                               9.383     9.383   0.0% |
-----------------------------------------------------------
Total:                                     25478.335 100.0%

Date: Tue Apr 18 06:01:28 2023
