
  ___ ___ ___ _ _ _  
 |   |   |_  | | | | 
 | | | | | . | | | | 
 |__ |  _|___|_____|  22.8.0
 |___|_|             

User:   c.zeng@d0038
Date:   Tue Apr 18 05:35:13 2023
Arch:   x86_64
Pid:    215261
CWD:    /home/c.zeng/projects/hea-corrosion/hea-mlp/data-curation/surface-mcmc/dft-jobs/22
Python: 3.8.1
gpaw:   /home/c.zeng/usr/installs/gpaw/source/gpaw-22.8.0/gpaw
_gpaw:  /home/c.zeng/usr/installs/gpaw/source/gpaw-22.8.0/
        _gpaw.cpython-38-x86_64-linux-gnu.so
ase:    /home/c.zeng/.local/lib/python3.8/site-packages/ase-3.22.1-py3.8.egg/ase (version 3.22.1)
numpy:  /home/c.zeng/.local/lib/python3.8/site-packages/numpy (version 1.24.2)
scipy:  /home/c.zeng/.local/lib/python3.8/site-packages/scipy (version 1.10.1)
libxc:  4.2.3
units:  Angstrom and eV
cores: 30
OpenMP: False
OMP_NUM_THREADS: 1

Input parameters:
  convergence: {energy: 0.0001}
  kpts: [2 2 1]
  maxiter: 666
  mode: {ecut: 350.0,
         name: pw}
  occupations: {fixmagmom: False,
                name: fermi-dirac,
                width: 0.1}
  poissonsolver: {dipolelayer: xy}
  spinpol: True
  symmetry: {point_group: False}
  xc: PBE

System changes: positions, numbers, cell, pbc, initial_charges, initial_magmoms 

Initialize ...

species:
  Cr:
    name: Chromium
    id: 33f258bda2ca9f93018e70263a35547b
    Z: 24.0
    valence: 6
    core: 18
    charge: 0.0
    file: /home/c.zeng/usr/data/gpaw-setups-0.9.20000/Cr.PBE.gz
    compensation charges: {type: gauss,
                           rc: 0.35,
                           lmax: 2}
    cutoffs: {filter: 2.14,
              core: 3.04}
    valence states:
      #              energy  rcut
      - 4s(1.00)    -4.007   1.164
      - 4p(0.00)    -0.989   1.217
      - 3d(5.00)    -2.913   1.111
      -  s          23.205   1.164
      -  p          26.223   1.217
      -  d          24.299   1.111
  
    # Using partial waves for Cr as LCAO basis

  Co:
    name: Cobalt
    id: 339d20d5b0b93d2de9531a1bee871d91
    Z: 27.0
    valence: 9
    core: 18
    charge: 0.0
    file: /home/c.zeng/usr/data/gpaw-setups-0.9.20000/Co.PBE.gz
    compensation charges: {type: gauss,
                           rc: 0.32,
                           lmax: 2}
    cutoffs: {filter: 1.87,
              core: 2.55}
    valence states:
      #              energy  rcut
      - 4s(2.00)    -5.469   1.005
      - 4p(0.00)    -1.277   1.058
      - 3d(7.00)    -8.205   1.005
      -  s          21.742   1.005
      -  p          25.934   1.058
      -  d          19.007   1.005
  
    # Using partial waves for Co as LCAO basis

  Ni:
    name: Nickel
    id: 0d9f38a9d6e76a2886f07bb4381f212b
    Z: 28.0
    valence: 16
    core: 12
    charge: 0.0
    file: /home/c.zeng/usr/data/gpaw-setups-0.9.20000/Ni.PBE.gz
    compensation charges: {type: gauss,
                           rc: 0.36,
                           lmax: 2}
    cutoffs: {filter: 2.14,
              core: 1.98}
    valence states:
      #              energy  rcut
      - 4s(2.00)    -5.642   1.164
      - 3p(6.00)   -71.394   1.207
      - 4p(0.00)    -1.226   1.207
      - 3d(8.00)    -8.875   1.138
      -  s          21.570   1.164
      -  d          18.337   1.138
  
    # Using partial waves for Ni as LCAO basis

  Fe:
    name: Iron
    id: 37abbd8d6c3c35915a9b583b742da910
    Z: 26.0
    valence: 8
    core: 18
    charge: 0.0
    file: /home/c.zeng/usr/data/gpaw-setups-0.9.20000/Fe.PBE.gz
    compensation charges: {type: gauss,
                           rc: 0.33,
                           lmax: 2}
    cutoffs: {filter: 2.06,
              core: 2.67}
    valence states:
      #              energy  rcut
      - 4s(2.00)    -5.291   1.164
      - 4p(0.00)    -1.326   1.058
      - 3d(6.00)    -7.505   1.058
      -  s          21.920   1.164
      -  p          25.885   1.058
      -  d          19.706   1.058
  
    # Using partial waves for Fe as LCAO basis

Reference energy: -4451268.207082  # eV

Spin-polarized calculation.
Magnetic moment: 175.600000

Convergence criteria:
 Maximum [total energy] change in last 3 cyles: 0.0001 eV / electron
 Maximum integral of absolute [dens]ity change: 0.0001 electrons / valence electron
 Maximum integral of absolute [eigenst]ate change: 4e-08 eV^2 / valence electron
 Maximum number of scf [iter]ations: 666
 (Square brackets indicate name in SCF output, whereas a 'c' in
 the SCF output indicates the quantity has converged.)

Symmetries present (total): 1

  ( 1  0  0)
  ( 0  1  0)
  ( 0  0  1)

4 k-points: 2 x 2 x 1 Monkhorst-Pack grid
2 k-points in the irreducible part of the Brillouin zone
       k-points in crystal coordinates                weights
   0:     0.25000000   -0.25000000    0.00000000          2/4
   1:     0.25000000    0.25000000    0.00000000          2/4

Wave functions: Plane wave expansion
  Cutoff energy: 350.000 eV
  Number of coefficients (min, max): 58495, 58567
  Pulay-stress correction: 0.000000 eV/Ang^3 (de/decut=0.000000)
  Using FFTW library
  ScaLapack parameters: grid=1x1, blocksize=None
  Wavefunction extrapolation:
    Improved wavefunction reuse through dual PAW basis 

Occupation numbers: Fermi-Dirac:
  width: 0.1000  # eV
 

Eigensolver
   Davidson(niter=2) 

Densities:
  Coarse grid: 54*54*128 grid
  Fine grid: 108*108*256 grid
  Total Charge: 0.000000 

Density mixing:
  Method: difference
  Backend: pulay
  Linear mixing parameter: 0.05
  old densities: 5
  Damping of long wavelength oscillations: 50 

Hamiltonian:
  XC and Coulomb potentials evaluated on a 108*108*256 grid
  Using the PBE Exchange-Correlation functional
  External potential:
    NoExternalPotential
 

XC parameters: PBE with 2 nearest neighbor stencil

Memory estimate:
  Process memory now: 355.97 MiB
  Calculator: 2405.48 MiB
    Density: 16.73 MiB
      Arrays: 6.75 MiB
      Localized functions: 7.29 MiB
      Mixer: 2.70 MiB
    Hamiltonian: 5.22 MiB
      Arrays: 5.01 MiB
      XC: 0.00 MiB
      Poisson: 0.00 MiB
      vbar: 0.21 MiB
    Wavefunctions: 2383.52 MiB
      Arrays psit_nG: 1501.35 MiB
      Eigensolver: 862.84 MiB
      Projections: 3.85 MiB
      Projectors: 0.98 MiB
      PW-descriptor: 14.51 MiB

Total number of cores used: 30
Parallelization over k-points: 2
Domain decomposition: 1 x 3 x 5

Number of atoms: 125
Number of atomic orbitals: 1218
Number of bands in calculation: 840
Number of valence electrons: 1217
Bands to converge: occupied

... initialized

Initializing position-dependent things.

Density initialized from atomic densities
Creating initial wave functions:
  840 bands from LCAO basis set

                                                                  
                                                                  
                                                                  
                                                                  
                                   Co    Fe           Ni          
                         Ni    Ni    Co    Fe    Cr               
                    Co    Cr     Cr    Ni    Co                   
                                Co    Ni    Ni    Cr    Fe        
                Cr    Ni   NCr   CCo    NFe   Fe    Fe            
            Co    Ni   FCo   NCo   FNi   Co     Ni                
       Ni                 CoCr    Cr     Cr    Co    Fe           
                   Co   CFe   CFe   FNi   CFe   Cr    Cr          
              Ni   FFe    CNi   FCo   CFe   Ni                    
                               Ni    Ni    Cr    Fe    Cr         
               Cr   CFe   FCr   NFNi  CFNi  CCo   Co    Cr        
           Cr   CNi   FFe  CNCr   NFe   CFe         Co            
            Fe    Fe          Fe    Cr        Ni                  
                       FNi   Co    Cr    Ni     Cr                
             Co    Cr    CFe   Co    CCo   Ni                     
              Co    Co    Cr     Ni    Cr                         
                                                                  
                                                                  
                                                                  
                                                                  
                                                                  

Positions:
   0 Cr    12.462288    1.423821   10.629080    ( 0.0000,  0.0000,  0.0000)
   1 Co     2.499576    1.440301   10.626527    ( 0.0000,  0.0000,  2.0000)
   2 Co     4.968611    1.438835   10.615079    ( 0.0000,  0.0000,  1.5000)
   3 Cr     7.462726    1.421460   10.639178    ( 0.0000,  0.0000,  2.1000)
   4 Ni     9.958813    1.440808   10.614286    ( 0.0000,  0.0000,  1.5000)
   5 Ni    13.701699    3.595687   10.631928    ( 0.0000,  0.0000,  0.0000)
   6 Co     3.731720    3.588498   10.658463    ( 0.0000,  0.0000,  2.0000)
   7 Cr     6.206181    3.578862   10.616048    ( 0.0000,  0.0000,  0.0000)
   8 Co     8.708678    3.588487   10.610441    ( 0.0000,  0.0000,  0.0000)
   9 Co    11.213254    3.596560   10.610265    ( 0.0000,  0.0000,  0.0000)
  10 Cr    14.928341    5.748260   10.633307    ( 0.0000,  0.0000,  1.5000)
  11 Fe     4.975718    5.742741   10.620568    ( 0.0000,  0.0000,  0.0000)
  12 Co     7.478433    5.755029   10.612261    ( 0.0000,  0.0000,  0.0000)
  13 Cr     9.958968    5.766540   10.606596    ( 0.0000,  0.0000,  0.0000)
  14 Ni    12.428955    5.759114   10.623679    ( 0.0000,  0.0000,  2.0000)
  15 Co    16.172575    7.907763   10.614962    ( 0.0000,  0.0000,  0.0000)
  16 Co     6.230875    7.897556   10.631399    ( 0.0000,  0.0000,  1.5000)
  17 Fe     8.712063    7.918800   10.624912    ( 0.0000,  0.0000,  1.5000)
  18 Cr    11.196407    7.900649   10.627583    ( 0.0000,  0.0000,  2.0000)
  19 Ni    13.685743    7.894915   10.608768    ( 0.0000,  0.0000,  0.0000)
  20 Cr    17.413095   10.061737   10.609531    ( 0.0000,  0.0000,  0.0000)
  21 Ni     7.473454   10.060875   10.626761    ( 0.0000,  0.0000,  1.5000)
  22 Co     9.959304   10.058201   10.606068    ( 0.0000,  0.0000,  0.0000)
  23 Co    12.452485   10.052985   10.619834    ( 0.0000,  0.0000,  1.5000)
  24 Co    14.933506   10.061047   10.614433    ( 0.0000,  0.0000,  2.0000)
  25 Co    12.449050   -0.000629   12.627234    ( 0.0000,  0.0000,  2.1000)
  26 Co     2.492433    0.000558   12.634954    ( 0.0000,  0.0000,  2.1000)
  27 Cr     4.974333    0.000141   12.611941    ( 0.0000,  0.0000,  2.1000)
  28 Fe     7.468637   -0.006559   12.638564    ( 0.0000,  0.0000,  0.0000)
  29 Cr    16.167928   10.788301   12.619514    ( 0.0000,  0.0000,  2.0000)
  30 Fe     1.266555    2.151225   12.633662    ( 0.0000,  0.0000,  2.0000)
  31 Fe     3.735748    2.148121   12.651127    ( 0.0000,  0.0000,  2.1000)
  32 Ni     6.204229    2.151322   12.625297    ( 0.0000,  0.0000,  2.0000)
  33 Fe     8.713864    2.159169   12.632341    ( 0.0000,  0.0000,  0.0000)
  34 Cr    11.209280    2.157261   12.630668    ( 0.0000,  0.0000,  2.0000)
  35 Cr     2.491537    4.311041   12.649513    ( 0.0000,  0.0000,  1.5000)
  36 Fe     4.975141    4.309004   12.661988    ( 0.0000,  0.0000,  1.5000)
  37 Ni     7.471546    4.302515   12.629612    ( 0.0000,  0.0000,  0.0000)
  38 Ni     9.959331    4.321389   12.624211    ( 0.0000,  0.0000,  2.0000)
  39 Fe    12.447216    4.322736   12.648779    ( 0.0000,  0.0000,  0.0000)
  40 Cr     3.727002    6.455713   12.638564    ( 0.0000,  0.0000,  2.0000)
  41 Fe     6.230130    6.458548   12.645726    ( 0.0000,  0.0000,  1.5000)
  42 Fe     8.722502    6.475815   12.624504    ( 0.0000,  0.0000,  2.1000)
  43 Fe    11.197735    6.469758   12.643995    ( 0.0000,  0.0000,  1.5000)
  44 Co    13.683348    6.470059   12.640003    ( 0.0000,  0.0000,  2.1000)
  45 Cr    17.413993    8.621565   12.620189    ( 0.0000,  0.0000,  0.0000)
  46 Ni     7.471608    8.621834   12.638564    ( 0.0000,  0.0000,  1.5000)
  47 Ni     9.955597    8.628593   12.628115    ( 0.0000,  0.0000,  2.1000)
  48 Cr    12.449432    8.615173   12.619279    ( 0.0000,  0.0000,  1.5000)
  49 Fe    14.929575    8.617340   12.626089    ( 0.0000,  0.0000,  2.0000)
  50 Cr     1.254097    0.717223   14.680102    ( 0.0000,  0.0000,  2.1000)
  51 Ni     3.731090    0.711950   14.670063    ( 0.0000,  0.0000,  2.0000)
  52 Fe     6.214925    0.718289   14.674818    ( 0.0000,  0.0000,  0.0000)
  53 Cr     8.714063    0.718519   14.689084    ( 0.0000,  0.0000,  2.0000)
  54 Fe    11.204771    0.717512   14.682421    ( 0.0000,  0.0000,  0.0000)
  55 Cr     2.496837    2.862958   14.687264    ( 0.0000,  0.0000,  2.0000)
  56 Fe     4.979214    2.867151   14.683800    ( 0.0000,  0.0000,  2.1000)
  57 Cr     7.478991    2.885690   14.679133    ( 0.0000,  0.0000,  2.1000)
  58 Ni     9.958294    2.881486   14.688056    ( 0.0000,  0.0000,  2.1000)
  59 Ni    12.441997    2.882424   14.688409    ( 0.0000,  0.0000,  0.0000)
  60 Fe     3.731806    5.017201   14.686589    ( 0.0000,  0.0000,  2.1000)
  61 Cr     6.225452    5.035536   14.687205    ( 0.0000,  0.0000,  0.0000)
  62 Fe     8.715945    5.032324   14.674525    ( 0.0000,  0.0000,  2.1000)
  63 Cr    11.195745    5.039006   14.696011    ( 0.0000,  0.0000,  2.0000)
  64 Ni    13.700079    5.031203   14.681012    ( 0.0000,  0.0000,  2.1000)
  65 Co     4.981869    7.184260   14.692048    ( 0.0000,  0.0000,  2.0000)
  66 Co     7.477161    7.188130   14.678135    ( 0.0000,  0.0000,  1.5000)
  67 Fe     9.952805    7.179334   14.674554    ( 0.0000,  0.0000,  0.0000)
  68 Cr    12.443073    7.188992   14.681100    ( 0.0000,  0.0000,  2.0000)
  69 Cr    14.930068    7.191493   14.686618    ( 0.0000,  0.0000,  0.0000)
  70 Cr     6.231394    9.346900   14.677343    ( 0.0000,  0.0000,  0.0000)
  71 Cr     8.712453    9.336671   14.666629    ( 0.0000,  0.0000,  1.5000)
  72 Cr    11.193692    9.342761   14.657881    ( 0.0000,  0.0000,  1.5000)
  73 Co    13.688080    9.336294   14.678986    ( 0.0000,  0.0000,  2.1000)
  74 Fe    16.181709    9.338601   14.679603    ( 0.0000,  0.0000,  2.0000)
  75 Fe    12.451515    1.431333   16.739956    ( 0.0000,  0.0000,  2.0000)
  76 Ni     2.493173    1.440441   16.729476    ( 0.0000,  0.0000,  1.5000)
  77 Fe     4.973378    1.437348   16.717295    ( 0.0000,  0.0000,  1.5000)
  78 Ni     7.475017    1.438609   16.711571    ( 0.0000,  0.0000,  2.0000)
  79 Co     9.955789    1.433845   16.723048    ( 0.0000,  0.0000,  2.1000)
  80 Fe    13.696559    3.594351   16.715270    ( 0.0000,  0.0000,  2.1000)
  81 Co     3.730077    3.579487   16.736903    ( 0.0000,  0.0000,  2.0000)
  82 Fe     6.225541    3.599416   16.704614    ( 0.0000,  0.0000,  1.5000)
  83 Fe     8.709257    3.594792   16.716150    ( 0.0000,  0.0000,  2.1000)
  84 Ni    11.199463    3.603674   16.739691    ( 0.0000,  0.0000,  2.0000)
  85 Ni    14.943900    5.737718   16.712745    ( 0.0000,  0.0000,  1.5000)
  86 Fe     4.972339    5.736543   16.726893    ( 0.0000,  0.0000,  1.5000)
  87 Ni     7.458804    5.749316   16.714624    ( 0.0000,  0.0000,  2.1000)
  88 Fe     9.954095    5.748637   16.721228    ( 0.0000,  0.0000,  2.0000)
  89 Co    12.462014    5.747344   16.728743    ( 0.0000,  0.0000,  2.0000)
  90 Fe    16.183410    7.912818   16.742715    ( 0.0000,  0.0000,  2.0000)
  91 Ni     6.219087    7.908313   16.727040    ( 0.0000,  0.0000,  2.1000)
  92 Co     8.705037    7.899237   16.717853    ( 0.0000,  0.0000,  1.5000)
  93 Ni    11.200247    7.900293   16.707726    ( 0.0000,  0.0000,  2.0000)
  94 Fe    13.685904    7.915049   16.733058    ( 0.0000,  0.0000,  2.0000)
  95 Fe    17.435836   10.053955   16.714183    ( 0.0000,  0.0000,  2.1000)
  96 Co     7.479895   10.064335   16.723694    ( 0.0000,  0.0000,  2.1000)
  97 Ni     9.948438   10.062297   16.717999    ( 0.0000,  0.0000,  2.0000)
  98 Ni    12.430846   10.066016   16.706229    ( 0.0000,  0.0000,  2.1000)
  99 Cr    14.931465   10.060206   16.719819    ( 0.0000,  0.0000,  2.0000)
 100 Ni     0.001393   -0.001477   18.721348    ( 0.0000,  0.0000,  2.1000)
 101 Co     8.706806   10.779893   18.727160    ( 0.0000,  0.0000,  2.1000)
 102 Fe    11.204107   10.781618   18.717855    ( 0.0000,  0.0000,  1.5000)
 103 Co     7.469960    0.013195   18.707875    ( 0.0000,  0.0000,  2.0000)
 104 Ni    16.181919   10.775754   18.709108    ( 0.0000,  0.0000,  2.1000)
 105 Co     1.248004    2.161303   18.718354    ( 0.0000,  0.0000,  2.1000)
 106 Ni     3.733315    2.155634   18.745800    ( 0.0000,  0.0000,  1.5000)
 107 Co     6.228574    2.157186   18.698042    ( 0.0000,  0.0000,  2.0000)
 108 Co     8.707430    2.146688   18.721378    ( 0.0000,  0.0000,  1.5000)
 109 Ni    11.204420    2.145825   18.737698    ( 0.0000,  0.0000,  0.0000)
 110 Cr     2.490030    4.312410   18.723374    ( 0.0000,  0.0000,  2.1000)
 111 Ni     4.985099    4.302214   18.737992    ( 0.0000,  0.0000,  1.5000)
 112 Cr     7.468273    4.307150   18.718736    ( 0.0000,  0.0000,  1.5000)
 113 Co     9.951365    4.318112   18.731387    ( 0.0000,  0.0000,  1.5000)
 114 Fe    12.445275    4.305296   18.744537    ( 0.0000,  0.0000,  0.0000)
 115 Co     3.740863    6.459076   18.741044    ( 0.0000,  0.0000,  0.0000)
 116 Cr     6.217689    6.472786   18.736054    ( 0.0000,  0.0000,  1.5000)
 117 Cr     8.709004    6.465931   18.718354    ( 0.0000,  0.0000,  0.0000)
 118 Ni    11.207929    6.465576   18.705468    ( 0.0000,  0.0000,  2.1000)
 119 Co    13.697451    6.465489   18.739900    ( 0.0000,  0.0000,  0.0000)
 120 Ni     4.983428    8.632721   18.739518    ( 0.0000,  0.0000,  1.5000)
 121 Ni     7.469224    8.629196   18.723022    ( 0.0000,  0.0000,  1.5000)
 122 Co     9.951770    8.622740   18.693815    ( 0.0000,  0.0000,  2.1000)
 123 Fe    12.435945    8.632257   18.713130    ( 0.0000,  0.0000,  0.0000)
 124 Cr    14.940770    8.642831   18.751406    ( 0.0000,  0.0000,  0.0000)

Unit cell:
           periodic     x           y           z      points  spacing
  1. axis:    yes   12.446800    0.000000    0.000000    54     0.1996
  2. axis:    yes    6.223010   10.778600    0.000000    54     0.1996
  3. axis:    no     0.000000    0.000000   29.353100   128     0.2293

  Lengths:  12.446800  12.446046  29.353100
  Angles:   90.000000  90.000000  60.000070

Effective grid spacing dv^(1/3) = 0.2193

     iter     time        total  log10-change:  magmom
                         energy  eigst   dens
iter:   1 05:45:50 -1142.066908                  +175.5309
iter:   2 05:49:28 -2163.393406  +0.58  -1.17    +139.7685
iter:   3 05:53:05 -1982.698599  +1.01  -0.83    +111.9551
iter:   4 05:56:45 -1166.673876  -0.43  -0.85    +77.8989
iter:   5 06:00:31 -1042.823507  -1.25  -1.21    +60.0644
iter:   6 06:04:22 -1032.514534  -1.78  -1.33    +46.0329
iter:   7 06:08:14 -1017.041151  -1.72  -1.35    +41.9758
iter:   8 06:12:06 -1132.122337  -0.98  -1.38    +43.1540
iter:   9 06:15:59 -1102.568584  -1.15  -1.16    +41.2073
iter:  10 06:19:50 -1009.178149  -1.64  -1.19    +36.4011
iter:  11 06:23:42  -997.899859  -1.94  -1.45    +36.1231
iter:  12 06:27:34  -998.527966  -1.70  -1.49    +36.7912
iter:  13 06:31:25 -1001.351769  -1.81  -1.53    +39.2210
iter:  14 06:35:34 -1007.247481  -1.47  -1.52    +40.4319
iter:  15 06:39:27  -998.236214  -1.72  -1.58    +40.7105
iter:  16 06:43:20 -1114.463417  -1.58  -1.61    +40.3092
iter:  17 06:47:12  -996.304207  -1.60  -1.19    +38.9968
iter:  18 06:51:03  -999.560375  -2.28  -1.68    +38.5375
iter:  19 06:54:56  -992.631606  -2.36  -1.64    +38.5406
iter:  20 06:58:48  -995.360627  -2.44  -1.74    +39.5767
iter:  21 07:02:54  -993.309802  -2.15  -1.72    +40.5415
iter:  22 07:06:49 -1405.128400  -0.93  -1.79    +41.4631
iter:  23 07:10:41  -991.928780  -1.36  -0.99    +41.8147
iter:  24 07:14:33  -989.725776  -2.23  -1.80    +43.1071
iter:  25 07:18:25  -991.669475  -2.57  -1.91    +45.5838
iter:  26 07:22:17  -990.285947  -3.09  -1.84    +46.5509
iter:  27 07:26:10  -989.781279  -3.03  -1.91    +48.4209
iter:  28 07:30:10 -1014.068135  -2.15  -1.96    +49.1086
iter:  29 07:34:14 -1009.280666  -1.94  -1.57    +51.2677
iter:  30 07:38:06  -992.566585  -2.52  -1.61    +49.9185
iter:  31 07:41:58  -990.884942  -2.91  -1.91    +50.3374
iter:  32 07:45:50  -990.293875  -3.05  -2.02    +51.7081
iter:  33 07:49:42  -990.653393  -3.38  -2.07    +53.2242
iter:  34 07:53:34  -996.962516  -2.56  -2.07    +54.9019
iter:  35 07:57:24  -990.961727  -2.86  -1.83    +55.5733
iter:  36 08:01:33  -992.471283  -2.85  -2.13    +57.5267
iter:  37 08:05:26  -991.441367  -3.00  -2.03    +58.1398
iter:  38 08:09:18  -991.626464  -2.97  -2.16    +60.3002
iter:  39 08:13:09  -991.748233  -2.95  -2.21    +61.2724
iter:  40 08:17:01  -991.582536  -3.28  -2.19    +62.0123
iter:  41 08:20:53  -993.038266  -3.16  -2.25    +62.8084
iter:  42 08:24:45  -991.444506  -3.43  -2.08    +63.4965
iter:  43 08:28:44  -991.834694  -3.47  -2.31    +65.6794
iter:  44 08:32:49  -991.948877  -3.66  -2.30    +66.7208
iter:  45 08:36:41  -992.042586  -3.12  -2.33    +68.5913
iter:  46 08:40:33  -992.353602  -3.49  -2.32    +68.3521
iter:  47 08:44:25 -1002.174933  -2.61  -2.33    +69.2952
iter:  48 08:48:17  -992.277918  -2.93  -1.77    +69.0650
iter:  49 08:52:09  -992.730976  -3.20  -2.40    +68.8399
iter:  50 08:56:00  -992.224383  -3.60  -2.32    +68.8151
iter:  51 08:59:51  -992.517717  -3.29  -2.52    +68.6202
iter:  52 09:04:05  -992.165252  -4.00  -2.41    +69.3048
iter:  53 09:07:58  -992.777933  -3.66  -2.64    +69.6983
iter:  54 09:11:50  -992.327005  -3.82  -2.37    +70.0116
iter:  55 09:15:42  -992.357884  -3.96  -2.59    +70.6445
iter:  56 09:19:34  -992.375106c -4.08  -2.65    +70.9064
iter:  57 09:23:26  -993.031635  -3.66  -2.70    +71.0601
iter:  58 09:27:17  -992.414640  -4.09  -2.34    +71.1910
iter:  59 09:30:54  -992.533156  -4.11  -2.72    +71.5261
iter:  60 09:34:45  -993.047816  -3.56  -2.67    +71.1587
iter:  61 09:38:37  -992.583908  -3.75  -2.39    +71.2226
iter:  62 09:42:29  -992.543987  -3.98  -2.70    +71.2303
iter:  63 09:46:21  -993.054566  -3.62  -2.86    +71.1555
iter:  64 09:50:13  -992.675488  -3.68  -2.41    +71.4109
iter:  65 09:53:46  -992.533765  -4.36  -2.65    +71.2443
iter:  66 09:57:27  -992.604696  -4.51  -3.01    +71.1893
iter:  67 10:01:17  -992.554746c -5.21  -2.82    +71.1296
iter:  68 10:05:06  -992.584370c -4.90  -2.99    +70.9891
iter:  69 10:08:42  -992.594572c -4.35  -2.93    +70.8640
iter:  70 10:12:20  -992.593155c -4.38  -2.96    +70.9625
iter:  71 10:15:49  -992.651918c -4.51  -3.01    +71.1712
iter:  72 10:19:30  -992.620693c -4.47  -2.83    +71.0261
iter:  73 10:23:06  -992.643339c -4.60  -2.99    +70.9285
iter:  74 10:26:40  -992.612339c -4.77  -2.93    +70.8260
iter:  75 10:30:16  -992.624255c -4.68  -3.15    +70.8283
iter:  76 10:33:51  -992.646455c -4.76  -3.17    +70.9648
iter:  77 10:37:26  -992.640907c -4.78  -3.02    +70.9263
iter:  78 10:41:00  -992.649937c -4.61  -3.13    +70.9095
iter:  79 10:44:34  -992.645845c -4.87  -3.15    +70.8972
iter:  80 10:48:09  -992.646604c -5.05  -3.29    +70.8698
iter:  81 10:51:45  -992.649204c -5.20  -3.47    +70.8822
iter:  82 10:55:21  -992.663156c -5.07  -3.58    +70.9690
iter:  83 10:58:57  -992.654914c -5.75  -3.33    +70.9592
iter:  84 11:02:31  -992.660315c -5.48  -3.65    +70.9654
iter:  85 11:06:06  -992.669586c -5.10  -3.64    +70.9983
iter:  86 11:09:41  -992.694587c -4.39  -3.55    +71.0880
iter:  87 11:13:17  -992.691652c -5.62  -3.30    +71.0953
iter:  88 11:16:53  -992.693851c -5.31  -3.31    +71.1431
iter:  89 11:20:27  -992.698504c -5.30  -3.36    +71.1341
iter:  90 11:24:02  -992.703277c -5.39  -3.30    +71.1074
iter:  91 11:27:38  -992.847045  -4.34  -3.23    +71.0986
iter:  92 11:31:13  -992.717106  -4.47  -2.68    +71.0918
iter:  93 11:34:47  -992.706937  -4.69  -3.08    +70.9800
iter:  94 11:38:22  -992.822653c -4.20  -3.13    +70.9664
iter:  95 11:41:57  -992.692868  -4.62  -2.74    +71.0262
iter:  96 11:45:32  -992.699671  -5.24  -3.36    +71.0150
iter:  97 11:49:05  -992.690939c -5.79  -3.21    +70.9587
iter:  98 11:52:38  -992.700190c -5.32  -3.48    +70.9600
iter:  99 11:56:13  -992.692389c -5.57  -3.22    +70.9483
iter: 100 11:59:48  -992.694871c -5.58  -3.47    +70.8819
iter: 101 12:03:23  -992.735137c -4.76  -3.38    +70.8625
iter: 102 12:06:57  -992.698311c -5.10  -2.98    +70.8882
iter: 103 12:10:32  -992.702282c -5.02  -3.31    +71.0453
iter: 104 12:14:06  -992.693612c -5.55  -3.25    +70.9567
iter: 105 12:17:40  -992.693995c -5.68  -3.65    +70.9275
iter: 106 12:21:14  -992.692426c -6.19  -3.55    +70.9208
iter: 107 12:24:47  -992.693211c -6.12  -3.78    +70.8932
iter: 108 12:28:21  -992.693416c -6.31  -3.69    +70.8744
iter: 109 12:31:56  -992.706794c -5.38  -3.79    +70.8533
iter: 110 12:35:32  -992.692958c -5.73  -3.21    +70.8615
iter: 111 12:39:07  -992.694919c -6.04  -3.90    +70.8740
iter: 112 12:42:41  -992.693805c -6.15  -3.74    +70.8812
iter: 113 12:46:15  -992.694311c -6.31  -3.94    +70.8962
iter: 114 12:49:49  -992.694013c -6.57  -4.04c   +70.9009
iter: 115 12:53:21  -992.695037c -6.39  -4.09c   +70.9125
iter: 116 12:56:56  -992.694555c -6.96  -3.81    +70.8993
iter: 117 13:00:31  -992.694958c -6.61  -4.09c   +70.8898
iter: 118 13:04:06  -992.695264c -6.81  -4.11c   +70.8808
iter: 119 13:07:40  -992.695653c -6.48  -4.02c   +70.8695
iter: 120 13:11:15  -992.695453c -6.73  -4.14c   +70.8647
iter: 121 13:14:49  -992.695965c -6.61  -4.51c   +70.8692
iter: 122 13:18:23  -992.696262c -6.81  -4.51c   +70.8668
iter: 123 13:21:56  -992.696544c -6.90  -4.36c   +70.8580
iter: 124 13:25:30  -992.696815c -6.89  -4.40c   +70.8468
iter: 125 13:29:04  -992.696003c -6.18  -4.38c   +70.8761
iter: 126 13:32:38  -992.697063c -5.93  -4.34c   +70.8340
iter: 127 13:36:09  -992.697190c -7.09  -4.39c   +70.8439
iter: 128 13:39:43  -992.697521c -6.74  -4.41c   +70.8333
iter: 129 13:43:18  -992.697571c -7.02  -4.32c   +70.8316
iter: 130 13:46:51  -992.699150c -6.51  -4.12c   +70.8225
iter: 131 13:50:26  -992.698058c -6.70  -3.71    +70.8275
iter: 132 13:54:00  -992.698358c -6.63  -4.09c   +70.8210
iter: 133 13:57:34  -992.698953c -6.51  -4.07c   +70.8113
iter: 134 14:01:07  -992.698989c -6.59  -4.06c   +70.8088
iter: 135 14:04:41  -992.699139c -6.75  -4.26c   +70.8015
iter: 136 14:08:13  -992.699484c -6.72  -4.23c   +70.7897
iter: 137 14:11:48  -992.699762c -6.77  -4.22c   +70.7889
iter: 138 14:15:22  -992.699860c -6.77  -4.05c   +70.7893
iter: 139 14:18:57  -992.700944c -6.37  -4.24c   +70.7864
iter: 140 14:22:31  -992.700393c -6.90  -3.92    +70.7898
iter: 141 14:26:06  -992.702583c -6.05  -4.29c   +70.7820
iter: 142 14:29:39  -992.700926c -6.27  -3.62    +70.7760
iter: 143 14:33:13  -992.701153c -6.59  -4.06c   +70.7748
iter: 144 14:36:47  -992.701979c -6.49  -4.36c   +70.7772
iter: 145 14:40:19  -992.701655c -7.30  -4.07c   +70.7772
iter: 146 14:43:54  -992.702046c -6.78  -4.42c   +70.7627
iter: 147 14:47:29  -992.701985c -6.99  -4.29c   +70.7638
iter: 148 14:51:04  -992.702423c -6.76  -4.20c   +70.7546
iter: 149 14:54:37  -992.702709c -6.87  -4.20c   +70.7496
iter: 150 14:58:05  -992.702958c -6.49  -4.23c   +70.7500
iter: 151 15:01:40  -992.703310c -6.93  -4.45c   +70.7468
iter: 152 15:05:15  -992.703717c -6.60  -4.49c   +70.7377
iter: 153 15:08:50  -992.703801c -7.11  -4.58c   +70.7314
iter: 154 15:12:26  -992.704245c -6.73  -4.70c   +70.7200
iter: 155 15:16:02  -992.704389c -7.20  -4.49c   +70.7183
iter: 156 15:19:37  -992.704532c -7.21  -4.49c   +70.7162
iter: 157 15:23:11  -992.704832c -6.98  -4.58c   +70.7121
iter: 158 15:26:45  -992.704560c -6.96  -4.63c   +70.7209
iter: 159 15:30:21  -992.705237c -6.32  -4.35c   +70.7035
iter: 160 15:33:56  -992.705402c -6.92  -4.34c   +70.6886
iter: 161 15:37:32  -992.705845c -6.76  -4.41c   +70.6795
iter: 162 15:41:08  -992.705998c -6.73  -4.41c   +70.6681
iter: 163 15:44:42  -992.709193c -6.16  -4.39c   +70.6608
iter: 164 15:48:17  -992.706756c -6.30  -3.57    +70.6637
iter: 165 15:51:51  -992.706919c -6.53  -4.18c   +70.6543
iter: 166 15:55:26  -992.707284c -6.76  -4.38c   +70.6444
iter: 167 15:59:05  -992.707542c -6.88  -4.49c   +70.6398
iter: 168 16:02:52  -992.707768c -6.53  -4.49c   +70.6326
iter: 169 16:06:55  -992.708723c -6.71  -4.21c   +70.6324
iter: 170 16:10:45  -992.708466c -6.49  -3.86    +70.6375
iter: 171 16:14:34  -992.708591c -6.70  -4.20c   +70.6280
iter: 172 16:18:23  -992.708960c -6.60  -4.40c   +70.6172
iter: 173 16:22:11  -992.709123c -7.07  -4.38c   +70.6131
iter: 174 16:25:59  -992.709500c -6.55  -4.49c   +70.5959
iter: 175 16:29:48  -992.709753c -6.70  -4.42c   +70.5888
iter: 176 16:33:45  -992.709865c -7.06  -4.23c   +70.5892
iter: 177 16:37:48  -992.710149c -6.75  -4.24c   +70.5875
iter: 178 16:41:40  -992.710379c -6.89  -4.25c   +70.5833
iter: 179 16:45:31  -992.710767c -6.83  -4.20c   +70.5795
iter: 180 16:49:22  -992.711133c -6.62  -4.14c   +70.5759
iter: 181 16:53:14  -992.711388c -6.49  -4.07c   +70.5677
iter: 182 16:57:04  -992.712064c -6.41  -3.96    +70.5677
iter: 183 17:00:55  -992.711816c -6.54  -4.06c   +70.5640
iter: 184 17:04:47  -992.711972c -6.61  -4.23c   +70.5548
iter: 185 17:08:36  -992.712272c -6.83  -4.14c   +70.5478
iter: 186 17:12:27  -992.712282c -6.98  -3.98    +70.5352
iter: 187 17:16:17  -992.712601c -6.42  -4.22c   +70.5195
iter: 188 17:20:05  -992.712871c -6.95  -4.02c   +70.5249
iter: 189 17:23:49  -992.713733c -6.56  -4.17c   +70.5210
iter: 190 17:27:27  -992.713044c -7.19  -3.86    +70.5210
iter: 191 17:31:10  -992.713290c -6.75  -4.19c   +70.5195
iter: 192 17:34:56  -992.713738c -6.56  -4.24c   +70.5182
iter: 193 17:38:37  -992.713687c -7.06  -4.03c   +70.5121
iter: 194 17:42:24  -992.713883c -6.69  -4.22c   +70.4997
iter: 195 17:46:04  -992.714083c -6.77  -4.24c   +70.4978
iter: 196 17:49:47  -992.713946c -6.95  -4.10c   +70.4963
iter: 197 17:53:21  -992.715888c -6.25  -4.09c   +70.4978
iter: 198 17:56:58  -992.714633c -6.49  -3.74    +70.5019
iter: 199 18:00:39  -992.714868c -6.49  -4.06c   +70.4978
iter: 200 18:04:16  -992.714962c -6.73  -4.39c   +70.4784
iter: 201 18:07:53  -992.715057c -6.87  -4.45c   +70.4785
iter: 202 18:11:30  -992.715334c -6.91  -4.44c   +70.4712
iter: 203 18:15:13  -992.715447c -6.97  -4.66c   +70.4670
iter: 204 18:18:59  -992.715577c -7.18  -4.35c   +70.4611
iter: 205 18:22:39  -992.715732c -7.08  -4.61c   +70.4542
iter: 206 18:25:49  -992.717000c -5.51  -4.62c   +70.4103
iter: 207 18:29:22  -992.716676c -6.92  -4.22c   +70.4309
iter: 208 18:32:55  -992.717035c -7.28  -4.29c   +70.4429
iter: 209 18:36:30  -992.716798c -7.05  -4.08c   +70.4261
iter: 210 18:40:03  -992.717033c -6.93  -4.39c   +70.4192
iter: 211 18:43:38  -992.717164c -7.00  -4.28c   +70.4198
iter: 212 18:47:12  -992.717267c -6.65  -4.27c   +70.4133
iter: 213 18:50:45  -992.717409c -6.44  -4.12c   +70.4046
iter: 214 18:54:18  -992.719025c -6.32  -3.99    +70.4129
iter: 215 18:57:52  -992.718100c -6.23  -3.74    +70.4327
iter: 216 19:01:27  -992.717760c -6.51  -3.85    +70.4205
iter: 217 19:04:59  -992.717650c -6.77  -4.22c   +70.3919
iter: 218 19:08:33  -992.717807c -7.11  -4.34c   +70.3908
iter: 219 19:12:06  -992.717970c -6.97  -4.39c   +70.3884
iter: 220 19:15:40  -992.718218c -7.32  -4.24c   +70.3899
iter: 221 19:19:13  -992.717999c -6.83  -4.09c   +70.3912
iter: 222 19:22:47  -992.718131c -7.16  -4.14c   +70.3939
iter: 223 19:26:22  -992.718222c -7.09  -4.32c   +70.3827
iter: 224 19:29:55  -992.718715c -6.38  -4.33c   +70.3728
iter: 225 19:33:29  -992.718447c -6.88  -4.03c   +70.3813
iter: 226 19:37:02  -992.720546c -6.27  -4.12c   +70.3767
iter: 227 19:40:35  -992.718350c -6.54  -3.65    +70.3850
iter: 228 19:44:08  -992.718711c -6.67  -4.12c   +70.3897
iter: 229 19:47:42  -992.719771c -6.15  -4.18c   +70.3803
iter: 230 19:51:16  -992.718641c -6.53  -3.76    +70.3692
iter: 231 19:54:51  -992.718685c -7.06  -4.17c   +70.3708
iter: 232 19:58:24  -992.718689c -7.43c -4.35c   +70.3666

Converged after 232 iterations.

Dipole moment: (52.102470, 28.147339, -0.007179) |e|*Ang

Total magnetic moment: (0.000000, 0.000000, 70.366610)
Local magnetic moments:
   0 Cr ( 0.000000,  0.000000, -2.098113)
   1 Co ( 0.000000,  0.000000,  1.529434)
   2 Co ( 0.000000,  0.000000,  1.217513)
   3 Cr ( 0.000000,  0.000000,  1.818402)
   4 Ni ( 0.000000,  0.000000,  0.036548)
   5 Ni ( 0.000000,  0.000000,  0.370998)
   6 Co ( 0.000000,  0.000000,  1.142009)
   7 Cr ( 0.000000,  0.000000, -2.366034)
   8 Co ( 0.000000,  0.000000,  1.333369)
   9 Co ( 0.000000,  0.000000,  1.250014)
  10 Cr ( 0.000000,  0.000000,  1.416243)
  11 Fe ( 0.000000,  0.000000,  2.254145)
  12 Co ( 0.000000,  0.000000,  1.449626)
  13 Cr ( 0.000000,  0.000000, -2.388381)
  14 Ni ( 0.000000,  0.000000,  0.190514)
  15 Co ( 0.000000,  0.000000,  0.553588)
  16 Co ( 0.000000,  0.000000,  1.278091)
  17 Fe ( 0.000000,  0.000000,  2.470773)
  18 Cr ( 0.000000,  0.000000,  1.740905)
  19 Ni ( 0.000000,  0.000000,  0.080277)
  20 Cr ( 0.000000,  0.000000, -1.747964)
  21 Ni ( 0.000000,  0.000000,  0.279695)
  22 Co ( 0.000000,  0.000000,  1.296664)
  23 Co ( 0.000000,  0.000000, -1.000439)
  24 Co ( 0.000000,  0.000000, -0.868990)
  25 Co ( 0.000000,  0.000000, -0.054626)
  26 Co ( 0.000000,  0.000000,  1.147357)
  27 Cr ( 0.000000,  0.000000, -0.556020)
  28 Fe ( 0.000000,  0.000000, -1.638724)
  29 Cr ( 0.000000,  0.000000,  0.337087)
  30 Fe ( 0.000000,  0.000000,  1.683733)
  31 Fe ( 0.000000,  0.000000,  1.952880)
  32 Ni ( 0.000000,  0.000000,  0.217879)
  33 Fe ( 0.000000,  0.000000,  1.662275)
  34 Cr ( 0.000000,  0.000000, -0.004676)
  35 Cr ( 0.000000,  0.000000, -1.151079)
  36 Fe ( 0.000000,  0.000000,  1.754416)
  37 Ni ( 0.000000,  0.000000,  0.329861)
  38 Ni ( 0.000000,  0.000000,  0.312193)
  39 Fe ( 0.000000,  0.000000,  2.001617)
  40 Cr ( 0.000000,  0.000000, -1.036719)
  41 Fe ( 0.000000,  0.000000,  2.060209)
  42 Fe ( 0.000000,  0.000000,  2.167262)
  43 Fe ( 0.000000,  0.000000,  1.494374)
  44 Co ( 0.000000,  0.000000,  0.498883)
  45 Cr ( 0.000000,  0.000000,  0.037846)
  46 Ni ( 0.000000,  0.000000,  0.278947)
  47 Ni ( 0.000000,  0.000000,  0.186040)
  48 Cr ( 0.000000,  0.000000, -0.735052)
  49 Fe ( 0.000000,  0.000000,  1.113195)
  50 Cr ( 0.000000,  0.000000, -0.311797)
  51 Ni ( 0.000000,  0.000000,  0.159223)
  52 Fe ( 0.000000,  0.000000,  1.763154)
  53 Cr ( 0.000000,  0.000000, -0.050653)
  54 Fe ( 0.000000,  0.000000, -1.110765)
  55 Cr ( 0.000000,  0.000000, -1.150748)
  56 Fe ( 0.000000,  0.000000,  1.730801)
  57 Cr ( 0.000000,  0.000000, -1.354819)
  58 Ni ( 0.000000,  0.000000,  0.164467)
  59 Ni ( 0.000000,  0.000000,  0.170238)
  60 Fe ( 0.000000,  0.000000,  1.763948)
  61 Cr ( 0.000000,  0.000000, -1.511509)
  62 Fe ( 0.000000,  0.000000,  1.952353)
  63 Cr ( 0.000000,  0.000000, -1.321027)
  64 Ni ( 0.000000,  0.000000,  0.138925)
  65 Co ( 0.000000,  0.000000,  0.696774)
  66 Co ( 0.000000,  0.000000,  1.030699)
  67 Fe ( 0.000000,  0.000000, -1.454661)
  68 Cr ( 0.000000,  0.000000,  0.125206)
  69 Cr ( 0.000000,  0.000000, -0.924806)
  70 Cr ( 0.000000,  0.000000,  0.222247)
  71 Cr ( 0.000000,  0.000000, -0.688013)
  72 Cr ( 0.000000,  0.000000,  0.334734)
  73 Co ( 0.000000,  0.000000,  0.126642)
  74 Fe ( 0.000000,  0.000000, -0.767862)
  75 Fe ( 0.000000,  0.000000,  2.282849)
  76 Ni ( 0.000000,  0.000000,  0.382558)
  77 Fe ( 0.000000,  0.000000,  2.422994)
  78 Ni ( 0.000000,  0.000000,  0.397225)
  79 Co ( 0.000000,  0.000000,  1.167223)
  80 Fe ( 0.000000,  0.000000,  2.304829)
  81 Co ( 0.000000,  0.000000,  1.168988)
  82 Fe ( 0.000000,  0.000000,  2.132322)
  83 Fe ( 0.000000,  0.000000,  2.207803)
  84 Ni ( 0.000000,  0.000000,  0.491903)
  85 Ni ( 0.000000,  0.000000,  0.326748)
  86 Fe ( 0.000000,  0.000000,  2.107508)
  87 Ni ( 0.000000,  0.000000,  0.243027)
  88 Fe ( 0.000000,  0.000000,  2.151682)
  89 Co ( 0.000000,  0.000000,  1.230936)
  90 Fe ( 0.000000,  0.000000,  2.019002)
  91 Ni ( 0.000000,  0.000000,  0.403684)
  92 Co ( 0.000000,  0.000000,  1.317431)
  93 Ni ( 0.000000,  0.000000,  0.387006)
  94 Fe ( 0.000000,  0.000000,  1.885399)
  95 Fe ( 0.000000,  0.000000,  2.100588)
  96 Co ( 0.000000,  0.000000,  1.307526)
  97 Ni ( 0.000000,  0.000000,  0.484586)
  98 Ni ( 0.000000,  0.000000,  0.405440)
  99 Cr ( 0.000000,  0.000000, -0.324749)
 100 Ni ( 0.000000,  0.000000,  0.635456)
 101 Co ( 0.000000,  0.000000,  1.753656)
 102 Fe ( 0.000000,  0.000000,  2.728301)
 103 Co ( 0.000000,  0.000000,  1.385855)
 104 Ni ( 0.000000,  0.000000,  0.419704)
 105 Co ( 0.000000,  0.000000,  1.589897)
 106 Ni ( 0.000000,  0.000000,  0.583561)
 107 Co ( 0.000000,  0.000000,  1.555205)
 108 Co ( 0.000000,  0.000000,  1.608979)
 109 Ni ( 0.000000,  0.000000,  0.657306)
 110 Cr ( 0.000000,  0.000000, -2.562920)
 111 Ni ( 0.000000,  0.000000,  0.409261)
 112 Cr ( 0.000000,  0.000000, -2.286941)
 113 Co ( 0.000000,  0.000000,  1.341557)
 114 Fe ( 0.000000,  0.000000,  2.707982)
 115 Co ( 0.000000,  0.000000,  1.352554)
 116 Cr ( 0.000000,  0.000000,  2.204797)
 117 Cr ( 0.000000,  0.000000, -2.426164)
 118 Ni ( 0.000000,  0.000000,  0.548155)
 119 Co ( 0.000000,  0.000000,  1.489016)
 120 Ni ( 0.000000,  0.000000,  0.432409)
 121 Ni ( 0.000000,  0.000000,  0.454625)
 122 Co ( 0.000000,  0.000000,  1.612557)
 123 Fe ( 0.000000,  0.000000,  2.604306)
 124 Cr ( 0.000000,  0.000000, -2.400790)

Energy contributions relative to reference atoms: (reference = -4451268.207082)

Kinetic:       +218.982991
Potential:     -278.336588
External:        +0.000000
XC:            -976.127004
Entropy (-ST):   -5.682310
Local:          +45.603068
--------------------------
Free energy:   -995.559844
Extrapolated:  -992.718689

Dipole-layer corrected work functions: 4.941599, 4.951282 eV

Spin contamination: 43.033241 electrons
Showing all kpts
                      Up                     Down
 Kpt  Band  Eigenvalues  Occupancy  Eigenvalues  Occupancy
  0   606      0.01095    0.99266      0.83482    0.03448
  0   607      0.01733    0.99218      0.83956    0.03294
  0   608      0.03033    0.99110      0.84663    0.03076
  0   609      0.05161    0.98901      0.85441    0.02852

  1   606      0.01998    0.99197      0.84306    0.03184
  1   607      0.03406    0.99076      0.85509    0.02833
  1   608      0.04351    0.98986      0.86104    0.02674
  1   609      0.05316    0.98884      0.86729    0.02516


Fermi level: 0.50159

No gap

Forces in eV/Ang:
  0 Cr    0.19148    0.42373   -0.19771
  1 Co    0.09873    0.03766    0.12026
  2 Co   -0.27293   -0.26184    0.10091
  3 Cr    0.19939   -0.57821   -0.20930
  4 Ni    0.02833    0.04148   -0.26211
  5 Ni   -0.14389   -0.00975   -0.31789
  6 Co   -0.25352   -0.12036   -0.04628
  7 Cr   -0.01686    0.36693   -0.17293
  8 Co    0.25123    0.06048    0.32258
  9 Co    0.12160   -0.13842    0.37188
 10 Cr    0.10601   -0.03369    0.18033
 11 Fe    0.10900    0.23274   -0.14779
 12 Co   -0.25152    0.04746    0.10674
 13 Cr   -0.14740   -0.20600   -0.16780
 14 Ni    0.24939   -0.25162   -0.04007
 15 Co   -0.10373    0.17383    0.30390
 16 Co   -0.07212    0.01748    0.04060
 17 Fe   -0.61553    0.08679   -0.36510
 18 Cr    0.49102    0.37965   -0.44769
 19 Ni    0.27139    0.16451    0.04408
 20 Cr   -0.33630   -0.50421   -0.07334
 21 Ni    0.05287   -0.03258    0.05150
 22 Co   -0.01702    0.19423    0.18569
 23 Co   -0.26196    0.11407    0.28819
 24 Co    0.01220   -0.25428    0.34620
 25 Co   -0.35547    0.08787    0.12572
 26 Co    0.17340    0.03978   -0.12894
 27 Cr    0.08500   -0.01583   -0.55384
 28 Fe   -0.04165    0.17250   -0.06235
 29 Cr    0.04470   -0.30172   -0.34881
 30 Fe   -0.17199   -0.02419   -0.12155
 31 Fe    0.05539   -0.08254   -0.19728
 32 Ni    0.10454   -0.10214    0.31490
 33 Fe    0.07283    0.32259    0.20360
 34 Cr    0.04677   -0.19580    0.05014
 35 Cr    0.01492    0.15995   -0.54310
 36 Fe    0.15289   -0.14046   -0.07436
 37 Ni    0.15111    0.06771   -0.25049
 38 Ni   -0.17771   -0.27131   -0.02189
 39 Fe   -0.16546   -0.00586   -0.32214
 40 Cr    0.35710    0.13989   -0.15319
 41 Fe    0.05973    0.17109   -0.00279
 42 Fe   -0.09551   -0.09867    0.10589
 43 Fe    0.00914    0.03594    0.28828
 44 Co   -0.05776    0.14717    0.09656
 45 Cr   -0.03181   -0.05382   -0.01684
 46 Ni   -0.08202   -0.08340    0.04625
 47 Ni    0.02730   -0.09473    0.09009
 48 Cr    0.07745   -0.07080   -0.17737
 49 Fe    0.12619   -0.02470    0.07826
 50 Cr   -0.39833   -0.13690   -0.11075
 51 Ni    0.00885   -0.06669   -0.07535
 52 Fe    0.23951    0.11060   -0.24511
 53 Cr    0.25829   -0.36200   -0.04382
 54 Fe    0.09515   -0.09015   -0.28090
 55 Cr    0.07144    0.11598    0.31025
 56 Fe   -0.01611   -0.08495   -0.18981
 57 Cr    0.00113   -0.43365   -0.26194
 58 Ni    0.12230   -0.23745   -0.24845
 59 Ni   -0.03419   -0.19257   -0.16529
 60 Fe    0.06113    0.08668    0.21665
 61 Cr   -0.32062    0.31625   -0.23744
 62 Fe   -0.11022    0.01955   -0.17649
 63 Cr    0.16447    0.06389   -0.21018
 64 Ni   -0.15592    0.06872   -0.15550
 65 Co   -0.03269    0.09146   -0.13297
 66 Co   -0.11177    0.02169    0.03765
 67 Fe    0.14313    0.36815   -0.32567
 68 Cr   -0.26178   -0.08858    0.08970
 69 Cr    0.14967    0.31270   -0.07234
 70 Cr   -0.29975    0.12735   -0.06474
 71 Cr   -0.08202   -0.15038    0.01263
 72 Cr    0.26484   -0.15512    0.21557
 73 Co    0.13515    0.03195   -0.18756
 74 Fe    0.11412    0.10269   -0.21551
 75 Fe   -0.13098   -0.06631   -0.08634
 76 Ni   -0.10355   -0.11433    0.02017
 77 Fe   -0.11759    0.16824   -0.04496
 78 Ni   -0.13855   -0.03158    0.15569
 79 Co    0.02076   -0.03072   -0.12324
 80 Fe    0.10757    0.02545   -0.03225
 81 Co    0.23988    0.06927    0.10972
 82 Fe   -0.15262    0.04987    0.25245
 83 Fe    0.12544   -0.26400    0.30281
 84 Ni    0.03667   -0.11693   -0.11855
 85 Ni   -0.03502    0.23511    0.35151
 86 Fe   -0.33546   -0.08570   -0.23510
 87 Ni    0.08352    0.19770   -0.23944
 88 Fe    0.30672    0.17546    0.21741
 89 Co   -0.15267    0.14342    0.08355
 90 Fe    0.13694   -0.11584   -0.00013
 91 Ni    0.19563   -0.01494   -0.35451
 92 Co   -0.13077    0.17004   -0.03582
 93 Ni   -0.06346    0.13886   -0.11681
 94 Fe   -0.01042   -0.23160   -0.21599
 95 Fe   -0.11028    0.09134    0.16220
 96 Co    0.06002    0.01393    0.06045
 97 Ni   -0.08629   -0.12624   -0.06562
 98 Ni    0.28866   -0.00949   -0.10072
 99 Cr   -0.05554    0.21755   -0.25036
100 Ni    0.05980    0.04421    0.28391
101 Co   -0.08597   -0.06690   -0.00651
102 Fe    0.01053    0.02417    0.56670
103 Co   -0.01970    0.01853   -0.00383
104 Ni   -0.03752    0.12964    0.29836
105 Co   -0.14568   -0.28401    0.04185
106 Ni    0.09070   -0.03824    0.05635
107 Co   -0.09779    0.05761    0.13376
108 Co    0.18847   -0.04028   -0.11539
109 Ni    0.01273    0.13167    0.12828
110 Cr    0.17022    0.00461    0.35547
111 Ni   -0.13316   -0.18639    0.11444
112 Cr   -0.26453   -0.83650    0.26882
113 Co   -0.13019   -0.06872   -0.08007
114 Fe   -0.35667    0.07906    0.24638
115 Co   -0.21087    0.16415   -0.26433
116 Cr    0.18516   -0.02655    0.62821
117 Cr    0.64653    0.63775    0.45078
118 Ni    0.05646   -0.06191    0.28429
119 Co   -0.04880    0.08751   -0.39782
120 Ni   -0.04759    0.12089    0.19559
121 Ni    0.13623    0.27676    0.09027
122 Co   -0.20816    0.15108    0.13398
123 Fe    0.02138   -0.15774    0.40012
124 Cr    0.15618   -0.21611    0.39820

Timing:                              incl.     excl.
-----------------------------------------------------------
Forces:                             50.253    50.253   0.1% |
Hamiltonian:                         2.184     0.015   0.0% |
 Atomic:                             0.405     0.002   0.0% |
  XC Correction:                     0.404     0.404   0.0% |
 Calculate atomic Hamiltonians:      1.102     1.102   0.0% |
 Communicate:                        0.113     0.113   0.0% |
 Initialize Hamiltonian:             0.001     0.001   0.0% |
 Poisson:                            0.130     0.130   0.0% |
 XC 3D grid:                         0.419     0.419   0.0% |
LCAO initialization:               390.856     0.459   0.0% |
 LCAO eigensolver:                  23.412     0.020   0.0% |
  Calculate projections:             0.000     0.000   0.0% |
  DenseAtomicCorrection:             0.000     0.000   0.0% |
  Distribute overlap matrix:        13.287    13.287   0.0% |
  Orbital Layouts:                  10.040    10.040   0.0% |
  Potential matrix:                  0.007     0.007   0.0% |
  Sum over cells:                    0.059     0.059   0.0% |
 LCAO to grid:                     364.220   364.220   0.7% |
 Set positions (LCAO WFS):           2.764     2.424   0.0% |
  Basic WFS set positions:           0.004     0.004   0.0% |
  Basis functions set positions:     0.001     0.001   0.0% |
  P tci:                             0.000     0.000   0.0% |
  ST tci:                            0.135     0.135   0.0% |
  mktci:                             0.201     0.201   0.0% |
PWDescriptor:                        0.119     0.119   0.0% |
SCF-cycle:                       51393.747     4.418   0.0% |
 Davidson:                       49756.370 13755.795  26.5% |----------|
  Apply H:                         825.253   810.304   1.6% ||
   HMM T:                           14.949    14.949   0.0% |
  Subspace diag:                  4816.478     0.120   0.0% |
   calc_h_matrix:                 2017.022  1269.181   2.4% ||
    Apply H:                       747.841   732.326   1.4% ||
     HMM T:                         15.515    15.515   0.0% |
   diagonalize:                    437.435   437.435   0.8% |
   rotate_psi:                    2361.902  2361.902   4.6% |-|
  calc. matrices:                11222.289  9799.091  18.9% |-------|
   Apply H:                       1423.198  1392.076   2.7% ||
    HMM T:                          31.121    31.121   0.1% |
  diagonalize:                   14145.058 14145.058  27.3% |----------|
  rotate_psi:                     4991.498  4991.498   9.6% |---|
 Density:                          924.835     0.010   0.0% |
  Atomic density matrices:           7.612     7.612   0.0% |
  Mix:                             525.793   525.793   1.0% |
  Multipole moments:                 0.183     0.183   0.0% |
  Pseudo density:                  391.236   391.223   0.8% |
   Symmetrize density:               0.014     0.014   0.0% |
 Hamiltonian:                      684.485     3.778   0.0% |
  Atomic:                           96.466     0.462   0.0% |
   XC Correction:                   96.004    96.004   0.2% |
  Calculate atomic Hamiltonians:   449.608   449.608   0.9% |
  Communicate:                      27.158    27.158   0.1% |
  Poisson:                          11.932    11.932   0.0% |
  XC 3D grid:                       95.543    95.543   0.2% |
 Orthonormalize:                    23.638     0.001   0.0% |
  calc_s_matrix:                     3.025     3.025   0.0% |
  inverse-cholesky:                  1.111     1.111   0.0% |
  projections:                      14.396    14.396   0.0% |
  rotate_psi_s:                      5.106     5.106   0.0% |
Set symmetry:                        0.001     0.001   0.0% |
Other:                              11.959    11.959   0.0% |
-----------------------------------------------------------
Total:                                     51849.119 100.0%

Date: Tue Apr 18 19:59:22 2023
