
  ___ ___ ___ _ _ _  
 |   |   |_  | | | | 
 | | | | | . | | | | 
 |__ |  _|___|_____|  22.8.0
 |___|_|             

User:   c.zeng@d0139
Date:   Sat Apr  8 04:32:06 2023
Arch:   x86_64
Pid:    91536
CWD:    /home/c.zeng/projects/hea-corrosion/hea-mlp/data-curation/volume/dft-jobs/137
Python: 3.8.1
gpaw:   /home/c.zeng/usr/installs/gpaw/source/gpaw-22.8.0/gpaw
_gpaw:  /home/c.zeng/usr/installs/gpaw/source/gpaw-22.8.0/
        _gpaw.cpython-38-x86_64-linux-gnu.so
ase:    /home/c.zeng/.local/lib/python3.8/site-packages/ase-3.22.1-py3.8.egg/ase (version 3.22.1)
numpy:  /shared/centos7/python/3.8.1/lib/python3.8/site-packages/numpy (version 1.17.4)
scipy:  /shared/centos7/python/3.8.1/lib/python3.8/site-packages/scipy (version 1.4.1)
libxc:  4.2.3
units:  Angstrom and eV
cores: 64
OpenMP: False
OMP_NUM_THREADS: 1

Input parameters:
  convergence: {energy: 0.0001}
  kpts: [2 2 2]
  maxiter: 666
  mode: {ecut: 350.0,
         name: pw}
  occupations: {fixmagmom: False,
                name: fermi-dirac,
                width: 0.1}
  spinpol: True
  xc: PBE

System changes: positions, numbers, cell, pbc, initial_charges, initial_magmoms 

Initialize ...

species:
  Al:
    name: Aluminium
    id: 0292cae29f5d6237e50f6abdd43a7bdd
    Z: 13.0
    valence: 3
    core: 10
    charge: 0.0
    file: /home/c.zeng/usr/data/gpaw-setups-0.9.20000/Al.PBE.gz
    compensation charges: {type: gauss,
                           rc: 0.34,
                           lmax: 2}
    cutoffs: {filter: 1.91,
              core: 2.36}
    valence states:
      #              energy  rcut
      - 3s(2.00)    -7.753   1.085
      - 3p(1.00)    -2.712   1.085
      -  s          19.459   1.085
      -  p          24.499   1.085
      -  d           0.000   1.085
  
    # Using partial waves for Al as LCAO basis

  Fe:
    name: Iron
    id: 37abbd8d6c3c35915a9b583b742da910
    Z: 26.0
    valence: 8
    core: 18
    charge: 0.0
    file: /home/c.zeng/usr/data/gpaw-setups-0.9.20000/Fe.PBE.gz
    compensation charges: {type: gauss,
                           rc: 0.33,
                           lmax: 2}
    cutoffs: {filter: 2.06,
              core: 2.67}
    valence states:
      #              energy  rcut
      - 4s(2.00)    -5.291   1.164
      - 4p(0.00)    -1.326   1.058
      - 3d(6.00)    -7.505   1.058
      -  s          21.920   1.164
      -  p          25.885   1.058
      -  d          19.706   1.058
  
    # Using partial waves for Fe as LCAO basis

  Cr:
    name: Chromium
    id: 33f258bda2ca9f93018e70263a35547b
    Z: 24.0
    valence: 6
    core: 18
    charge: 0.0
    file: /home/c.zeng/usr/data/gpaw-setups-0.9.20000/Cr.PBE.gz
    compensation charges: {type: gauss,
                           rc: 0.35,
                           lmax: 2}
    cutoffs: {filter: 2.14,
              core: 3.04}
    valence states:
      #              energy  rcut
      - 4s(1.00)    -4.007   1.164
      - 4p(0.00)    -0.989   1.217
      - 3d(5.00)    -2.913   1.111
      -  s          23.205   1.164
      -  p          26.223   1.217
      -  d          24.299   1.111
  
    # Using partial waves for Cr as LCAO basis

  Ni:
    name: Nickel
    id: 0d9f38a9d6e76a2886f07bb4381f212b
    Z: 28.0
    valence: 16
    core: 12
    charge: 0.0
    file: /home/c.zeng/usr/data/gpaw-setups-0.9.20000/Ni.PBE.gz
    compensation charges: {type: gauss,
                           rc: 0.36,
                           lmax: 2}
    cutoffs: {filter: 2.14,
              core: 1.98}
    valence states:
      #              energy  rcut
      - 4s(2.00)    -5.642   1.164
      - 3p(6.00)   -71.394   1.207
      - 4p(0.00)    -1.226   1.207
      - 3d(8.00)    -8.875   1.138
      -  s          21.570   1.164
      -  d          18.337   1.138
  
    # Using partial waves for Ni as LCAO basis

  Co:
    name: Cobalt
    id: 339d20d5b0b93d2de9531a1bee871d91
    Z: 27.0
    valence: 9
    core: 18
    charge: 0.0
    file: /home/c.zeng/usr/data/gpaw-setups-0.9.20000/Co.PBE.gz
    compensation charges: {type: gauss,
                           rc: 0.32,
                           lmax: 2}
    cutoffs: {filter: 1.87,
              core: 2.55}
    valence states:
      #              energy  rcut
      - 4s(2.00)    -5.469   1.005
      - 4p(0.00)    -1.277   1.058
      - 3d(7.00)    -8.205   1.005
      -  s          21.742   1.005
      -  p          25.934   1.058
      -  d          19.007   1.005
  
    # Using partial waves for Co as LCAO basis

Reference energy: -3235165.067515  # eV

Spin-polarized calculation.
Magnetic moment: 121.100000

Convergence criteria:
 Maximum [total energy] change in last 3 cyles: 0.0001 eV / electron
 Maximum integral of absolute [dens]ity change: 0.0001 electrons / valence electron
 Maximum integral of absolute [eigenst]ate change: 4e-08 eV^2 / valence electron
 Maximum number of scf [iter]ations: 666
 (Square brackets indicate name in SCF output, whereas a 'c' in
 the SCF output indicates the quantity has converged.)

Symmetries present (total): 1

  ( 1  0  0)
  ( 0  1  0)
  ( 0  0  1)

8 k-points: 2 x 2 x 2 Monkhorst-Pack grid
4 k-points in the irreducible part of the Brillouin zone
       k-points in crystal coordinates                weights
   0:     0.25000000   -0.25000000   -0.25000000          2/8
   1:     0.25000000   -0.25000000    0.25000000          2/8
   2:     0.25000000    0.25000000   -0.25000000          2/8
   3:     0.25000000    0.25000000    0.25000000          2/8

Wave functions: Plane wave expansion
  Cutoff energy: 350.000 eV
  Number of coefficients (min, max): 19084, 19084
  Pulay-stress correction: 0.000000 eV/Ang^3 (de/decut=0.000000)
  Using FFTW library
  ScaLapack parameters: grid=1x1, blocksize=None
  Wavefunction extrapolation:
    Improved wavefunction reuse through dual PAW basis 

Occupation numbers: Fermi-Dirac:
  width: 0.1000  # eV
 

Eigensolver
   Davidson(niter=2) 

Densities:
  Coarse grid: 48*48*48 grid
  Fine grid: 96*96*96 grid
  Total Charge: 0.000000 

Density mixing:
  Method: difference
  Backend: pulay
  Linear mixing parameter: 0.05
  old densities: 5
  Damping of long wavelength oscillations: 50 

Hamiltonian:
  XC and Coulomb potentials evaluated on a 96*96*96 grid
  Using the PBE Exchange-Correlation functional
  External potential:
    NoExternalPotential
 

XC parameters: PBE with 2 nearest neighbor stencil

Memory estimate:
  Process memory now: 176.16 MiB
  Calculator: 619.44 MiB
    Density: 5.13 MiB
      Arrays: 1.85 MiB
      Localized functions: 2.55 MiB
      Mixer: 0.74 MiB
    Hamiltonian: 1.45 MiB
      Arrays: 1.37 MiB
      XC: 0.00 MiB
      Poisson: 0.00 MiB
      vbar: 0.08 MiB
    Wavefunctions: 612.85 MiB
      Arrays psit_nG: 363.42 MiB
      Eigensolver: 242.60 MiB
      Projections: 2.19 MiB
      Projectors: 0.35 MiB
      PW-descriptor: 4.31 MiB

Total number of cores used: 64
Parallelization over k-points: 4
Domain decomposition: 4 x 2 x 2

Number of atoms: 108
Number of atomic orbitals: 933
Number of bands in calculation: 624
Number of valence electrons: 912
Bands to converge: occupied

... initialized

Initializing position-dependent things.

Density initialized from atomic densities
Creating initial wave functions:
  624 bands from LCAO basis set

        .--------Ni----------------.  
       /|           Ni             |  
      / |    CrFe     Co           |  
     / Al       Co       Ni        |  
    /   |Co      CoAl       Al     |  
   /    | FeFe      FCr            |  
  /    Cr  CorAlNi    Co Fe  CrCr  |  
 *      Cr     FeCoFe   CoNi     Al|  
 |      |AlAl   NiNiFe   NiFeAl   Cr  
 |      | FeCr   AlCoCrNi AlFeCr   |  
 |     Co  Fe NiCr  CrCr Fe  CrFe  |  
 |      Al  Cr AlNiNi AlNiNiCo   Co|  
 |      |CoAl   NiCoCo   CrCrCo   Al  
 |      .-NiCo-----NiAl-Cr--FeFe---.  
 |     Ni  Cr AlAl    Co Ni  Ni Co/   
 |    / Cr              Co       Ni   
 |   /           Fee      AlFe  /     
 |  /      Al       Co     FeFe/      
 | /                   Ni     /e      
 |/                          /        
 *--------------------------Al        

Positions:
   0 Al    10.797859    0.093625    0.085785    ( 0.0000,  0.0000,  0.0000)
   1 Fe    10.831846    1.844753    1.870705    ( 0.0000,  0.0000,  2.0000)
   2 Cr     1.786803   10.847372    1.827357    ( 0.0000,  0.0000,  0.0000)
   3 Cr     1.769614    1.870509   -0.031286    ( 0.0000,  0.0000,  0.0000)
   4 Ni     3.620835   10.822072   10.833651    ( 0.0000,  0.0000,  1.5000)
   5 Al     3.571246    1.883198    1.708413    ( 0.0000,  0.0000,  0.0000)
   6 Al     5.521103   10.788063    1.666228    ( 0.0000,  0.0000,  0.0000)
   7 Ni     5.520831    1.813962   10.830922    ( 0.0000,  0.0000,  1.5000)
   8 Fe     7.330846    0.011000   10.815679    ( 0.0000,  0.0000,  2.0000)
   9 Co     7.282040    1.809483    1.793250    ( 0.0000,  0.0000,  2.1000)
  10 Ni     9.030007    0.021994    1.811929    ( 0.0000,  0.0000,  1.5000)
  11 Fe     9.007207    1.868607   10.825725    ( 0.0000,  0.0000,  2.0000)
  12 Fe    10.861321    3.649712    0.014152    ( 0.0000,  0.0000,  2.0000)
  13 Co    10.867442    5.463468    1.819235    ( 0.0000,  0.0000,  2.1000)
  14 Cr     1.756088    3.650278    1.845949    ( 0.0000,  0.0000,  0.0000)
  15 Co     1.790347    5.439092   10.869084    ( 0.0000,  0.0000,  2.1000)
  16 Fe     3.687831    3.622782   -0.049313    ( 0.0000,  0.0000,  2.0000)
  17 Al     3.667347    5.391134    1.745335    ( 0.0000,  0.0000,  0.0000)
  18 Fe     5.497988    3.634415    1.792348    ( 0.0000,  0.0000,  2.0000)
  19 Fe     5.524886    5.448029    0.002545    ( 0.0000,  0.0000,  2.0000)
  20 Cr     7.223351    3.611866   10.834281    ( 0.0000,  0.0000,  0.0000)
  21 Co     7.217773    5.474819    1.807743    ( 0.0000,  0.0000,  2.1000)
  22 Al     9.073464    3.654344    1.775137    ( 0.0000,  0.0000,  0.0000)
  23 Fe     9.008740    5.418608    0.007685    ( 0.0000,  0.0000,  2.0000)
  24 Ni    10.859190    7.178730    0.014480    ( 0.0000,  0.0000,  1.5000)
  25 Al    -0.018112    8.970937    1.875413    ( 0.0000,  0.0000,  0.0000)
  26 Ni     1.817626    7.224025    1.802546    ( 0.0000,  0.0000,  1.5000)
  27 Cr     1.880686    8.993486   10.874031    ( 0.0000,  0.0000,  0.0000)
  28 Fe     3.684374    7.260469   -0.001360    ( 0.0000,  0.0000,  2.0000)
  29 Ni     3.612594    9.025636    1.761807    ( 0.0000,  0.0000,  1.5000)
  30 Ni     5.481429    7.275103    1.811190    ( 0.0000,  0.0000,  1.5000)
  31 Ni     5.461217    9.048163   10.833988    ( 0.0000,  0.0000,  1.5000)
  32 Co     7.245683    7.257881    0.056886    ( 0.0000,  0.0000,  2.1000)
  33 Cr     7.301969    9.004598    1.790315    ( 0.0000,  0.0000,  0.0000)
  34 Fe     9.029343    7.181764    1.815549    ( 0.0000,  0.0000,  2.0000)
  35 Ni     9.030550    9.041988    0.020233    ( 0.0000,  0.0000,  1.5000)
  36 Fe    -0.031033    0.001958    3.645701    ( 0.0000,  0.0000,  2.0000)
  37 Co    10.825888    1.804373    5.434602    ( 0.0000,  0.0000,  2.1000)
  38 Cr     1.743563   10.849318    5.484365    ( 0.0000,  0.0000,  0.0000)
  39 Ni     1.769766    1.791924    3.636068    ( 0.0000,  0.0000,  1.5000)
  40 Al     3.516689   10.719849    3.663238    ( 0.0000,  0.0000,  0.0000)
  41 Al     3.644287    1.785226    5.586750    ( 0.0000,  0.0000,  0.0000)
  42 Cr     5.484800   10.815439    5.503989    ( 0.0000,  0.0000,  0.0000)
  43 Al     5.457956    1.842252    3.658758    ( 0.0000,  0.0000,  0.0000)
  44 Al     7.360615   10.815429    3.672218    ( 0.0000,  0.0000,  0.0000)
  45 Co     7.266895    1.811625    5.485506    ( 0.0000,  0.0000,  2.1000)
  46 Cr     9.077986    0.023593    5.491921    ( 0.0000,  0.0000,  0.0000)
  47 Ni     9.066799    1.824237    3.671153    ( 0.0000,  0.0000,  1.5000)
  48 Fe    -0.047119    3.649625    3.617291    ( 0.0000,  0.0000,  2.0000)
  49 Fe    10.809242    5.435983    5.379816    ( 0.0000,  0.0000,  2.0000)
  50 Al     1.752316    3.624989    5.344687    ( 0.0000,  0.0000,  0.0000)
  51 Co     1.805797    5.472046    3.619389    ( 0.0000,  0.0000,  2.1000)
  52 Co     3.649441    3.633523    3.631262    ( 0.0000,  0.0000,  2.1000)
  53 Ni     3.657638    5.433786    5.434026    ( 0.0000,  0.0000,  1.5000)
  54 Ni     5.413411    3.672675    5.480331    ( 0.0000,  0.0000,  1.5000)
  55 Co     5.413846    5.465599    3.639655    ( 0.0000,  0.0000,  2.1000)
  56 Al     7.223470    3.731756    3.720807    ( 0.0000,  0.0000,  0.0000)
  57 Cr     7.220557    5.483191    5.485582    ( 0.0000,  0.0000,  0.0000)
  58 Ni     9.069039    3.623673    5.469720    ( 0.0000,  0.0000,  1.5000)
  59 Cr     9.064766    5.503848    3.636720    ( 0.0000,  0.0000,  0.0000)
  60 Co    -0.007786    7.208292    3.671512    ( 0.0000,  0.0000,  2.1000)
  61 Cr    -0.032899    9.095361    5.398679    ( 0.0000,  0.0000,  0.0000)
  62 Fe     1.823715    7.248694    5.440766    ( 0.0000,  0.0000,  2.0000)
  63 Fe     1.739878    8.989170    3.676448    ( 0.0000,  0.0000,  2.0000)
  64 Al     3.645364    7.306068    3.692343    ( 0.0000,  0.0000,  0.0000)
  65 Ni     3.652300    9.051545    5.521624    ( 0.0000,  0.0000,  1.5000)
  66 Co     5.474253    7.265351    5.482897    ( 0.0000,  0.0000,  2.1000)
  67 Cr     5.473612    9.034856    3.664390    ( 0.0000,  0.0000,  0.0000)
  68 Ni     7.218447    7.243149    3.634643    ( 0.0000,  0.0000,  1.5000)
  69 Ni     7.240812    9.039161    5.472840    ( 0.0000,  0.0000,  1.5000)
  70 Fe     8.972589    7.234049    5.399147    ( 0.0000,  0.0000,  2.0000)
  71 Cr     9.065505    8.978210    3.651191    ( 0.0000,  0.0000,  0.0000)
  72 Co    10.856744    0.017928    7.210869    ( 0.0000,  0.0000,  2.1000)
  73 Al    10.824659    1.882165    8.982799    ( 0.0000,  0.0000,  0.0000)
  74 Cr     1.860757   10.856646    9.009762    ( 0.0000,  0.0000,  0.0000)
  75 Co     1.767189    1.801926    7.237191    ( 0.0000,  0.0000,  2.1000)
  76 Co     3.637144   10.797761    7.275669    ( 0.0000,  0.0000,  2.1000)
  77 Al     3.668043    1.775811    9.018721    ( 0.0000,  0.0000,  0.0000)
  78 Co     5.482484   10.845154    9.071409    ( 0.0000,  0.0000,  2.1000)
  79 Cr     5.527550    1.773408    7.253489    ( 0.0000,  0.0000,  0.0000)
  80 Ni     7.260502    0.005369    7.255174    ( 0.0000,  0.0000,  1.5000)
  81 Fe     7.265112    1.802350    9.014905    ( 0.0000,  0.0000,  2.0000)
  82 Ni     9.024777    0.026356    9.025244    ( 0.0000,  0.0000,  1.5000)
  83 Fe     9.016275    1.814647    7.226460    ( 0.0000,  0.0000,  2.0000)
  84 Cr    10.804415    3.613877    7.198181    ( 0.0000,  0.0000,  0.0000)
  85 Cr    10.834662    5.395809    9.098938    ( 0.0000,  0.0000,  0.0000)
  86 Cr     1.818735    3.628859    9.065668    ( 0.0000,  0.0000,  0.0000)
  87 Al     1.809776    5.464283    7.231157    ( 0.0000,  0.0000,  0.0000)
  88 Cr     3.671620    3.637111    7.249575    ( 0.0000,  0.0000,  0.0000)
  89 Al     3.679525    5.412085    9.119628    ( 0.0000,  0.0000,  0.0000)
  90 Co     5.499662    3.591078    9.045000    ( 0.0000,  0.0000,  2.1000)
  91 Ni     5.468317    5.448475    7.223079    ( 0.0000,  0.0000,  1.5000)
  92 Cr     7.241899    3.617411    7.225134    ( 0.0000,  0.0000,  0.0000)
  93 Co     7.214631    5.385893    9.048609    ( 0.0000,  0.0000,  2.1000)
  94 Ni     8.994291    3.655964    9.039259    ( 0.0000,  0.0000,  1.5000)
  95 Fe     9.006566    5.423262    7.223318    ( 0.0000,  0.0000,  2.0000)
  96 Al    -0.070630    7.291945    7.110408    ( 0.0000,  0.0000,  0.0000)
  97 Al     0.072989    9.104580    9.068332    ( 0.0000,  0.0000,  0.0000)
  98 Fe     1.863214    7.257392    9.054774    ( 0.0000,  0.0000,  2.0000)
  99 Co     1.858321    9.053719    7.225775    ( 0.0000,  0.0000,  2.1000)
 100 Fe     3.683895    7.292477    7.235550    ( 0.0000,  0.0000,  2.0000)
 101 Co     3.628174    9.069571    9.051262    ( 0.0000,  0.0000,  2.1000)
 102 Al     5.530572    7.331912    9.040140    ( 0.0000,  0.0000,  0.0000)
 103 Fe     5.476232    9.097209    7.250445    ( 0.0000,  0.0000,  2.0000)
 104 Co     7.256816    7.264242    7.208477    ( 0.0000,  0.0000,  2.1000)
 105 Ni     7.272537    9.136437    9.056861    ( 0.0000,  0.0000,  1.5000)
 106 Al     8.936482    7.190875    9.109767    ( 0.0000,  0.0000,  0.0000)
 107 Cr     8.994671    9.112158    7.218469    ( 0.0000,  0.0000,  0.0000)

Unit cell:
           periodic     x           y           z      points  spacing
  1. axis:    yes   10.872400    0.000000    0.000000    48     0.2265
  2. axis:    yes    0.000000   10.872400    0.000000    48     0.2265
  3. axis:    yes    0.000000    0.000000   10.872400    48     0.2265

  Lengths:  10.872400  10.872400  10.872400
  Angles:   90.000000  90.000000  90.000000

Effective grid spacing dv^(1/3) = 0.2265

     iter     time        total  log10-change:  magmom
                         energy  eigst   dens
iter:   1 04:34:47  -974.537738                  +121.3860
iter:   2 04:36:07  -859.631061  -0.18  -1.16    +64.8610
iter:   3 04:37:24  -844.854948  -0.85  -1.20    +55.9875
iter:   4 04:38:46  -831.561513  -1.24  -1.26    +51.9976
iter:   5 04:40:07  -819.838860  -1.54  -1.29    +49.8278
iter:   6 04:41:26  -813.402278  -1.35  -1.35    +50.1046
iter:   7 04:42:48  -816.006721  -1.35  -1.48    +49.5104
iter:   8 04:44:06  -810.726615  -1.66  -1.52    +50.0356
iter:   9 04:45:29  -806.639644  -2.07  -1.64    +51.0665
iter:  10 04:46:46  -806.648688  -2.52  -1.77    +51.9929
iter:  11 04:48:08  -807.110903  -2.50  -1.80    +53.0119
iter:  12 04:49:29  -808.028378  -2.40  -1.85    +54.2341
iter:  13 04:50:47  -807.869389  -2.52  -1.87    +54.6389
iter:  14 04:52:08  -807.631051  -2.68  -1.93    +55.3420
iter:  15 04:53:26  -807.607108  -2.92  -1.99    +55.7684
iter:  16 04:54:48  -807.863182  -2.94  -2.04    +56.0243
iter:  17 04:56:06  -807.833554  -2.87  -2.08    +56.4314
iter:  18 04:57:28  -807.639622  -3.10  -2.14    +56.3517
iter:  19 04:58:51  -807.746195  -3.16  -2.25    +56.3987
iter:  20 05:00:08  -807.730839  -3.30  -2.28    +56.4180
iter:  21 05:01:30  -807.722943c -3.38  -2.33    +56.2465
iter:  22 05:02:48  -807.780666c -3.35  -2.40    +56.0924
iter:  23 05:04:10  -807.782843c -3.64  -2.43    +56.0193
iter:  24 05:05:27  -807.821481c -3.70  -2.48    +55.7081
iter:  25 05:06:47  -807.885728  -3.70  -2.51    +55.4703
iter:  26 05:08:09  -807.912556c -3.88  -2.53    +55.3056
iter:  27 05:09:28  -807.932692c -3.87  -2.56    +54.9762
iter:  28 05:10:50  -807.991039c -3.96  -2.62    +54.7003
iter:  29 05:12:07  -808.017529c -4.00  -2.64    +54.4993
iter:  30 05:13:29  -808.046397c -4.19  -2.67    +54.1543
iter:  31 05:14:46  -808.092172c -4.11  -2.71    +53.8360
iter:  32 05:16:06  -808.134451c -4.21  -2.74    +53.4680
iter:  33 05:17:23  -808.186269  -4.08  -2.77    +52.9928
iter:  34 05:18:45  -808.255885  -3.83  -2.80    +52.3407
iter:  35 05:20:02  -808.290530  -4.00  -2.81    +52.0035
iter:  36 05:21:23  -808.337885c -3.92  -2.81    +51.5603
iter:  37 05:22:21  -808.378026c -3.94  -2.75    +51.1955
iter:  38 05:23:23  -808.364759c -4.12  -2.75    +51.1693
iter:  39 05:24:40  -808.359846c -4.39  -2.87    +51.1611
iter:  40 05:26:01  -808.362769c -4.85  -2.91    +51.1264
iter:  41 05:27:18  -808.371453c -4.54  -2.93    +51.1119
iter:  42 05:28:38  -808.362046c -4.50  -2.92    +51.1235
iter:  43 05:30:00  -808.363709c -5.09  -2.99    +51.1269
iter:  44 05:31:21  -808.364466c -4.86  -3.01    +51.0901
iter:  45 05:32:39  -808.366127c -4.76  -3.06    +51.0983
iter:  46 05:33:59  -808.362185c -4.88  -3.13    +51.1140
iter:  47 05:35:16  -808.363481c -5.07  -3.20    +51.1008
iter:  48 05:36:36  -808.362253c -5.23  -3.26    +51.1125
iter:  49 05:37:56  -808.365966c -5.05  -3.34    +51.1425
iter:  50 05:39:14  -808.363563c -5.28  -3.34    +51.1309
iter:  51 05:40:34  -808.363400c -5.46  -3.44    +51.1286
iter:  52 05:41:52  -808.364061c -5.76  -3.52    +51.1429
iter:  53 05:43:11  -808.364190c -5.80  -3.57    +51.1480
iter:  54 05:44:27  -808.365717c -5.91  -3.58    +51.1471
iter:  55 05:45:47  -808.365482c -5.77  -3.61    +51.1490
iter:  56 05:47:08  -808.365677c -6.06  -3.69    +51.1383
iter:  57 05:48:24  -808.366439c -6.07  -3.76    +51.1405
iter:  58 05:49:44  -808.366814c -6.11  -3.80    +51.1310
iter:  59 05:51:03  -808.367131c -6.31  -3.78    +51.1280
iter:  60 05:52:22  -808.367532c -6.24  -3.87    +51.1223
iter:  61 05:53:42  -808.368355c -6.36  -3.92    +51.1183
iter:  62 05:55:00  -808.368276c -6.46  -3.96    +51.1141
iter:  63 05:56:20  -808.368944c -6.40  -4.00    +51.1106
iter:  64 05:57:41  -808.369604c -6.28  -4.06c   +51.1027
iter:  65 05:58:58  -808.369774c -6.57  -4.05c   +51.1050
iter:  66 06:00:18  -808.370047c -6.65  -4.11c   +51.1003
iter:  67 06:01:34  -808.370523c -6.46  -4.19c   +51.0941
iter:  68 06:02:54  -808.371038c -6.37  -4.19c   +51.0924
iter:  69 06:04:14  -808.371635c -6.39  -4.22c   +51.0912
iter:  70 06:05:32  -808.373477c -5.64  -4.18c   +51.0917
iter:  71 06:06:51  -808.372964c -6.87  -3.98    +51.0970
iter:  72 06:08:09  -808.373934c -6.10  -4.01c   +51.0994
iter:  73 06:09:28  -808.375892c -5.33  -3.95    +51.1118
iter:  74 06:10:43  -808.375964c -6.13  -3.81    +51.1209
iter:  75 06:12:03  -808.376047c -6.71  -3.79    +51.1219
iter:  76 06:13:20  -808.376073c -6.97  -3.79    +51.1301
iter:  77 06:14:41  -808.375982c -6.71  -3.77    +51.1411
iter:  78 06:16:01  -808.375450c -5.39  -3.78    +51.1410
iter:  79 06:17:18  -808.375988c -5.65  -3.59    +51.1413
iter:  80 06:18:38  -808.374920c -6.09  -3.73    +51.1264
iter:  81 06:19:59  -808.374849c -6.07  -3.83    +51.1164
iter:  82 06:21:15  -808.374769c -6.09  -3.89    +51.1109
iter:  83 06:22:35  -808.374437c -6.65  -3.87    +51.1035
iter:  84 06:23:52  -808.374886c -6.23  -4.03c   +51.0961
iter:  85 06:25:11  -808.374038c -6.22  -3.95    +51.0964
iter:  86 06:26:29  -808.374437c -6.26  -3.99    +51.0927
iter:  87 06:27:49  -808.374401c -6.44  -4.01c   +51.0927
iter:  88 06:29:10  -808.374222c -6.41  -4.09c   +51.0902
iter:  89 06:30:27  -808.374021c -6.61  -4.13c   +51.0923
iter:  90 06:31:46  -808.373853c -7.13  -4.26c   +51.0932
iter:  91 06:33:06  -808.373994c -7.19  -4.37c   +51.0899
iter:  92 06:34:23  -808.373765c -7.13  -4.42c   +51.0912
iter:  93 06:35:40  -808.373735c -7.22  -4.41c   +51.0907
iter:  94 06:36:59  -808.373739c -7.46c -4.45c   +51.0919

Converged after 94 iterations.

Dipole moment: (29.757375, 17.240556, 7.638891) |e|*Ang

Total magnetic moment: (0.000000, 0.000000, 51.091882)
Local magnetic moments:
   0 Al ( 0.000000,  0.000000, -0.004720)
   1 Fe ( 0.000000,  0.000000,  2.091419)
   2 Cr ( 0.000000,  0.000000, -2.125348)
   3 Cr ( 0.000000,  0.000000,  1.611455)
   4 Ni ( 0.000000,  0.000000,  0.066349)
   5 Al ( 0.000000,  0.000000, -0.009328)
   6 Al ( 0.000000,  0.000000, -0.014675)
   7 Ni ( 0.000000,  0.000000,  0.302767)
   8 Fe ( 0.000000,  0.000000,  2.328105)
   9 Co ( 0.000000,  0.000000,  0.956969)
  10 Ni ( 0.000000,  0.000000,  0.254035)
  11 Fe ( 0.000000,  0.000000,  2.058726)
  12 Fe ( 0.000000,  0.000000,  2.062554)
  13 Co ( 0.000000,  0.000000,  1.328370)
  14 Cr ( 0.000000,  0.000000, -2.062204)
  15 Co ( 0.000000,  0.000000,  0.943246)
  16 Fe ( 0.000000,  0.000000,  2.063984)
  17 Al ( 0.000000,  0.000000, -0.037850)
  18 Fe ( 0.000000,  0.000000,  2.247490)
  19 Fe ( 0.000000,  0.000000,  2.203600)
  20 Cr ( 0.000000,  0.000000, -1.948699)
  21 Co ( 0.000000,  0.000000,  1.128888)
  22 Al ( 0.000000,  0.000000, -0.035469)
  23 Fe ( 0.000000,  0.000000,  2.193415)
  24 Ni ( 0.000000,  0.000000,  0.082202)
  25 Al ( 0.000000,  0.000000, -0.013681)
  26 Ni ( 0.000000,  0.000000,  0.296748)
  27 Cr ( 0.000000,  0.000000, -1.295196)
  28 Fe ( 0.000000,  0.000000,  2.356999)
  29 Ni ( 0.000000,  0.000000,  0.206209)
  30 Ni ( 0.000000,  0.000000,  0.322381)
  31 Ni ( 0.000000,  0.000000,  0.268332)
  32 Co ( 0.000000,  0.000000,  1.189997)
  33 Cr ( 0.000000,  0.000000, -2.024207)
  34 Fe ( 0.000000,  0.000000,  2.091690)
  35 Ni ( 0.000000,  0.000000,  0.164468)
  36 Fe ( 0.000000,  0.000000,  1.912478)
  37 Co ( 0.000000,  0.000000,  0.841555)
  38 Cr ( 0.000000,  0.000000, -1.715020)
  39 Ni ( 0.000000,  0.000000, -0.006328)
  40 Al ( 0.000000,  0.000000,  0.001893)
  41 Al ( 0.000000,  0.000000, -0.000279)
  42 Cr ( 0.000000,  0.000000, -1.779260)
  43 Al ( 0.000000,  0.000000, -0.005404)
  44 Al ( 0.000000,  0.000000, -0.003470)
  45 Co ( 0.000000,  0.000000,  0.268138)
  46 Cr ( 0.000000,  0.000000, -1.627204)
  47 Ni ( 0.000000,  0.000000,  0.234145)
  48 Fe ( 0.000000,  0.000000,  2.200222)
  49 Fe ( 0.000000,  0.000000,  1.961344)
  50 Al ( 0.000000,  0.000000, -0.029892)
  51 Co ( 0.000000,  0.000000,  1.265626)
  52 Co ( 0.000000,  0.000000,  1.021761)
  53 Ni ( 0.000000,  0.000000,  0.361228)
  54 Ni ( 0.000000,  0.000000,  0.098190)
  55 Co ( 0.000000,  0.000000,  1.143321)
  56 Al ( 0.000000,  0.000000, -0.009642)
  57 Cr ( 0.000000,  0.000000, -1.512369)
  58 Ni ( 0.000000,  0.000000,  0.118847)
  59 Cr ( 0.000000,  0.000000, -1.688103)
  60 Co ( 0.000000,  0.000000,  1.018397)
  61 Cr ( 0.000000,  0.000000, -1.089015)
  62 Fe ( 0.000000,  0.000000,  2.207026)
  63 Fe ( 0.000000,  0.000000,  2.135336)
  64 Al ( 0.000000,  0.000000, -0.028503)
  65 Ni ( 0.000000,  0.000000,  0.329171)
  66 Co ( 0.000000,  0.000000,  1.079586)
  67 Cr ( 0.000000,  0.000000,  2.098134)
  68 Ni ( 0.000000,  0.000000,  0.171481)
  69 Ni ( 0.000000,  0.000000,  0.183798)
  70 Fe ( 0.000000,  0.000000,  1.667550)
  71 Cr ( 0.000000,  0.000000,  1.220719)
  72 Co ( 0.000000,  0.000000,  0.478953)
  73 Al ( 0.000000,  0.000000, -0.014418)
  74 Cr ( 0.000000,  0.000000, -1.877517)
  75 Co ( 0.000000,  0.000000,  0.054440)
  76 Co ( 0.000000,  0.000000,  0.966445)
  77 Al ( 0.000000,  0.000000, -0.021083)
  78 Co ( 0.000000,  0.000000,  1.348675)
  79 Cr ( 0.000000,  0.000000,  0.996892)
  80 Ni ( 0.000000,  0.000000,  0.322554)
  81 Fe ( 0.000000,  0.000000,  2.060756)
  82 Ni ( 0.000000,  0.000000,  0.247036)
  83 Fe ( 0.000000,  0.000000,  2.156386)
  84 Cr ( 0.000000,  0.000000, -1.414366)
  85 Cr ( 0.000000,  0.000000, -1.495783)
  86 Cr ( 0.000000,  0.000000, -1.544753)
  87 Al ( 0.000000,  0.000000, -0.019160)
  88 Cr ( 0.000000,  0.000000,  1.703282)
  89 Al ( 0.000000,  0.000000, -0.045374)
  90 Co ( 0.000000,  0.000000,  1.079854)
  91 Ni ( 0.000000,  0.000000,  0.179651)
  92 Cr ( 0.000000,  0.000000, -1.655634)
  93 Co ( 0.000000,  0.000000,  1.278787)
  94 Ni ( 0.000000,  0.000000,  0.223660)
  95 Fe ( 0.000000,  0.000000,  1.985592)
  96 Al ( 0.000000,  0.000000, -0.033060)
  97 Al ( 0.000000,  0.000000, -0.008832)
  98 Fe ( 0.000000,  0.000000,  2.061152)
  99 Co ( 0.000000,  0.000000,  1.034927)
 100 Fe ( 0.000000,  0.000000,  2.328691)
 101 Co ( 0.000000,  0.000000,  1.220382)
 102 Al ( 0.000000,  0.000000, -0.046164)
 103 Fe ( 0.000000,  0.000000,  2.333242)
 104 Co ( 0.000000,  0.000000,  1.113497)
 105 Ni ( 0.000000,  0.000000,  0.322179)
 106 Al ( 0.000000,  0.000000, -0.029659)
 107 Cr ( 0.000000,  0.000000,  1.515313)

Energy contributions relative to reference atoms: (reference = -3235165.067515)

Kinetic:       +244.900948
Potential:     -238.756199
External:        +0.000000
XC:            -843.863503
Entropy (-ST):   -3.918162
Local:          +31.304095
--------------------------
Free energy:   -810.332820
Extrapolated:  -808.373739

Spin contamination: 32.152385 electrons
Showing only first 2 kpts
                      Up                     Down
 Kpt  Band  Eigenvalues  Occupancy  Eigenvalues  Occupancy
  0   454      9.01916    0.99493      9.88138    0.03414
  0   455      9.03862    0.99385      9.88919    0.03166
  0   456      9.05356    0.99287      9.90376    0.02749
  0   457      9.07676    0.99102      9.91593    0.02441

  1   454      9.02435    0.99466      9.87284    0.03707
  1   455      9.04258    0.99360      9.88174    0.03403
  1   456      9.05781    0.99256      9.89384    0.03027
  1   457      9.07302    0.99135      9.91001    0.02586


Fermi level: 9.54714

No gap

Forces in eV/Ang:
  0 Al   -0.43148   -0.60034   -0.36864
  1 Fe    0.26659    0.01146    0.21833
  2 Cr   -0.09786    0.20469   -0.24548
  3 Cr    0.09730   -0.29598   -0.42129
  4 Ni   -0.22432    0.18320    0.04637
  5 Al    0.49206   -0.11880    0.26825
  6 Al   -0.67359    0.24475   -0.29791
  7 Ni   -0.27768   -0.12810    0.14301
  8 Fe    0.20521   -0.01695   -0.01628
  9 Co   -0.14835    0.12059    0.18748
 10 Ni    0.03233   -0.11350    0.12778
 11 Fe   -0.17321    0.10682    0.40242
 12 Fe   -0.02928    0.32345   -0.16343
 13 Co    0.57343    0.05403    0.00188
 14 Cr   -0.85916   -0.02432   -0.12237
 15 Co   -0.12430   -0.15752   -0.10662
 16 Fe    0.02921    0.31238    0.01672
 17 Al   -0.07018    0.36269    0.35386
 18 Fe    0.09091   -0.08930    0.11190
 19 Fe    0.30497   -0.06035   -0.11527
 20 Cr   -0.40916    0.06891   -0.18544
 21 Co   -0.10976   -0.03915    0.24496
 22 Al   -0.11259   -0.24640    0.36837
 23 Fe   -0.14853   -0.00711   -0.19171
 24 Ni    0.21668    0.33915   -0.29111
 25 Al   -0.25807   -0.34561   -0.57860
 26 Ni    0.00351   -0.22339    0.08293
 27 Cr    0.28931   -0.09742   -0.22308
 28 Fe   -0.42574    0.29871   -0.06226
 29 Ni    0.15277    0.11319    0.45783
 30 Ni   -0.30071   -0.28585   -0.12760
 31 Ni   -0.01939    0.03148    0.09758
 32 Co   -0.02342   -0.14819    0.24679
 33 Cr    0.34295   -0.36797   -0.20216
 34 Fe   -0.24525   -0.34909   -0.15831
 35 Ni    0.56142    0.16453   -0.28342
 36 Fe    0.15923    0.48285    0.18671
 37 Co    0.23447   -0.39185    0.16652
 38 Cr   -0.79751   -0.09435    0.74531
 39 Ni    0.24016   -0.12830   -0.00277
 40 Al    0.50819    0.14132    0.04532
 41 Al   -0.50451   -0.07042   -0.68321
 42 Cr   -0.00354   -0.03684    0.03153
 43 Al    0.19669    0.25704    0.24764
 44 Al   -0.04800    0.79495   -0.20618
 45 Co   -0.29660   -0.22991   -0.12213
 46 Cr    0.29085    0.11669    0.36674
 47 Ni    0.04064    0.04482   -0.40949
 48 Fe   -0.07498    0.07180   -0.06663
 49 Fe    0.03142   -0.12044    0.08507
 50 Al    0.41922   -0.14740   -0.33175
 51 Co   -0.18288   -0.09731    0.12239
 52 Co    0.03851    0.18244   -0.23146
 53 Ni   -0.11516   -0.01868    0.09872
 54 Ni    0.27817   -0.28648   -0.27769
 55 Co    0.03429   -0.13988   -0.07441
 56 Al    0.22022   -0.70412   -0.28651
 57 Cr   -0.29180    0.99715    0.30623
 58 Ni   -0.29132    0.11651   -0.12158
 59 Cr    0.56643    0.66226    0.14190
 60 Co    0.04143   -0.18706   -0.04997
 61 Cr    0.05602    0.04150   -0.27629
 62 Fe   -0.27714    0.09243   -0.04225
 63 Fe   -0.11877    0.08484    0.09091
 64 Al   -0.16457   -0.35756   -0.26505
 65 Ni   -0.42663    0.23330   -0.02400
 66 Co    0.04748   -0.22343    0.22005
 67 Cr    0.81036    0.15786    0.14475
 68 Ni   -0.01492   -0.14754    0.14333
 69 Ni    0.24777    0.07391   -0.15910
 70 Fe    0.08483   -0.31248   -0.26776
 71 Cr   -0.16664   -0.19110    0.81846
 72 Co    0.37568   -0.20376   -0.30205
 73 Al   -0.42779   -0.57386    0.04083
 74 Cr    0.09040    0.17626    0.11057
 75 Co    0.04898    0.34913   -0.08347
 76 Co   -0.05572   -0.25565    0.07307
 77 Al    0.44081   -0.20252    0.44041
 78 Co   -0.04112   -0.23008   -0.02107
 79 Cr    0.49436    0.09181    0.01579
 80 Ni   -0.21260   -0.05024   -0.29670
 81 Fe   -0.14359    0.15055    0.23507
 82 Ni    0.44464   -0.04906    0.29368
 83 Fe    0.15742    0.14728   -0.33958
 84 Cr   -0.33090    0.36797   -0.41291
 85 Cr    0.30364   -0.10462    0.48340
 86 Cr    0.01403   -0.05398    0.24516
 87 Al    0.16672    0.24363   -0.21346
 88 Cr    0.01616    0.38530    0.38622
 89 Al    0.21848    0.26116   -0.01447
 90 Co    0.14250    0.21092    0.01113
 91 Ni   -0.27939   -0.01382    0.33706
 92 Cr    0.05885   -0.30017    0.13883
 93 Co    0.02575   -0.20503   -0.10937
 94 Ni    0.25382    0.12394   -0.12010
 95 Fe    0.05129   -0.31968    0.05541
 96 Al    0.29345   -0.54667    0.54392
 97 Al   -0.83193   -0.17232   -0.16145
 98 Fe   -0.24291   -0.02902    0.28219
 99 Co   -0.13915   -0.01739   -0.09071
100 Fe   -0.25954   -0.13219   -0.09598
101 Co   -0.26566    0.35380   -0.13148
102 Al    0.51455   -0.12215    0.14197
103 Fe    0.06962    0.35973   -0.30748
104 Co   -0.02812   -0.04090   -0.29880
105 Ni   -0.07223   -0.28758    0.04772
106 Al   -0.29521    0.58958    0.17637
107 Cr    0.18064    0.20635   -0.33126

Timing:                              incl.     excl.
-----------------------------------------------------------
Forces:                             22.423    22.423   0.3% |
Hamiltonian:                         1.431     0.007   0.0% |
 Atomic:                             0.327     0.258   0.0% |
  XC Correction:                     0.068     0.068   0.0% |
 Calculate atomic Hamiltonians:      0.898     0.898   0.0% |
 Communicate:                        0.082     0.082   0.0% |
 Initialize Hamiltonian:             0.001     0.001   0.0% |
 Poisson:                            0.001     0.001   0.0% |
 XC 3D grid:                         0.114     0.114   0.0% |
LCAO initialization:                70.475     1.157   0.0% |
 LCAO eigensolver:                   9.168     0.048   0.0% |
  Calculate projections:             0.394     0.394   0.0% |
  DenseAtomicCorrection:             0.140     0.140   0.0% |
  Distribute overlap matrix:         1.250     1.250   0.0% |
  Orbital Layouts:                   3.422     3.422   0.0% |
  Potential matrix:                  1.532     1.532   0.0% |
  Sum over cells:                    2.381     2.381   0.0% |
 LCAO to grid:                      57.972    57.972   0.8% |
 Set positions (LCAO WFS):           2.179     1.364   0.0% |
  Basic WFS set positions:           0.004     0.004   0.0% |
  Basis functions set positions:     0.001     0.001   0.0% |
  P tci:                             0.199     0.199   0.0% |
  ST tci:                            0.244     0.244   0.0% |
  mktci:                             0.367     0.367   0.0% |
PWDescriptor:                        0.119     0.119   0.0% |
SCF-cycle:                        7417.508    66.671   0.9% |
 Davidson:                        7066.746  1744.075  23.2% |--------|
  Apply H:                          73.576    64.797   0.9% |
   HMM T:                            8.779     8.779   0.1% |
  Subspace diag:                   568.226     0.114   0.0% |
   calc_h_matrix:                  252.940   176.473   2.3% ||
    Apply H:                        76.468    71.347   0.9% |
     HMM T:                          5.121     5.121   0.1% |
   diagonalize:                     77.375    77.375   1.0% |
   rotate_psi:                     237.797   237.797   3.2% ||
  calc. matrices:                 1286.944  1140.532  15.2% |-----|
   Apply H:                        146.412   127.053   1.7% ||
    HMM T:                          19.358    19.358   0.3% |
  diagonalize:                    2914.262  2914.262  38.8% |---------------|
  rotate_psi:                      479.664   479.664   6.4% |--|
 Density:                          137.815     0.005   0.0% |
  Atomic density matrices:           1.899     1.899   0.0% |
  Mix:                             112.461   112.461   1.5% ||
  Multipole moments:                 0.081     0.081   0.0% |
  Pseudo density:                   23.369    23.359   0.3% |
   Symmetrize density:               0.009     0.009   0.0% |
 Hamiltonian:                      139.423     1.376   0.0% |
  Atomic:                           18.400    11.651   0.2% |
   XC Correction:                    6.749     6.749   0.1% |
  Calculate atomic Hamiltonians:   100.113   100.113   1.3% ||
  Communicate:                       2.976     2.976   0.0% |
  Poisson:                           0.101     0.101   0.0% |
  XC 3D grid:                       16.457    16.457   0.2% |
 Orthonormalize:                     6.853     0.002   0.0% |
  calc_s_matrix:                     1.008     1.008   0.0% |
  inverse-cholesky:                  0.435     0.435   0.0% |
  projections:                       4.217     4.217   0.1% |
  rotate_psi_s:                      1.190     1.190   0.0% |
Set symmetry:                        0.001     0.001   0.0% |
Other:                               5.227     5.227   0.1% |
-----------------------------------------------------------
Total:                                      7517.185 100.0%

Date: Sat Apr  8 06:37:23 2023
