
  ___ ___ ___ _ _ _  
 |   |   |_  | | | | 
 | | | | | . | | | | 
 |__ |  _|___|_____|  22.8.0
 |___|_|             

User:   c.zeng@d0093
Date:   Wed Apr 19 17:16:49 2023
Arch:   x86_64
Pid:    179327
CWD:    /home/c.zeng/projects/hea-corrosion/hea-mlp/data-curation/surface-mcmc/dft-jobs/217
Python: 3.8.1
gpaw:   /home/c.zeng/usr/installs/gpaw/source/gpaw-22.8.0/gpaw
_gpaw:  /home/c.zeng/usr/installs/gpaw/source/gpaw-22.8.0/
        _gpaw.cpython-38-x86_64-linux-gnu.so
ase:    /home/c.zeng/.local/lib/python3.8/site-packages/ase-3.22.1-py3.8.egg/ase (version 3.22.1)
numpy:  /home/c.zeng/.local/lib/python3.8/site-packages/numpy (version 1.24.2)
scipy:  /home/c.zeng/.local/lib/python3.8/site-packages/scipy (version 1.10.1)
libxc:  4.2.3
units:  Angstrom and eV
cores: 30
OpenMP: False
OMP_NUM_THREADS: 1

Input parameters:
  convergence: {energy: 0.0001}
  kpts: [2 2 1]
  maxiter: 666
  mode: {ecut: 350.0,
         name: pw}
  occupations: {fixmagmom: False,
                name: fermi-dirac,
                width: 0.1}
  poissonsolver: {dipolelayer: xy}
  spinpol: True
  symmetry: {point_group: False}
  xc: PBE

System changes: positions, numbers, cell, pbc, initial_charges, initial_magmoms 

Initialize ...

species:
  Co:
    name: Cobalt
    id: 339d20d5b0b93d2de9531a1bee871d91
    Z: 27.0
    valence: 9
    core: 18
    charge: 0.0
    file: /home/c.zeng/usr/data/gpaw-setups-0.9.20000/Co.PBE.gz
    compensation charges: {type: gauss,
                           rc: 0.32,
                           lmax: 2}
    cutoffs: {filter: 1.87,
              core: 2.55}
    valence states:
      #              energy  rcut
      - 4s(2.00)    -5.469   1.005
      - 4p(0.00)    -1.277   1.058
      - 3d(7.00)    -8.205   1.005
      -  s          21.742   1.005
      -  p          25.934   1.058
      -  d          19.007   1.005
  
    # Using partial waves for Co as LCAO basis

  Al:
    name: Aluminium
    id: 0292cae29f5d6237e50f6abdd43a7bdd
    Z: 13.0
    valence: 3
    core: 10
    charge: 0.0
    file: /home/c.zeng/usr/data/gpaw-setups-0.9.20000/Al.PBE.gz
    compensation charges: {type: gauss,
                           rc: 0.34,
                           lmax: 2}
    cutoffs: {filter: 1.91,
              core: 2.36}
    valence states:
      #              energy  rcut
      - 3s(2.00)    -7.753   1.085
      - 3p(1.00)    -2.712   1.085
      -  s          19.459   1.085
      -  p          24.499   1.085
      -  d           0.000   1.085
  
    # Using partial waves for Al as LCAO basis

  Cr:
    name: Chromium
    id: 33f258bda2ca9f93018e70263a35547b
    Z: 24.0
    valence: 6
    core: 18
    charge: 0.0
    file: /home/c.zeng/usr/data/gpaw-setups-0.9.20000/Cr.PBE.gz
    compensation charges: {type: gauss,
                           rc: 0.35,
                           lmax: 2}
    cutoffs: {filter: 2.14,
              core: 3.04}
    valence states:
      #              energy  rcut
      - 4s(1.00)    -4.007   1.164
      - 4p(0.00)    -0.989   1.217
      - 3d(5.00)    -2.913   1.111
      -  s          23.205   1.164
      -  p          26.223   1.217
      -  d          24.299   1.111
  
    # Using partial waves for Cr as LCAO basis

  Ni:
    name: Nickel
    id: 0d9f38a9d6e76a2886f07bb4381f212b
    Z: 28.0
    valence: 16
    core: 12
    charge: 0.0
    file: /home/c.zeng/usr/data/gpaw-setups-0.9.20000/Ni.PBE.gz
    compensation charges: {type: gauss,
                           rc: 0.36,
                           lmax: 2}
    cutoffs: {filter: 2.14,
              core: 1.98}
    valence states:
      #              energy  rcut
      - 4s(2.00)    -5.642   1.164
      - 3p(6.00)   -71.394   1.207
      - 4p(0.00)    -1.226   1.207
      - 3d(8.00)    -8.875   1.138
      -  s          21.570   1.164
      -  d          18.337   1.138
  
    # Using partial waves for Ni as LCAO basis

  Fe:
    name: Iron
    id: 37abbd8d6c3c35915a9b583b742da910
    Z: 26.0
    valence: 8
    core: 18
    charge: 0.0
    file: /home/c.zeng/usr/data/gpaw-setups-0.9.20000/Fe.PBE.gz
    compensation charges: {type: gauss,
                           rc: 0.33,
                           lmax: 2}
    cutoffs: {filter: 2.06,
              core: 2.67}
    valence states:
      #              energy  rcut
      - 4s(2.00)    -5.291   1.164
      - 4p(0.00)    -1.326   1.058
      - 3d(6.00)    -7.505   1.058
      -  s          21.920   1.164
      -  p          25.885   1.058
      -  d          19.706   1.058
  
    # Using partial waves for Fe as LCAO basis

Reference energy: -3726899.091688  # eV

Spin-polarized calculation.
Magnetic moment: 140.000000

Convergence criteria:
 Maximum [total energy] change in last 3 cyles: 0.0001 eV / electron
 Maximum integral of absolute [dens]ity change: 0.0001 electrons / valence electron
 Maximum integral of absolute [eigenst]ate change: 4e-08 eV^2 / valence electron
 Maximum number of scf [iter]ations: 666
 (Square brackets indicate name in SCF output, whereas a 'c' in
 the SCF output indicates the quantity has converged.)

Symmetries present (total): 1

  ( 1  0  0)
  ( 0  1  0)
  ( 0  0  1)

4 k-points: 2 x 2 x 1 Monkhorst-Pack grid
2 k-points in the irreducible part of the Brillouin zone
       k-points in crystal coordinates                weights
   0:     0.25000000   -0.25000000    0.00000000          2/4
   1:     0.25000000    0.25000000    0.00000000          2/4

Wave functions: Plane wave expansion
  Cutoff energy: 350.000 eV
  Number of coefficients (min, max): 60935, 60955
  Pulay-stress correction: 0.000000 eV/Ang^3 (de/decut=0.000000)
  Using FFTW library
  ScaLapack parameters: grid=1x1, blocksize=None
  Wavefunction extrapolation:
    Improved wavefunction reuse through dual PAW basis 

Occupation numbers: Fermi-Dirac:
  width: 0.1000  # eV
 

Eigensolver
   Davidson(niter=2) 

Densities:
  Coarse grid: 56*56*128 grid
  Fine grid: 112*112*256 grid
  Total Charge: 0.000000 

Density mixing:
  Method: difference
  Backend: pulay
  Linear mixing parameter: 0.05
  old densities: 5
  Damping of long wavelength oscillations: 50 

Hamiltonian:
  XC and Coulomb potentials evaluated on a 112*112*256 grid
  Using the PBE Exchange-Correlation functional
  External potential:
    NoExternalPotential
 

XC parameters: PBE with 2 nearest neighbor stencil

Memory estimate:
  Process memory now: 380.41 MiB
  Calculator: 2131.41 MiB
    Density: 19.02 MiB
      Arrays: 7.39 MiB
      Localized functions: 8.68 MiB
      Mixer: 2.95 MiB
    Hamiltonian: 5.75 MiB
      Arrays: 5.49 MiB
      XC: 0.00 MiB
      Poisson: 0.00 MiB
      vbar: 0.26 MiB
    Wavefunctions: 2106.64 MiB
      Arrays psit_nG: 1335.62 MiB
      Eigensolver: 751.15 MiB
      Projections: 3.10 MiB
      Projectors: 1.18 MiB
      PW-descriptor: 15.59 MiB

Total number of cores used: 30
Parallelization over k-points: 2
Domain decomposition: 1 x 3 x 5

Number of atoms: 125
Number of atomic orbitals: 1075
Number of bands in calculation: 718
Number of valence electrons: 1050
Bands to converge: occupied

... initialized

Initializing position-dependent things.

Density initialized from atomic densities
Creating initial wave functions:
  718 bands from LCAO basis set

                                                                  
                                                                  
                                                                  
                                                                  
                          Fe    Ni           Cr    Fe             
                                  Cr                              
                      Cr    Ni          Cr    Cr                  
                       Al    AAl   CFe   AAl    Fe    Al          
                   Al   NCr   CrAl   CNi   NFe   Ni               
        Al                 Fe    Co                               
               Ni   CCo  NNi   CCr    NCr   FAl   Cr              
                Fe   AAl   CCr   CFe     Cr   Ni                  
           Ni    Co     Al    AlCo  Ni  Cr               Co       
                 Ni   CFe   FAl   NCo   CFe    Co                 
            Co   CFe    Fe    CCo   NAl                           
        Ni    Al    Ni    Cr Fe Co Al    CCr    Co    Al          
             Al    Ni   FNi    Cr    FFe   Fe    Fe               
               Fe   AAl   CNi   FFe    Ni    Co                   
                 Fe          Ni        Cr                         
                Cr    CAl   Co    Al    Co                        
           Al    Cr     Cr    Ni    Co                            
                                                                  
                                                                  
                                                                  
                                                                  
                                                                  

Positions:
   0 Co    12.697578    1.490688   10.582791    ( 0.0000,  0.0000,  2.1000)
   1 Al     2.542164    1.500437   10.627261    ( 0.0000,  0.0000,  2.0000)
   2 Cr     5.051596    1.499469   10.598054    ( 0.0000,  0.0000,  2.1000)
   3 Cr     7.634905    1.492702   10.546246    ( 0.0000,  0.0000,  2.0000)
   4 Ni    10.187798    1.493538   10.639090    ( 0.0000,  0.0000,  2.1000)
   5 Co    13.968644    3.696637   10.562654    ( 0.0000,  0.0000,  2.0000)
   6 Cr     3.815030    3.662669   10.568965    ( 0.0000,  0.0000,  2.1000)
   7 Cr     6.371550    3.676864   10.379256    ( 0.0000,  0.0000,  0.0000)
   8 Co     8.929883    3.680660   10.627114    ( 0.0000,  0.0000,  2.1000)
   9 Al    11.419281    3.649344   10.658345    ( 0.0000,  0.0000,  2.1000)
  10 Co    15.274513    5.897370   10.548477    ( 0.0000,  0.0000,  2.0000)
  11 Al     5.059810    5.865944   10.632192    ( 0.0000,  0.0000,  2.0000)
  12 Co     7.645770    5.857944   10.631253    ( 0.0000,  0.0000,  2.1000)
  13 Fe    10.112359    5.849582   10.633748    ( 0.0000,  0.0000,  2.1000)
  14 Cr    12.664006    5.872612   10.350226    ( 0.0000,  0.0000,  0.0000)
  15 Fe    16.518089    8.029617   10.573985    ( 0.0000,  0.0000,  2.0000)
  16 Fe     6.372474    8.042931   10.433618    ( 0.0000,  0.0000,  0.0000)
  17 Co     8.899359    8.058149   10.655528    ( 0.0000,  0.0000,  2.1000)
  18 Fe    11.347730    8.053396   10.581235    ( 0.0000,  0.0000,  0.0000)
  19 Fe    13.974474    8.072476   10.508234    ( 0.0000,  0.0000,  1.5000)
  20 Al    17.786763   10.267487   10.540522    ( 0.0000,  0.0000,  1.5000)
  21 Fe     7.620185   10.288537   10.551618    ( 0.0000,  0.0000,  1.5000)
  22 Al    10.097013   10.262150   10.527196    ( 0.0000,  0.0000,  0.0000)
  23 Co    12.628341   10.288140   10.200907    ( 0.0000,  0.0000,  0.0000)
  24 Co    15.305799   10.302687   10.215701    ( 0.0000,  0.0000,  0.0000)
  25 Co    18.929799   10.964438   12.614348    ( 0.0000,  0.0000,  0.0000)
  26 Co     8.907314   10.932825   12.633339    ( 0.0000,  0.0000,  0.0000)
  27 Fe     5.161938    0.027744   12.591364    ( 0.0000,  0.0000,  0.0000)
  28 Al     7.639849   -0.017272   12.455019    ( 0.0000,  0.0000,  2.0000)
  29 Ni    10.112151   -0.034156   12.574340    ( 0.0000,  0.0000,  0.0000)
  30 Ni    13.898459    2.274577   12.629494    ( 0.0000,  0.0000,  0.0000)
  31 Fe     3.834283    2.207500   12.641705    ( 0.0000,  0.0000,  1.5000)
  32 Al     6.373751    2.258204   12.578625    ( 0.0000,  0.0000,  1.5000)
  33 Ni     8.903971    2.228935   12.670354    ( 0.0000,  0.0000,  0.0000)
  34 Fe    11.398903    2.240324   12.667418    ( 0.0000,  0.0000,  2.1000)
  35 Al     2.693918    4.433332   12.569320    ( 0.0000,  0.0000,  0.0000)
  36 Ni     5.180997    4.392564   12.579271    ( 0.0000,  0.0000,  2.0000)
  37 Ni     7.640404    4.433761   12.623682    ( 0.0000,  0.0000,  1.5000)
  38 Cr    10.149737    4.418753   12.659728    ( 0.0000,  0.0000,  2.1000)
  39 Fe    12.642941    4.469149   12.588547    ( 0.0000,  0.0000,  0.0000)
  40 Co     3.879740    6.581821   12.636392    ( 0.0000,  0.0000,  2.0000)
  41 Ni     6.395207    6.593022   12.619455    ( 0.0000,  0.0000,  0.0000)
  42 Cr     8.882544    6.578464   12.632987    ( 0.0000,  0.0000,  2.0000)
  43 Ni    11.378039    6.588192   12.568968    ( 0.0000,  0.0000,  1.5000)
  44 Cr    13.955999    6.597324   12.503922    ( 0.0000,  0.0000,  0.0000)
  45 Co     5.115939    8.711196   12.577128    ( 0.0000,  0.0000,  2.0000)
  46 Fe     7.617963    8.744371   12.628555    ( 0.0000,  0.0000,  1.5000)
  47 Ni    10.162962    8.726392   12.644406    ( 0.0000,  0.0000,  1.5000)
  48 Cr    12.676321    8.832597   12.504509    ( 0.0000,  0.0000,  1.5000)
  49 Co    15.240247    8.741951   12.606188    ( 0.0000,  0.0000,  0.0000)
  50 Ni     1.269616    0.713733   14.695512    ( 0.0000,  0.0000,  2.1000)
  51 Al     3.799097    0.728240   14.717292    ( 0.0000,  0.0000,  0.0000)
  52 Ni     6.399959    0.810401   14.610329    ( 0.0000,  0.0000,  2.1000)
  53 Cr     8.880072    0.764388   14.691902    ( 0.0000,  0.0000,  1.5000)
  54 Co    11.370392    0.737436   14.704406    ( 0.0000,  0.0000,  1.5000)
  55 Co     2.596190    2.870472   14.732086    ( 0.0000,  0.0000,  0.0000)
  56 Fe     5.091424    2.954792   14.649428    ( 0.0000,  0.0000,  0.0000)
  57 Fe     7.608212    2.991224   14.707811    ( 0.0000,  0.0000,  2.1000)
  58 Co    10.154418    2.949686   14.778640    ( 0.0000,  0.0000,  2.1000)
  59 Al    12.643335    2.944834   14.730413    ( 0.0000,  0.0000,  0.0000)
  60 Ni     3.883223    5.134376   14.743182    ( 0.0000,  0.0000,  0.0000)
  61 Fe     6.365651    5.154303   14.674026    ( 0.0000,  0.0000,  2.1000)
  62 Al     8.874207    5.127400   14.687176    ( 0.0000,  0.0000,  2.1000)
  63 Co    11.381160    5.128401   14.701764    ( 0.0000,  0.0000,  1.5000)
  64 Fe    13.994437    5.150045   14.709073    ( 0.0000,  0.0000,  0.0000)
  65 Al     5.105303    7.314819   14.691491    ( 0.0000,  0.0000,  0.0000)
  66 Co     7.621049    7.313641   14.679104    ( 0.0000,  0.0000,  2.0000)
  67 Co    10.101824    7.296971   14.657206    ( 0.0000,  0.0000,  0.0000)
  68 Cr    12.701036    7.418890   14.544344    ( 0.0000,  0.0000,  0.0000)
  69 Ni    15.272539    7.347367   14.706285    ( 0.0000,  0.0000,  2.0000)
  70 Ni     6.372338    9.509071   14.708838    ( 0.0000,  0.0000,  0.0000)
  71 Co     8.874214    9.489484   14.713828    ( 0.0000,  0.0000,  1.5000)
  72 Ni    11.385336    9.581859   14.631493    ( 0.0000,  0.0000,  2.1000)
  73 Fe    13.954574    9.609885   14.606455    ( 0.0000,  0.0000,  2.1000)
  74 Cr    16.558825    9.502579   14.642677    ( 0.0000,  0.0000,  0.0000)
  75 Ni    12.678535    1.403816   16.741746    ( 0.0000,  0.0000,  0.0000)
  76 Ni     2.534863    1.419242   16.733997    ( 0.0000,  0.0000,  2.1000)
  77 Co     5.032024    1.508844   16.664371    ( 0.0000,  0.0000,  1.5000)
  78 Al     7.624501    1.526769   16.714506    ( 0.0000,  0.0000,  2.0000)
  79 Al    10.140089    1.502748   16.858366    ( 0.0000,  0.0000,  2.0000)
  80 Cr    14.024748    3.670735   16.858777    ( 0.0000,  0.0000,  0.0000)
  81 Cr     3.842392    3.667775   16.756276    ( 0.0000,  0.0000,  0.0000)
  82 Al     6.334927    3.681056   16.705378    ( 0.0000,  0.0000,  0.0000)
  83 Cr     8.882482    3.670933   16.761471    ( 0.0000,  0.0000,  2.1000)
  84 Fe    11.419526    3.695856   16.803945    ( 0.0000,  0.0000,  2.0000)
  85 Al    15.257368    5.911564   16.801303    ( 0.0000,  0.0000,  1.5000)
  86 Cr     5.087177    5.870422   16.771246    ( 0.0000,  0.0000,  0.0000)
  87 Ni     7.609371    5.857537   16.712716    ( 0.0000,  0.0000,  2.0000)
  88 Cr    10.109019    5.830149   16.764730    ( 0.0000,  0.0000,  1.5000)
  89 Cr    12.675452    5.872392   16.756129    ( 0.0000,  0.0000,  2.1000)
  90 Ni    16.524277    8.015940   16.738312    ( 0.0000,  0.0000,  2.1000)
  91 Ni     6.365933    8.035031   16.712716    ( 0.0000,  0.0000,  2.1000)
  92 Cr     8.835843    8.056003   16.741658    ( 0.0000,  0.0000,  2.0000)
  93 Co    11.351160    8.059051   16.752372    ( 0.0000,  0.0000,  0.0000)
  94 Ni    13.956058    8.042161   16.704057    ( 0.0000,  0.0000,  1.5000)
  95 Al    17.805404   10.218279   16.745210    ( 0.0000,  0.0000,  0.0000)
  96 Al     7.627525   10.221888   16.720318    ( 0.0000,  0.0000,  2.1000)
  97 Co    10.100033   10.295513   16.718880    ( 0.0000,  0.0000,  1.5000)
  98 Al    12.667792   10.363481   16.695163    ( 0.0000,  0.0000,  0.0000)
  99 Fe    15.313358   10.247516   16.718322    ( 0.0000,  0.0000,  0.0000)
 100 Fe     6.385878   10.951211   18.797109    ( 0.0000,  0.0000,  0.0000)
 101 Ni     8.871549   10.998570   18.734029    ( 0.0000,  0.0000,  0.0000)
 102 Fe     5.012222    0.026603   18.714245    ( 0.0000,  0.0000,  2.0000)
 103 Cr    13.906085   10.955272   18.815278    ( 0.0000,  0.0000,  0.0000)
 104 Fe    16.555065   10.890208   19.190793    ( 0.0000,  0.0000,  0.0000)
 105 Al     1.301962    2.175788   18.880296    ( 0.0000,  0.0000,  0.0000)
 106 Ni     3.763381    2.154408   18.701741    ( 0.0000,  0.0000,  2.0000)
 107 Co     6.282513    2.143955   18.673151    ( 0.0000,  0.0000,  1.5000)
 108 Fe     8.786510    2.178935   18.943933    ( 0.0000,  0.0000,  0.0000)
 109 Co    11.486117    2.202240   18.868055    ( 0.0000,  0.0000,  0.0000)
 110 Fe    15.251278    4.387183   18.855257    ( 0.0000,  0.0000,  1.5000)
 111 Al     5.107352    4.303073   18.990839    ( 0.0000,  0.0000,  0.0000)
 112 Cr     7.597350    4.408838   18.714597    ( 0.0000,  0.0000,  2.0000)
 113 Al    10.211555    4.416706   18.931135    ( 0.0000,  0.0000,  0.0000)
 114 Ni    12.733768    4.452313   18.836295    ( 0.0000,  0.0000,  1.5000)
 115 Fe    16.467351    6.659351   18.958316    ( 0.0000,  0.0000,  0.0000)
 116 Al     6.329237    6.609791   18.727483    ( 0.0000,  0.0000,  1.5000)
 117 Al     8.815790    6.680885   18.889219    ( 0.0000,  0.0000,  0.0000)
 118 Fe    11.427553    6.639820   18.779556    ( 0.0000,  0.0000,  2.0000)
 119 Al    13.906938    6.631006   18.740193    ( 0.0000,  0.0000,  0.0000)
 120 Cr     5.095653    8.774950   18.707200    ( 0.0000,  0.0000,  2.0000)
 121 Ni     7.571098    8.829550   18.729127    ( 0.0000,  0.0000,  1.5000)
 122 Cr    10.146396    8.866884   18.778117    ( 0.0000,  0.0000,  1.5000)
 123 Cr    12.685104    8.811284   18.742072    ( 0.0000,  0.0000,  2.0000)
 124 Cr    15.188299    8.776017   18.730565    ( 0.0000,  0.0000,  2.0000)

Unit cell:
           periodic     x           y           z      points  spacing
  1. axis:    yes   12.688900    0.000000    0.000000    56     0.1962
  2. axis:    yes    6.352870   11.003500    0.000000    56     0.1965
  3. axis:    no     0.000000    0.000000   29.353100   128     0.2293

  Lengths:  12.688900  12.705746  29.353100
  Angles:   90.000000  90.000000  60.000014

Effective grid spacing dv^(1/3) = 0.2169

     iter     time        total  log10-change:  magmom
                         energy  eigst   dens
iter:   1 17:22:31 -1034.492079                  +139.2354
iter:   2 17:24:24 -2806.856744  +1.02  -1.12    +98.2734
iter:   3 17:26:17 -1116.248768  +0.76  -0.61    +67.9983
iter:   4 17:28:10  -956.408042  +0.06  -1.03    +50.1521
iter:   5 17:30:03  -949.612028  -0.49  -1.22    +44.4945
iter:   6 17:31:56  -920.709305  -1.17  -1.21    +41.9272
iter:   7 17:33:49  -918.071943  -1.45  -1.29    +41.1914
iter:   8 17:35:42 -1095.216828  -0.94  -1.29    +42.1554
iter:   9 17:37:36  -921.149809  -1.11  -1.03    +39.6523
iter:  10 17:39:29  -903.799282  -1.68  -1.30    +39.7245
iter:  11 17:41:22  -897.755047  -1.43  -1.40    +41.7682
iter:  12 17:43:15  -986.727651  -1.51  -1.48    +42.8220
iter:  13 17:45:08  -901.783100  -1.44  -1.15    +44.6449
iter:  14 17:47:01  -944.161624  -1.36  -1.48    +43.2953
iter:  15 17:48:55  -900.826526  -1.53  -1.29    +40.9875
iter:  16 17:50:48  -894.895236  -2.35  -1.52    +41.3853
iter:  17 17:52:41  -893.349218  -2.36  -1.61    +44.2080
iter:  18 17:54:34  -896.852137  -1.96  -1.65    +44.9390
iter:  19 17:56:27  -891.553267  -2.11  -1.66    +45.8865
iter:  20 17:58:20  -896.339800  -2.23  -1.75    +47.3023
iter:  21 18:00:13  -890.853201  -2.51  -1.69    +46.4314
iter:  22 18:02:06  -892.597838  -2.37  -1.86    +46.9126
iter:  23 18:04:00  -891.581520  -2.42  -1.87    +48.0296
iter:  24 18:05:53  -891.098292  -2.69  -1.91    +48.9842
iter:  25 18:07:46  -893.934947  -2.52  -2.06    +50.1559
iter:  26 18:09:39  -894.871188  -2.60  -1.91    +50.2467
iter:  27 18:11:32  -893.184543  -2.64  -1.86    +51.1871
iter:  28 18:13:25  -892.294150  -3.18  -1.99    +51.7224
iter:  29 18:15:18  -893.120799  -2.87  -2.17    +52.7215
iter:  30 18:17:12  -893.240248  -3.13  -2.18    +52.5881
iter:  31 18:19:05  -893.626152  -2.94  -2.20    +53.0778
iter:  32 18:20:58  -893.708177  -3.19  -2.22    +54.2117
iter:  33 18:22:51  -894.533661  -2.87  -2.26    +54.4620
iter:  34 18:24:44  -894.742552  -2.99  -2.18    +55.1628
iter:  35 18:26:37  -893.918744  -3.15  -2.12    +55.2409
iter:  36 18:28:30  -894.057006  -3.17  -2.42    +55.6188
iter:  37 18:30:23  -894.149654  -3.42  -2.46    +55.8880
iter:  38 18:32:17  -894.197874  -3.39  -2.45    +55.8260
iter:  39 18:34:10  -894.188190c -3.44  -2.51    +56.4674
iter:  40 18:36:03  -894.285619c -3.84  -2.62    +56.8931
iter:  41 18:37:56  -894.289176c -3.93  -2.55    +56.9723
iter:  42 18:39:50  -894.545674  -3.50  -2.67    +57.4708
iter:  43 18:41:43  -894.410760  -4.23  -2.52    +57.1629
iter:  44 18:43:36  -894.455644  -3.67  -2.66    +57.1142
iter:  45 18:45:29  -894.544111  -3.90  -2.70    +57.5196
iter:  46 18:47:22  -894.598978  -3.74  -2.61    +57.5260
iter:  47 18:49:15  -894.527475c -4.01  -2.58    +57.6398
iter:  48 18:51:08  -894.568523c -3.92  -2.76    +57.6575
iter:  49 18:53:01  -894.575339c -4.33  -2.76    +57.8385
iter:  50 18:54:54  -894.661721c -3.96  -2.79    +57.8657
iter:  51 18:56:47  -894.623900c -4.62  -2.68    +57.7899
iter:  52 18:58:40  -894.713241c -3.98  -2.74    +57.9736
iter:  53 19:00:33  -894.648900c -3.85  -2.61    +58.3384
iter:  54 19:02:26  -894.627516c -4.13  -2.75    +58.6297
iter:  55 19:04:19  -894.863417  -3.80  -2.87    +58.7917
iter:  56 19:06:12  -894.638955  -4.04  -2.48    +58.6665
iter:  57 19:08:05  -894.634538  -4.40  -2.89    +58.5298
iter:  58 19:09:59  -894.673938c -4.26  -2.99    +58.5124
iter:  59 19:11:52  -894.640533c -4.71  -2.81    +58.4167
iter:  60 19:13:45  -894.650830c -4.75  -3.03    +58.3528
iter:  61 19:15:38  -894.655105c -4.76  -2.98    +58.2717
iter:  62 19:17:31  -894.647682c -5.16  -2.95    +58.3568
iter:  63 19:19:24  -894.653441c -4.91  -3.09    +58.3929
iter:  64 19:21:17  -894.672585c -4.65  -3.09    +58.4527
iter:  65 19:23:10  -894.659566c -4.64  -2.98    +58.5372
iter:  66 19:25:03  -894.669536c -4.61  -3.24    +58.6003
iter:  67 19:26:56  -894.787218  -4.21  -3.15    +58.6831
iter:  68 19:28:50  -894.663633  -4.54  -2.64    +58.6638
iter:  69 19:30:42  -894.664664  -5.09  -3.29    +58.7024
iter:  70 19:32:36  -894.665835c -5.46  -3.40    +58.7597
iter:  71 19:34:29  -894.669597c -5.38  -3.45    +58.7923
iter:  72 19:36:22  -894.669935c -5.46  -3.42    +58.7902
iter:  73 19:38:15  -894.691205c -5.01  -3.40    +58.8496
iter:  74 19:40:15  -894.671274c -5.36  -3.02    +58.8638
iter:  75 19:42:18  -894.675236c -5.53  -3.44    +58.9360
iter:  76 19:44:20  -894.680154c -5.54  -3.44    +58.9311
iter:  77 19:46:23  -894.681928c -5.33  -3.28    +58.9866
iter:  78 19:48:26  -894.685548c -5.24  -3.37    +59.0389
iter:  79 19:50:28  -894.706803c -4.92  -3.30    +59.1220
iter:  80 19:52:31  -894.687639c -5.59  -3.00    +59.1354
iter:  81 19:54:34  -894.699082c -4.93  -3.33    +59.2344
iter:  82 19:56:37  -894.695666c -4.94  -3.15    +59.1231
iter:  83 19:58:39  -894.696320c -4.96  -3.20    +59.1897
iter:  84 20:00:41  -894.697368c -5.25  -3.29    +59.1884
iter:  85 20:02:44  -894.701886c -5.12  -3.30    +59.2323
iter:  86 20:04:46  -894.700916c -5.53  -3.23    +59.3067
iter:  87 20:06:49  -894.706342c -5.34  -3.33    +59.4064
iter:  88 20:08:51  -894.713800c -5.13  -3.25    +59.4701
iter:  89 20:10:52  -894.707763c -5.37  -3.12    +59.5663
iter:  90 20:12:45  -894.726821c -4.85  -3.31    +59.6322
iter:  91 20:14:38  -894.711910c -5.27  -3.03    +59.6153
iter:  92 20:16:32  -894.727644c -4.93  -3.27    +59.6467
iter:  93 20:18:25  -894.714568c -5.10  -3.04    +59.6444
iter:  94 20:20:18  -894.715471c -5.00  -3.22    +59.6786
iter:  95 20:22:11  -894.719472c -4.91  -3.22    +59.6803
iter:  96 20:24:05  -894.727475c -4.94  -3.19    +59.7232
iter:  97 20:25:58  -894.714037c -5.19  -3.05    +59.6654
iter:  98 20:27:51  -894.715605c -5.30  -3.32    +59.6860
iter:  99 20:29:44  -894.716226c -5.35  -3.27    +59.7589
iter: 100 20:31:37  -894.715203c -5.40  -3.28    +59.7447
iter: 101 20:33:30  -894.716012c -5.36  -3.34    +59.7205
iter: 102 20:35:23  -894.744035c -4.73  -3.34    +59.7030
iter: 103 20:37:16  -894.725566c -4.73  -2.92    +59.7458
iter: 104 20:39:09  -894.723031c -4.94  -3.13    +59.7987
iter: 105 20:41:02  -894.716921c -4.97  -3.19    +59.6667
iter: 106 20:42:56  -894.714637c -5.10  -3.33    +59.7446
iter: 107 20:44:49  -894.713636c -5.82  -3.41    +59.7950
iter: 108 20:46:42  -894.723062c -5.28  -3.53    +59.8657
iter: 109 20:48:35  -894.715014c -5.45  -3.19    +59.8250
iter: 110 20:50:29  -894.714928c -5.52  -3.46    +59.8241
iter: 111 20:52:22  -894.715180c -5.61  -3.50    +59.8680
iter: 112 20:54:15  -894.717217c -5.20  -3.55    +59.8432
iter: 113 20:56:08  -894.714783c -5.51  -3.47    +59.8223
iter: 114 20:58:01  -894.722293c -5.33  -3.65    +59.8088
iter: 115 20:59:54  -894.714568c -5.65  -3.19    +59.8336
iter: 116 21:01:48  -894.714544c -6.03  -3.75    +59.8554
iter: 117 21:03:41  -894.714523c -6.63  -3.80    +59.8547
iter: 118 21:05:34  -894.715082c -6.25  -3.82    +59.8818
iter: 119 21:07:27  -894.715251c -5.77  -3.86    +59.9193
iter: 120 21:09:20  -894.720245c -5.62  -3.81    +59.9040
iter: 121 21:11:14  -894.716393c -5.63  -3.37    +59.9311
iter: 122 21:13:07  -894.715934c -6.11  -3.68    +59.9378
iter: 123 21:15:00  -894.716063c -6.36  -4.20c   +59.9532
iter: 124 21:16:53  -894.716035c -6.70  -4.18c   +59.9501
iter: 125 21:18:46  -894.716369c -6.66  -4.21c   +59.9627
iter: 126 21:20:39  -894.716653c -6.54  -4.26c   +59.9770
iter: 127 21:22:33  -894.718038c -6.13  -4.26c   +59.9961
iter: 128 21:24:26  -894.716954c -6.89  -3.75    +59.9944
iter: 129 21:26:19  -894.717130c -6.75  -4.12c   +60.0162
iter: 130 21:28:12  -894.717455c -6.47  -4.12c   +60.0326
iter: 131 21:30:05  -894.717663c -6.61  -4.15c   +60.0421
iter: 132 21:31:58  -894.718412c -6.00  -4.21c   +60.0687
iter: 133 21:33:51  -894.718547c -6.52  -3.94    +60.0680
iter: 134 21:35:45  -894.718323c -6.49  -3.92    +60.0699
iter: 135 21:37:38  -894.718531c -6.60  -4.21c   +60.0872
iter: 136 21:39:31  -894.717856c -6.07  -4.16c   +60.0288
iter: 137 21:41:24  -894.719119c -5.64  -4.21c   +60.1218
iter: 138 21:43:17  -894.717919c -5.81  -4.03c   +60.0364
iter: 139 21:45:10  -894.718933c -6.07  -4.18c   +60.1064
iter: 140 21:47:03  -894.718439c -5.69  -4.03c   +60.0181
iter: 141 21:48:56  -894.719184c -5.91  -3.88    +60.0753
iter: 142 21:50:50  -894.718383c -6.40  -3.68    +60.0542
iter: 143 21:52:43  -894.718742c -6.38  -4.10c   +60.0893
iter: 144 21:54:36  -894.719035c -6.20  -4.00    +60.1177
iter: 145 21:56:29  -894.718868c -6.53  -3.90    +60.1310
iter: 146 21:58:22  -894.719792c -6.08  -4.03c   +60.1521
iter: 147 22:00:15  -894.719229c -6.66  -3.89    +60.1461
iter: 148 22:02:09  -894.720022c -6.48  -4.19c   +60.1442
iter: 149 22:04:02  -894.719246c -6.87  -3.82    +60.1596
iter: 150 22:05:55  -894.719448c -6.84  -4.19c   +60.1829
iter: 151 22:07:48  -894.719565c -6.97  -4.07c   +60.1723
iter: 152 22:09:42  -894.719704c -6.97  -4.03c   +60.1898
iter: 153 22:11:35  -894.719922c -6.93  -4.15c   +60.1965
iter: 154 22:13:28  -894.720908c -6.04  -4.12c   +60.1708
iter: 155 22:15:21  -894.720264c -5.91  -3.65    +60.2220
iter: 156 22:17:15  -894.720703c -6.39  -3.98    +60.2465
iter: 157 22:19:08  -894.720812c -6.56  -3.96    +60.2632
iter: 158 22:21:01  -894.720747c -6.23  -4.10c   +60.2649
iter: 159 22:22:54  -894.720808c -6.40  -3.88    +60.2623
iter: 160 22:24:48  -894.720780c -6.65  -4.22c   +60.2498
iter: 161 22:26:41  -894.721056c -6.87  -4.25c   +60.2547
iter: 162 22:28:35  -894.720929c -7.06  -4.27c   +60.2538
iter: 163 22:30:28  -894.721195c -6.87  -4.23c   +60.2681
iter: 164 22:32:21  -894.721129c -7.33  -4.25c   +60.2660
iter: 165 22:34:14  -894.721219c -6.97  -4.42c   +60.2648
iter: 166 22:36:07  -894.721315c -7.09  -4.45c   +60.2640
iter: 167 22:38:00  -894.721344c -7.07  -4.50c   +60.2667
iter: 168 22:39:54  -894.721659c -6.97  -4.49c   +60.2731
iter: 169 22:41:47  -894.721446c -7.05  -4.15c   +60.2742
iter: 170 22:43:40  -894.721567c -7.05  -4.26c   +60.2817
iter: 171 22:45:33  -894.721703c -7.09  -4.56c   +60.2938
iter: 172 22:47:26  -894.721765c -7.24  -4.64c   +60.2979
iter: 173 22:49:20  -894.721796c -7.57c -4.61c   +60.3000

Converged after 173 iterations.

Dipole moment: (63.037339, 52.286701, 0.017940) |e|*Ang

Total magnetic moment: (0.000000, 0.000000, 60.300020)
Local magnetic moments:
   0 Co ( 0.000000,  0.000000,  1.498490)
   1 Al ( 0.000000,  0.000000, -0.049886)
   2 Cr ( 0.000000,  0.000000,  1.377951)
   3 Cr ( 0.000000,  0.000000,  2.411604)
   4 Ni ( 0.000000,  0.000000,  0.452713)
   5 Co ( 0.000000,  0.000000,  1.167302)
   6 Cr ( 0.000000,  0.000000,  1.628338)
   7 Cr ( 0.000000,  0.000000, -2.694489)
   8 Co ( 0.000000,  0.000000,  1.208464)
   9 Al ( 0.000000,  0.000000, -0.041653)
  10 Co ( 0.000000,  0.000000,  1.106131)
  11 Al ( 0.000000,  0.000000, -0.043512)
  12 Co ( 0.000000,  0.000000,  1.297342)
  13 Fe ( 0.000000,  0.000000,  2.360503)
  14 Cr ( 0.000000,  0.000000, -2.856251)
  15 Fe ( 0.000000,  0.000000,  2.532901)
  16 Fe ( 0.000000,  0.000000,  2.698927)
  17 Co ( 0.000000,  0.000000,  1.407554)
  18 Fe ( 0.000000,  0.000000,  2.528099)
  19 Fe ( 0.000000,  0.000000,  2.519069)
  20 Al ( 0.000000,  0.000000, -0.061990)
  21 Fe ( 0.000000,  0.000000,  2.517060)
  22 Al ( 0.000000,  0.000000, -0.059335)
  23 Co ( 0.000000,  0.000000,  1.457396)
  24 Co ( 0.000000,  0.000000,  1.580319)
  25 Co ( 0.000000,  0.000000,  1.618569)
  26 Co ( 0.000000,  0.000000,  1.385540)
  27 Fe ( 0.000000,  0.000000,  2.264917)
  28 Al ( 0.000000,  0.000000, -0.029919)
  29 Ni ( 0.000000,  0.000000,  0.318858)
  30 Ni ( 0.000000,  0.000000,  0.383405)
  31 Fe ( 0.000000,  0.000000,  1.768726)
  32 Al ( 0.000000,  0.000000, -0.016373)
  33 Ni ( 0.000000,  0.000000,  0.271671)
  34 Fe ( 0.000000,  0.000000,  2.406698)
  35 Al ( 0.000000,  0.000000, -0.039728)
  36 Ni ( 0.000000,  0.000000,  0.097832)
  37 Ni ( 0.000000,  0.000000,  0.284653)
  38 Cr ( 0.000000,  0.000000, -1.560594)
  39 Fe ( 0.000000,  0.000000,  1.966637)
  40 Co ( 0.000000,  0.000000,  1.215336)
  41 Ni ( 0.000000,  0.000000,  0.419502)
  42 Cr ( 0.000000,  0.000000,  0.394252)
  43 Ni ( 0.000000,  0.000000,  0.266264)
  44 Cr ( 0.000000,  0.000000,  1.228605)
  45 Co ( 0.000000,  0.000000,  1.342944)
  46 Fe ( 0.000000,  0.000000,  2.551915)
  47 Ni ( 0.000000,  0.000000,  0.364806)
  48 Cr ( 0.000000,  0.000000, -1.636156)
  49 Co ( 0.000000,  0.000000,  1.255473)
  50 Ni ( 0.000000,  0.000000,  0.356257)
  51 Al ( 0.000000,  0.000000, -0.021045)
  52 Ni ( 0.000000,  0.000000,  0.175475)
  53 Cr ( 0.000000,  0.000000,  1.542265)
  54 Co ( 0.000000,  0.000000,  0.985672)
  55 Co ( 0.000000,  0.000000,  0.770573)
  56 Fe ( 0.000000,  0.000000, -1.874459)
  57 Fe ( 0.000000,  0.000000,  1.461763)
  58 Co ( 0.000000,  0.000000,  0.739264)
  59 Al ( 0.000000,  0.000000, -0.033254)
  60 Ni ( 0.000000,  0.000000,  0.105518)
  61 Fe ( 0.000000,  0.000000,  2.196469)
  62 Al ( 0.000000,  0.000000, -0.010312)
  63 Co ( 0.000000,  0.000000,  0.930183)
  64 Fe ( 0.000000,  0.000000,  2.266247)
  65 Al ( 0.000000,  0.000000, -0.017880)
  66 Co ( 0.000000,  0.000000,  1.115072)
  67 Co ( 0.000000,  0.000000,  1.072355)
  68 Cr ( 0.000000,  0.000000, -1.326599)
  69 Ni ( 0.000000,  0.000000,  0.103158)
  70 Ni ( 0.000000,  0.000000,  0.161910)
  71 Co ( 0.000000,  0.000000,  1.365094)
  72 Ni ( 0.000000,  0.000000,  0.314840)
  73 Fe ( 0.000000,  0.000000,  2.103463)
  74 Cr ( 0.000000,  0.000000, -1.870590)
  75 Ni ( 0.000000,  0.000000, -0.090975)
  76 Ni ( 0.000000,  0.000000,  0.079028)
  77 Co ( 0.000000,  0.000000, -0.710622)
  78 Al ( 0.000000,  0.000000,  0.010891)
  79 Al ( 0.000000,  0.000000, -0.000616)
  80 Cr ( 0.000000,  0.000000, -1.743152)
  81 Cr ( 0.000000,  0.000000,  1.482599)
  82 Al ( 0.000000,  0.000000, -0.012121)
  83 Cr ( 0.000000,  0.000000, -1.091984)
  84 Fe ( 0.000000,  0.000000,  1.700954)
  85 Al ( 0.000000,  0.000000, -0.006265)
  86 Cr ( 0.000000,  0.000000, -1.679654)
  87 Ni ( 0.000000,  0.000000,  0.158560)
  88 Cr ( 0.000000,  0.000000,  0.927158)
  89 Cr ( 0.000000,  0.000000,  0.994153)
  90 Ni ( 0.000000,  0.000000,  0.061255)
  91 Ni ( 0.000000,  0.000000,  0.102255)
  92 Cr ( 0.000000,  0.000000, -1.643629)
  93 Co ( 0.000000,  0.000000,  0.632477)
  94 Ni ( 0.000000,  0.000000,  0.191768)
  95 Al ( 0.000000,  0.000000,  0.009967)
  96 Al ( 0.000000,  0.000000,  0.000074)
  97 Co ( 0.000000,  0.000000,  0.959521)
  98 Al ( 0.000000,  0.000000, -0.014754)
  99 Fe ( 0.000000,  0.000000,  1.467897)
 100 Fe ( 0.000000,  0.000000, -2.344980)
 101 Ni ( 0.000000,  0.000000,  0.013019)
 102 Fe ( 0.000000,  0.000000,  2.256248)
 103 Cr ( 0.000000,  0.000000, -2.055567)
 104 Fe ( 0.000000,  0.000000, -2.670903)
 105 Al ( 0.000000,  0.000000,  0.014066)
 106 Ni ( 0.000000,  0.000000,  0.080479)
 107 Co ( 0.000000,  0.000000, -0.467394)
 108 Fe ( 0.000000,  0.000000, -2.309612)
 109 Co ( 0.000000,  0.000000, -1.226848)
 110 Fe ( 0.000000,  0.000000,  2.164162)
 111 Al ( 0.000000,  0.000000, -0.010108)
 112 Cr ( 0.000000,  0.000000,  2.144999)
 113 Al ( 0.000000,  0.000000, -0.006347)
 114 Ni ( 0.000000,  0.000000,  0.009519)
 115 Fe ( 0.000000,  0.000000, -2.017674)
 116 Al ( 0.000000,  0.000000, -0.004457)
 117 Al ( 0.000000,  0.000000, -0.014819)
 118 Fe ( 0.000000,  0.000000,  1.863293)
 119 Al ( 0.000000,  0.000000, -0.021152)
 120 Cr ( 0.000000,  0.000000,  2.447333)
 121 Ni ( 0.000000,  0.000000, -0.073733)
 122 Cr ( 0.000000,  0.000000,  1.819546)
 123 Cr ( 0.000000,  0.000000,  1.300940)
 124 Cr ( 0.000000,  0.000000,  1.755918)

Energy contributions relative to reference atoms: (reference = -3726899.091688)

Kinetic:       +415.169041
Potential:     -380.695966
External:        +0.000000
XC:            -961.974970
Entropy (-ST):   -5.013429
Local:          +35.286813
--------------------------
Free energy:   -897.228511
Extrapolated:  -894.721796

Dipole-layer corrected work functions: 4.838851, 4.815601 eV

Spin contamination: 40.117511 electrons
Showing all kpts
                      Up                     Down
 Kpt  Band  Eigenvalues  Occupancy  Eigenvalues  Occupancy
  0   523      0.00111    0.98815      0.77692    0.03441
  0   524      0.01277    0.98671      0.78141    0.03294
  0   525      0.01987    0.98574      0.79207    0.02971
  0   526      0.04101    0.98244      0.80195    0.02699

  1   523     -0.01854    0.99024      0.77778    0.03412
  1   524     -0.00857    0.98923      0.78823    0.03084
  1   525      0.00571    0.98760      0.79638    0.02849
  1   526      0.01641    0.98622      0.80619    0.02590


Fermi level: 0.44347

Gap: 0.004 eV
Transition (v -> c):
  (s=0, k=0, n=555, [0.25, -0.25, 0.00]) -> (s=1, k=1, n=495, [0.25, 0.25, 0.00])

Forces in eV/Ang:
  0 Co    0.19063   -0.10080    0.46984
  1 Al   -1.45646    0.20924   -0.65939
  2 Cr    0.35696    0.12726   -0.68447
  3 Cr    0.38024    0.15511   -1.28575
  4 Ni   -0.16557   -0.10790   -0.17286
  5 Co   -0.14337    0.18550    0.49558
  6 Cr    0.41453   -0.42755   -0.89526
  7 Cr    0.27956   -0.19190    0.09735
  8 Co   -0.01486    0.23184    0.22934
  9 Al    0.03011   -0.65364   -1.93310
 10 Co   -0.41770   -0.10162    0.17450
 11 Al    0.44077    0.48930   -0.91288
 12 Co    0.19420    0.18948   -0.02578
 13 Fe   -0.37420   -0.27726   -0.57578
 14 Cr    0.39786    0.54259    0.48861
 15 Fe   -0.67500    0.43534    0.13017
 16 Fe    0.47255   -0.04004    0.45490
 17 Co   -0.33107   -0.14169   -0.19627
 18 Fe    0.36422    0.25848   -0.18783
 19 Fe   -0.00448    0.59881   -0.07505
 20 Al   -0.31179    0.17102   -0.56818
 21 Fe   -0.25108   -0.00363    0.49871
 22 Al    0.69902   -0.82821   -0.48239
 23 Co    0.36610   -0.14283    1.17772
 24 Co   -0.52159   -0.43836    1.03050
 25 Co    1.01070    0.16852    0.57355
 26 Co   -0.29389    0.31123    0.19383
 27 Fe   -0.62187   -0.50204   -0.21932
 28 Al    0.92047   -0.69308    0.04125
 29 Ni    0.07444    0.00654    0.23458
 30 Ni    0.38531   -0.42592    0.32228
 31 Fe    0.03742   -0.09529    0.32833
 32 Al    0.18715    0.63279    0.72316
 33 Ni   -0.23883   -0.08665   -0.16289
 34 Fe   -0.20995   -1.01900    0.26648
 35 Al   -1.00649   -0.28224    1.20262
 36 Ni   -0.35439   -0.11505    0.38461
 37 Ni    0.08199   -0.14267   -0.32085
 38 Cr   -0.03431   -0.09391   -0.03000
 39 Fe    0.61198   -0.04633    0.32727
 40 Co   -0.64084    0.65428    0.09118
 41 Ni   -0.00333   -0.05992   -0.04136
 42 Cr    0.01296    0.29183   -0.36594
 43 Ni    0.40980    0.13438    0.44581
 44 Cr    0.23487    0.79751    0.33767
 45 Co   -0.11716    0.48473    0.02875
 46 Fe   -0.24748    0.53009    0.23384
 47 Ni   -0.05024    0.66749    0.28097
 48 Cr   -0.39395   -0.85709   -0.28133
 49 Co    0.24515    0.04300    0.03454
 50 Ni   -0.17033    0.04208   -0.57066
 51 Al   -0.10745   -0.26787   -0.33324
 52 Ni   -0.31427   -0.20683    0.06906
 53 Cr    0.84524   -0.07392   -0.60893
 54 Co   -0.02111   -0.37866   -0.46729
 55 Co   -0.39797    0.63666   -0.25559
 56 Fe   -0.40195    0.25738    0.22192
 57 Fe    0.41044   -0.17689   -0.08990
 58 Co   -0.30362   -0.21373   -0.31321
 59 Al    0.57737   -0.23450   -0.09826
 60 Ni   -0.42509   -0.26747   -0.48472
 61 Fe   -0.37943   -0.06619   -0.24852
 62 Al   -0.18294    0.24898    0.08127
 63 Co    0.40686    0.59771    0.12571
 64 Fe   -0.22719   -0.33595   -0.37269
 65 Al    0.27390    0.14844   -0.55491
 66 Co    0.42381    0.23499   -0.19351
 67 Co    0.58973    0.29976    0.22444
 68 Cr   -0.31047   -0.55521    0.61285
 69 Ni   -0.53265   -0.01302   -0.73818
 70 Ni   -0.07658    0.32901   -0.55653
 71 Co    0.27429   -0.37581   -0.66462
 72 Ni    0.17987   -0.48062    0.19816
 73 Fe    0.27853   -0.90660   -0.04348
 74 Cr   -1.20827    0.89694   -0.75869
 75 Ni    0.09147    0.48412    0.29432
 76 Ni   -0.23647    0.48708   -0.01869
 77 Co    0.09401    0.17166    0.47103
 78 Al   -0.54351   -0.63834    0.46244
 79 Al    1.13970   -0.41247    0.46367
 80 Cr   -0.00396    0.26718   -0.44323
 81 Cr   -0.52876   -0.35644   -0.39981
 82 Al   -0.23719   -0.04690   -0.18528
 83 Cr    0.40043    0.73071    0.56420
 84 Fe    0.38355    0.03084    0.16984
 85 Al    0.46459    0.34529   -1.05263
 86 Cr   -0.35794   -0.80448    0.12378
 87 Ni   -0.04411    0.43088    0.01364
 88 Cr    0.70282    0.62660   -0.02295
 89 Cr   -1.14529    0.02801   -0.88602
 90 Ni   -0.10561    0.39562    0.13790
 91 Ni   -0.08786    0.05371   -0.12461
 92 Cr    0.95442   -0.60382   -0.64712
 93 Co    0.44196   -0.04324   -0.25391
 94 Ni   -0.14247    0.57618   -0.34530
 95 Al   -0.60486    0.34499   -0.48838
 96 Al    0.58225    0.93670   -0.13602
 97 Co    0.61966   -0.61714    0.48827
 98 Al   -0.56269   -1.41076   -1.08609
 99 Fe   -0.57328    0.01846    0.33568
100 Fe   -0.77648    0.42743    0.42138
101 Ni   -0.11987   -0.26789    0.35218
102 Fe   -0.07281    0.47715    0.04901
103 Cr    0.14290   -0.06067    0.48921
104 Fe   -0.05589    0.51094   -0.79060
105 Al   -0.25048   -0.42861    0.75603
106 Ni    0.27369    0.39135    0.24493
107 Co    0.40963   -0.05465   -0.05051
108 Fe    0.43989    0.28974   -0.26295
109 Co   -0.44169   -0.42920   -0.51491
110 Fe   -0.24865    0.18499   -0.28788
111 Al   -0.91475   -0.31720    0.73812
112 Cr    0.96044   -0.99113    0.42059
113 Al    0.45972   -0.69987    0.72771
114 Ni   -0.11842   -0.36393    0.03182
115 Fe    0.23635   -0.08126   -0.54153
116 Al    0.20264    0.41343    1.30382
117 Al    0.68254   -0.07624    0.81779
118 Fe   -0.52604    0.10802   -0.32310
119 Al   -0.05907   -0.52325    2.29628
120 Cr   -0.38197    0.14834    1.36527
121 Ni    0.39849   -0.02522    0.42664
122 Cr    0.00045    0.21752   -0.49059
123 Cr   -0.22221    0.10740   -0.02365
124 Cr    0.16256    0.46903   -0.01041

Timing:                              incl.     excl.
-----------------------------------------------------------
Forces:                             33.184    33.184   0.2% |
Hamiltonian:                         1.572     0.009   0.0% |
 Atomic:                             0.319     0.001   0.0% |
  XC Correction:                     0.318     0.318   0.0% |
 Calculate atomic Hamiltonians:      0.764     0.764   0.0% |
 Communicate:                        0.097     0.097   0.0% |
 Initialize Hamiltonian:             0.000     0.000   0.0% |
 Poisson:                            0.080     0.080   0.0% |
 XC 3D grid:                         0.303     0.303   0.0% |
LCAO initialization:               212.700     0.463   0.0% |
 LCAO eigensolver:                  10.927     0.009   0.0% |
  Calculate projections:             0.000     0.000   0.0% |
  DenseAtomicCorrection:             0.000     0.000   0.0% |
  Distribute overlap matrix:         7.422     7.422   0.0% |
  Orbital Layouts:                   3.473     3.473   0.0% |
  Potential matrix:                  0.003     0.003   0.0% |
  Sum over cells:                    0.021     0.021   0.0% |
 LCAO to grid:                     199.526   199.526   1.0% |
 Set positions (LCAO WFS):           1.783     1.531   0.0% |
  Basic WFS set positions:           0.003     0.003   0.0% |
  Basis functions set positions:     0.001     0.001   0.0% |
  P tci:                             0.000     0.000   0.0% |
  ST tci:                            0.095     0.095   0.0% |
  mktci:                             0.152     0.152   0.0% |
PWDescriptor:                        0.252     0.252   0.0% |
SCF-cycle:                       19732.451   101.161   0.5% |
 Davidson:                       18986.943  6608.914  33.1% |------------|
  Apply H:                         369.195   362.752   1.8% ||
   HMM T:                            6.442     6.442   0.0% |
  Subspace diag:                  2098.772     0.053   0.0% |
   calc_h_matrix:                  873.256   545.399   2.7% ||
    Apply H:                       327.857   321.300   1.6% ||
     HMM T:                          6.556     6.556   0.0% |
   diagonalize:                    169.991   169.991   0.9% |
   rotate_psi:                    1055.473  1055.473   5.3% |-|
  calc. matrices:                 4950.179  4294.813  21.5% |--------|
   Apply H:                        655.366   642.265   3.2% ||
    HMM T:                          13.101    13.101   0.1% |
  diagonalize:                    2717.463  2717.463  13.6% |----|
  rotate_psi:                     2242.421  2242.421  11.2% |---|
 Density:                          358.796     0.005   0.0% |
  Atomic density matrices:           3.641     3.641   0.0% |
  Mix:                             161.303   161.303   0.8% |
  Multipole moments:                 0.107     0.107   0.0% |
  Pseudo density:                  193.741   193.734   1.0% |
   Symmetrize density:               0.007     0.007   0.0% |
 Hamiltonian:                      270.904     1.778   0.0% |
  Atomic:                           55.523     0.195   0.0% |
   XC Correction:                   55.329    55.329   0.3% |
  Calculate atomic Hamiltonians:   136.332   136.332   0.7% |
  Communicate:                      19.203    19.203   0.1% |
  Poisson:                           5.771     5.771   0.0% |
  XC 3D grid:                       52.296    52.296   0.3% |
 Orthonormalize:                    14.646     0.000   0.0% |
  calc_s_matrix:                     1.712     1.712   0.0% |
  inverse-cholesky:                  0.674     0.674   0.0% |
  projections:                       9.227     9.227   0.0% |
  rotate_psi_s:                      3.033     3.033   0.0% |
Set symmetry:                        0.001     0.001   0.0% |
Other:                               6.753     6.753   0.0% |
-----------------------------------------------------------
Total:                                     19986.913 100.0%

Date: Wed Apr 19 22:49:56 2023
