
  ___ ___ ___ _ _ _  
 |   |   |_  | | | | 
 | | | | | . | | | | 
 |__ |  _|___|_____|  22.8.0
 |___|_|             

User:   c.zeng@d0148
Date:   Sat Apr  8 00:07:18 2023
Arch:   x86_64
Pid:    57538
CWD:    /home/c.zeng/projects/hea-corrosion/hea-mlp/data-curation/volume/dft-jobs/107
Python: 3.8.1
gpaw:   /home/c.zeng/usr/installs/gpaw/source/gpaw-22.8.0/gpaw
_gpaw:  /home/c.zeng/usr/installs/gpaw/source/gpaw-22.8.0/
        _gpaw.cpython-38-x86_64-linux-gnu.so
ase:    /home/c.zeng/.local/lib/python3.8/site-packages/ase-3.22.1-py3.8.egg/ase (version 3.22.1)
numpy:  /shared/centos7/python/3.8.1/lib/python3.8/site-packages/numpy (version 1.17.4)
scipy:  /shared/centos7/python/3.8.1/lib/python3.8/site-packages/scipy (version 1.4.1)
libxc:  4.2.3
units:  Angstrom and eV
cores: 64
OpenMP: False
OMP_NUM_THREADS: 1

Input parameters:
  convergence: {energy: 0.0001}
  kpts: [2 2 2]
  maxiter: 666
  mode: {ecut: 350.0,
         name: pw}
  occupations: {fixmagmom: False,
                name: fermi-dirac,
                width: 0.1}
  spinpol: True
  xc: PBE

System changes: positions, numbers, cell, pbc, initial_charges, initial_magmoms 

Initialize ...

species:
  Fe:
    name: Iron
    id: 37abbd8d6c3c35915a9b583b742da910
    Z: 26.0
    valence: 8
    core: 18
    charge: 0.0
    file: /home/c.zeng/usr/data/gpaw-setups-0.9.20000/Fe.PBE.gz
    compensation charges: {type: gauss,
                           rc: 0.33,
                           lmax: 2}
    cutoffs: {filter: 2.06,
              core: 2.67}
    valence states:
      #              energy  rcut
      - 4s(2.00)    -5.291   1.164
      - 4p(0.00)    -1.326   1.058
      - 3d(6.00)    -7.505   1.058
      -  s          21.920   1.164
      -  p          25.885   1.058
      -  d          19.706   1.058
  
    # Using partial waves for Fe as LCAO basis

  Cr:
    name: Chromium
    id: 33f258bda2ca9f93018e70263a35547b
    Z: 24.0
    valence: 6
    core: 18
    charge: 0.0
    file: /home/c.zeng/usr/data/gpaw-setups-0.9.20000/Cr.PBE.gz
    compensation charges: {type: gauss,
                           rc: 0.35,
                           lmax: 2}
    cutoffs: {filter: 2.14,
              core: 3.04}
    valence states:
      #              energy  rcut
      - 4s(1.00)    -4.007   1.164
      - 4p(0.00)    -0.989   1.217
      - 3d(5.00)    -2.913   1.111
      -  s          23.205   1.164
      -  p          26.223   1.217
      -  d          24.299   1.111
  
    # Using partial waves for Cr as LCAO basis

  Ni:
    name: Nickel
    id: 0d9f38a9d6e76a2886f07bb4381f212b
    Z: 28.0
    valence: 16
    core: 12
    charge: 0.0
    file: /home/c.zeng/usr/data/gpaw-setups-0.9.20000/Ni.PBE.gz
    compensation charges: {type: gauss,
                           rc: 0.36,
                           lmax: 2}
    cutoffs: {filter: 2.14,
              core: 1.98}
    valence states:
      #              energy  rcut
      - 4s(2.00)    -5.642   1.164
      - 3p(6.00)   -71.394   1.207
      - 4p(0.00)    -1.226   1.207
      - 3d(8.00)    -8.875   1.138
      -  s          21.570   1.164
      -  d          18.337   1.138
  
    # Using partial waves for Ni as LCAO basis

  Al:
    name: Aluminium
    id: 0292cae29f5d6237e50f6abdd43a7bdd
    Z: 13.0
    valence: 3
    core: 10
    charge: 0.0
    file: /home/c.zeng/usr/data/gpaw-setups-0.9.20000/Al.PBE.gz
    compensation charges: {type: gauss,
                           rc: 0.34,
                           lmax: 2}
    cutoffs: {filter: 1.91,
              core: 2.36}
    valence states:
      #              energy  rcut
      - 3s(2.00)    -7.753   1.085
      - 3p(1.00)    -2.712   1.085
      -  s          19.459   1.085
      -  p          24.499   1.085
      -  d           0.000   1.085
  
    # Using partial waves for Al as LCAO basis

  Co:
    name: Cobalt
    id: 339d20d5b0b93d2de9531a1bee871d91
    Z: 27.0
    valence: 9
    core: 18
    charge: 0.0
    file: /home/c.zeng/usr/data/gpaw-setups-0.9.20000/Co.PBE.gz
    compensation charges: {type: gauss,
                           rc: 0.32,
                           lmax: 2}
    cutoffs: {filter: 1.87,
              core: 2.55}
    valence states:
      #              energy  rcut
      - 4s(2.00)    -5.469   1.005
      - 4p(0.00)    -1.277   1.058
      - 3d(7.00)    -8.205   1.005
      -  s          21.742   1.005
      -  p          25.934   1.058
      -  d          19.007   1.005
  
    # Using partial waves for Co as LCAO basis

Reference energy: -3382523.201499  # eV

Spin-polarized calculation.
Magnetic moment: 128.800000

Convergence criteria:
 Maximum [total energy] change in last 3 cyles: 0.0001 eV / electron
 Maximum integral of absolute [dens]ity change: 0.0001 electrons / valence electron
 Maximum integral of absolute [eigenst]ate change: 4e-08 eV^2 / valence electron
 Maximum number of scf [iter]ations: 666
 (Square brackets indicate name in SCF output, whereas a 'c' in
 the SCF output indicates the quantity has converged.)

Symmetries present (total): 1

  ( 1  0  0)
  ( 0  1  0)
  ( 0  0  1)

8 k-points: 2 x 2 x 2 Monkhorst-Pack grid
4 k-points in the irreducible part of the Brillouin zone
       k-points in crystal coordinates                weights
   0:     0.25000000   -0.25000000   -0.25000000          2/8
   1:     0.25000000   -0.25000000    0.25000000          2/8
   2:     0.25000000    0.25000000   -0.25000000          2/8
   3:     0.25000000    0.25000000    0.25000000          2/8

Wave functions: Plane wave expansion
  Cutoff energy: 350.000 eV
  Number of coefficients (min, max): 18865, 18865
  Pulay-stress correction: 0.000000 eV/Ang^3 (de/decut=0.000000)
  Using FFTW library
  ScaLapack parameters: grid=1x1, blocksize=None
  Wavefunction extrapolation:
    Improved wavefunction reuse through dual PAW basis 

Occupation numbers: Fermi-Dirac:
  width: 0.1000  # eV
 

Eigensolver
   Davidson(niter=2) 

Densities:
  Coarse grid: 48*48*48 grid
  Fine grid: 96*96*96 grid
  Total Charge: 0.000000 

Density mixing:
  Method: difference
  Backend: pulay
  Linear mixing parameter: 0.05
  old densities: 5
  Damping of long wavelength oscillations: 50 

Hamiltonian:
  XC and Coulomb potentials evaluated on a 96*96*96 grid
  Using the PBE Exchange-Correlation functional
  External potential:
    NoExternalPotential
 

XC parameters: PBE with 2 nearest neighbor stencil

Memory estimate:
  Process memory now: 170.65 MiB
  Calculator: 639.69 MiB
    Density: 5.10 MiB
      Arrays: 1.85 MiB
      Localized functions: 2.51 MiB
      Mixer: 0.74 MiB
    Hamiltonian: 1.45 MiB
      Arrays: 1.37 MiB
      XC: 0.00 MiB
      Poisson: 0.00 MiB
      vbar: 0.08 MiB
    Wavefunctions: 633.14 MiB
      Arrays psit_nG: 373.64 MiB
      Eigensolver: 252.55 MiB
      Projections: 2.31 MiB
      Projectors: 0.34 MiB
      PW-descriptor: 4.30 MiB

Total number of cores used: 64
Parallelization over k-points: 4
Domain decomposition: 4 x 2 x 2

Number of atoms: 108
Number of atomic orbitals: 961
Number of bands in calculation: 649
Number of valence electrons: 945
Bands to converge: occupied

... initialized

Initializing position-dependent things.

Density initialized from atomic densities
Creating initial wave functions:
  649 bands from LCAO basis set

        .--------------------------.  
       /|                     Ni   |  
      / |            Cr Ni     NiNi|  
     /  |       Al       Ni       Fe  
    /   |Cr       Fer     CAlo     |  
   /i   | Coi        Co      Fe    |  
  /  FeCr   CFe       Cr           |  
 *      Co     CrNi   FeAlFeFe   Ni|  
 |      |CrFe   CrCoAl   FeCrCo   Co  
 | NiCo | AlNi   FeAlAl     Cr     |  
 |     Co  NiFe Fe  Ni NiNi  CrCr  |  
 |      CoFe   AlFe   NiAlCoFe  Fe |  
 |Co    |AlAl   CrFeCo   CrCo     Cr  
 |      .-CrAl-----FeNi-CoAlCoNi---.  
 |     /   Al Cr    Fe FeNi    Cr /   
 |    Cr       CNio       Co     /    
 |   /  Fe         Cr       Ni  /     
 |  /      Fe       Co       Cr/      
 | / Ni     Co       Cr Ni    /       
 |/             Al       Co  /        
 *--------Al----------------*         

Positions:
   0 Fe    10.764272   10.860768   10.805292    ( 0.0000,  0.0000,  2.0000)
   1 Cr    10.786097    1.792339    1.813482    ( 0.0000,  0.0000,  0.0000)
   2 Ni     1.744373    0.036525    1.851191    ( 0.0000,  0.0000,  1.5000)
   3 Cr     1.736561    1.830968   10.798475    ( 0.0000,  0.0000,  0.0000)
   4 Al     3.574930    0.057126    0.061330    ( 0.0000,  0.0000,  0.0000)
   5 Fe     3.594255    1.817540    1.845153    ( 0.0000,  0.0000,  2.0000)
   6 Ni     5.429562   10.816816    1.864857    ( 0.0000,  0.0000,  1.5000)
   7 Al     5.429540    1.929119    0.056630    ( 0.0000,  0.0000,  0.0000)
   8 Al     7.316611   10.722809    0.087359    ( 0.0000,  0.0000,  0.0000)
   9 Co     7.262878    1.825569    1.869034    ( 0.0000,  0.0000,  2.1000)
  10 Ni     9.063300    0.025018    1.863429    ( 0.0000,  0.0000,  1.5000)
  11 Co     9.049222    1.829377    0.033236    ( 0.0000,  0.0000,  2.1000)
  12 Ni     0.004674    3.559024   10.794775    ( 0.0000,  0.0000,  1.5000)
  13 Cr    10.759674    5.390652    1.778143    ( 0.0000,  0.0000,  0.0000)
  14 Fe     1.733693    3.561772    1.760917    ( 0.0000,  0.0000,  2.0000)
  15 Cr     1.776866    5.391983   10.795424    ( 0.0000,  0.0000,  0.0000)
  16 Co     3.565375    3.619434   10.832094    ( 0.0000,  0.0000,  2.1000)
  17 Cr     3.633165    5.394471    1.719627    ( 0.0000,  0.0000,  0.0000)
  18 Co     5.471479    3.658982    1.835610    ( 0.0000,  0.0000,  2.1000)
  19 Fe     5.439982    5.373274   -0.002919    ( 0.0000,  0.0000,  2.0000)
  20 Cr     7.258777    3.609068    0.031184    ( 0.0000,  0.0000,  0.0000)
  21 Fe     7.268591    5.378403    1.785176    ( 0.0000,  0.0000,  2.0000)
  22 Co     9.030428    3.577527    1.833565    ( 0.0000,  0.0000,  2.1000)
  23 Al     9.040090    5.372506   10.801148    ( 0.0000,  0.0000,  0.0000)
  24 Ni    10.791648    7.196084   10.792589    ( 0.0000,  0.0000,  1.5000)
  25 Cr    10.758559    9.040198    1.848291    ( 0.0000,  0.0000,  0.0000)
  26 Cr     1.690737    7.202327    1.786237    ( 0.0000,  0.0000,  0.0000)
  27 Al     1.653028    8.980762    0.027193    ( 0.0000,  0.0000,  0.0000)
  28 Cr     3.631130    7.164434    0.034521    ( 0.0000,  0.0000,  0.0000)
  29 Cr     3.625428    9.063830    1.801980    ( 0.0000,  0.0000,  0.0000)
  30 Fe     5.490480    7.187060    1.746429    ( 0.0000,  0.0000,  2.0000)
  31 Fe     5.426456    8.988878    0.009703    ( 0.0000,  0.0000,  2.0000)
  32 Ni     7.228913    7.237125   -0.008557    ( 0.0000,  0.0000,  1.5000)
  33 Cr     7.248595    8.995813    1.810940    ( 0.0000,  0.0000,  0.0000)
  34 Co     9.051711    7.204329    1.764466    ( 0.0000,  0.0000,  2.1000)
  35 Ni     9.092428    8.989397   10.808701    ( 0.0000,  0.0000,  1.5000)
  36 Ni    -0.000890   10.826143    3.639646    ( 0.0000,  0.0000,  1.5000)
  37 Co    10.822464    1.771835    5.421782    ( 0.0000,  0.0000,  2.1000)
  38 Co     1.754241   10.802154    5.428891    ( 0.0000,  0.0000,  2.1000)
  39 Cr     1.741895    1.774453    3.610745    ( 0.0000,  0.0000,  0.0000)
  40 Fe     3.591193   10.794699    3.612541    ( 0.0000,  0.0000,  2.0000)
  41 Al     3.593108    1.737178    5.455552    ( 0.0000,  0.0000,  0.0000)
  42 Fe     5.437201   10.794797    5.401148    ( 0.0000,  0.0000,  2.0000)
  43 Ni     5.451851    1.783359    3.601396    ( 0.0000,  0.0000,  1.5000)
  44 Cr     7.226034    0.007856    3.626131    ( 0.0000,  0.0000,  0.0000)
  45 Co     7.236173    1.766609    5.381487    ( 0.0000,  0.0000,  2.1000)
  46 Co     9.034399   10.848649    5.403604    ( 0.0000,  0.0000,  2.1000)
  47 Ni     9.031217    1.804783    3.616393    ( 0.0000,  0.0000,  1.5000)
  48 Ni    10.773654    3.543908    3.617508    ( 0.0000,  0.0000,  1.5000)
  49 Cr    10.771977    5.358180    5.454416    ( 0.0000,  0.0000,  0.0000)
  50 Co     1.757217    3.575503    5.428869    ( 0.0000,  0.0000,  2.1000)
  51 Al     1.621941    5.386583    3.572441    ( 0.0000,  0.0000,  0.0000)
  52 Al     3.634312    3.632818    3.540803    ( 0.0000,  0.0000,  0.0000)
  53 Fe     3.550573    5.397447    5.404740    ( 0.0000,  0.0000,  2.0000)
  54 Fe     5.402424    3.610626    5.370331    ( 0.0000,  0.0000,  2.0000)
  55 Fe     5.460053    5.433262    3.575666    ( 0.0000,  0.0000,  2.0000)
  56 Ni     7.249904    3.614954    3.622820    ( 0.0000,  0.0000,  1.5000)
  57 Ni     7.248584    5.410453    5.361881    ( 0.0000,  0.0000,  1.5000)
  58 Co     9.057900    3.565127    5.379799    ( 0.0000,  0.0000,  2.1000)
  59 Co     9.073644    5.365235    3.588607    ( 0.0000,  0.0000,  2.1000)
  60 Fe    10.732223    7.267498    3.614867    ( 0.0000,  0.0000,  2.0000)
  61 Co    10.775720    9.094538    5.426294    ( 0.0000,  0.0000,  2.1000)
  62 Al     1.686777    7.279746    5.496583    ( 0.0000,  0.0000,  0.0000)
  63 Ni     1.734537    9.054871    3.595845    ( 0.0000,  0.0000,  1.5000)
  64 Al     3.592794    7.267703    3.470503    ( 0.0000,  0.0000,  0.0000)
  65 Cr     3.586518    9.093618    5.439073    ( 0.0000,  0.0000,  0.0000)
  66 Al     5.382959    7.228826    5.440642    ( 0.0000,  0.0000,  0.0000)
  67 Ni     5.437926    9.045197    3.590446    ( 0.0000,  0.0000,  1.5000)
  68 Al     7.325592    7.204621    3.545618    ( 0.0000,  0.0000,  0.0000)
  69 Fe     7.279487    9.072064    5.412931    ( 0.0000,  0.0000,  2.0000)
  70 Cr     9.091919    7.237342    5.436616    ( 0.0000,  0.0000,  0.0000)
  71 Cr     9.065420    9.066448    3.636010    ( 0.0000,  0.0000,  0.0000)
  72 Fe    10.809404   10.839344    7.207683    ( 0.0000,  0.0000,  2.0000)
  73 Co    10.805714    1.798453    8.996917    ( 0.0000,  0.0000,  2.1000)
  74 Co     1.743259    0.025097    8.996971    ( 0.0000,  0.0000,  2.1000)
  75 Co     1.767096    1.793129    7.239300    ( 0.0000,  0.0000,  2.1000)
  76 Fe     3.586670    0.005766    7.225082    ( 0.0000,  0.0000,  2.0000)
  77 Fe     3.553213    1.854837    8.998345    ( 0.0000,  0.0000,  2.0000)
  78 Cr     5.409425   10.815701    8.971165    ( 0.0000,  0.0000,  0.0000)
  79 Fe     5.421273    1.784419    7.188758    ( 0.0000,  0.0000,  2.0000)
  80 Co     7.246117   10.799590    7.160258    ( 0.0000,  0.0000,  2.1000)
  81 Al     7.321285    1.764899    8.948962    ( 0.0000,  0.0000,  0.0000)
  82 Ni     9.091021   10.806645    8.993520    ( 0.0000,  0.0000,  1.5000)
  83 Ni     9.075592    1.781671    7.163071    ( 0.0000,  0.0000,  1.5000)
  84 Ni    10.825927    3.561642    7.207521    ( 0.0000,  0.0000,  1.5000)
  85 Fe     0.036683    5.383229    8.996290    ( 0.0000,  0.0000,  2.0000)
  86 Co     1.771045    3.603614    9.016772    ( 0.0000,  0.0000,  2.1000)
  87 Cr     1.801688    5.346462    7.250477    ( 0.0000,  0.0000,  0.0000)
  88 Ni     3.593140    3.620104    7.230828    ( 0.0000,  0.0000,  1.5000)
  89 Fe     3.560106    5.392069    9.051960    ( 0.0000,  0.0000,  2.0000)
  90 Ni     5.376888    3.650369    8.987071    ( 0.0000,  0.0000,  1.5000)
  91 Co     5.354415    5.395294    7.215658    ( 0.0000,  0.0000,  2.1000)
  92 Al     7.221154    3.645446    7.099047    ( 0.0000,  0.0000,  0.0000)
  93 Cr     7.211124    5.388499    9.040144    ( 0.0000,  0.0000,  0.0000)
  94 Fe     9.094917    3.598193    8.980849    ( 0.0000,  0.0000,  2.0000)
  95 Cr     9.078145    5.402338    7.227690    ( 0.0000,  0.0000,  0.0000)
  96 Ni    10.763104    7.244386    7.259945    ( 0.0000,  0.0000,  1.5000)
  97 Fe    10.794980    9.034182    8.977451    ( 0.0000,  0.0000,  2.0000)
  98 Co     1.739893    7.178836    8.984333    ( 0.0000,  0.0000,  2.1000)
  99 Ni     1.734375    9.080039    7.236260    ( 0.0000,  0.0000,  1.5000)
 100 Cr     3.580243    7.153895    7.247772    ( 0.0000,  0.0000,  0.0000)
 101 Al     3.612574    8.970710    8.957618    ( 0.0000,  0.0000,  0.0000)
 102 Cr     5.410875    7.155821    9.066567    ( 0.0000,  0.0000,  0.0000)
 103 Co     5.466600    9.063906    7.220689    ( 0.0000,  0.0000,  2.1000)
 104 Al     7.307306    7.271328    7.289279    ( 0.0000,  0.0000,  0.0000)
 105 Ni     7.271058    9.044321    9.027647    ( 0.0000,  0.0000,  1.5000)
 106 Co     9.081510    7.219672    9.041075    ( 0.0000,  0.0000,  2.1000)
 107 Fe     9.063700    9.082733    7.213559    ( 0.0000,  0.0000,  2.0000)

Unit cell:
           periodic     x           y           z      points  spacing
  1. axis:    yes   10.820300    0.000000    0.000000    48     0.2254
  2. axis:    yes    0.000000   10.820300    0.000000    48     0.2254
  3. axis:    yes    0.000000    0.000000   10.820300    48     0.2254

  Lengths:  10.820300  10.820300  10.820300
  Angles:   90.000000  90.000000  90.000000

Effective grid spacing dv^(1/3) = 0.2254

     iter     time        total  log10-change:  magmom
                         energy  eigst   dens
iter:   1 00:09:41  -996.848426                  +129.0863
iter:   2 00:10:46  -888.900097  -0.19  -1.18    +70.8554
iter:   3 00:11:52  -876.060966  -0.82  -1.19    +61.2216
iter:   4 00:12:56  -851.791790  -1.23  -1.26    +57.0174
iter:   5 00:14:00  -843.648569  -1.55  -1.30    +54.8528
iter:   6 00:15:05  -844.609388  -1.33  -1.35    +55.5206
iter:   7 00:16:11  -834.914399  -1.30  -1.39    +54.2102
iter:   8 00:17:16  -828.008149  -1.64  -1.53    +54.0985
iter:   9 00:18:20  -827.452241  -1.86  -1.66    +55.6057
iter:  10 00:19:23  -825.000326  -2.41  -1.72    +56.4600
iter:  11 00:20:27  -825.454625  -2.49  -1.80    +59.0700
iter:  12 00:21:31  -827.064312  -2.41  -1.86    +60.4036
iter:  13 00:22:36  -826.484115  -2.43  -1.86    +61.1652
iter:  14 00:23:41  -826.756894  -2.49  -1.93    +62.4823
iter:  15 00:24:46  -826.578729  -2.66  -1.96    +62.9082
iter:  16 00:25:43  -826.209948  -2.90  -2.02    +63.0973
iter:  17 00:26:43  -826.744081  -2.94  -2.08    +64.0720
iter:  18 00:27:50  -826.209999  -3.06  -2.06    +64.0949
iter:  19 00:28:57  -826.318056  -3.03  -2.19    +64.2711
iter:  20 00:30:04  -826.506350  -3.00  -2.24    +64.4812
iter:  21 00:31:10  -826.241424  -3.21  -2.25    +64.7778
iter:  22 00:32:16  -826.303655  -3.36  -2.37    +64.9287
iter:  23 00:33:22  -826.235022c -3.52  -2.39    +65.0191
iter:  24 00:34:29  -826.277300c -3.63  -2.49    +65.1864
iter:  25 00:35:36  -826.326344c -3.68  -2.51    +65.2250
iter:  26 00:36:42  -826.346557c -3.81  -2.55    +65.3571
iter:  27 00:37:48  -826.356225c -3.96  -2.54    +65.3704
iter:  28 00:38:54  -826.396056c -3.93  -2.60    +65.2940
iter:  29 00:40:01  -826.418937c -4.19  -2.63    +65.3829
iter:  30 00:41:08  -826.452300c -4.04  -2.67    +65.3382
iter:  31 00:42:13  -826.478887c -4.10  -2.70    +65.3162
iter:  32 00:43:19  -826.498228c -4.28  -2.74    +65.4421
iter:  33 00:44:25  -826.510592c -4.23  -2.75    +65.4221
iter:  34 00:45:31  -826.527342c -4.43  -2.80    +65.3436
iter:  35 00:46:38  -826.552155c -4.38  -2.85    +65.4002
iter:  36 00:47:44  -826.561277c -4.50  -2.86    +65.3560
iter:  37 00:48:50  -826.587547c -4.42  -2.91    +65.2962
iter:  38 00:49:56  -826.600432c -4.44  -2.95    +65.3313
iter:  39 00:51:02  -826.606945c -4.62  -2.95    +65.2790
iter:  40 00:52:09  -826.617873c -4.56  -3.00    +65.2283
iter:  41 00:53:14  -826.625674c -4.83  -3.06    +65.2322
iter:  42 00:54:21  -826.633748c -4.77  -3.09    +65.2016
iter:  43 00:55:30  -826.651679c -4.61  -3.13    +65.1938
iter:  44 00:56:36  -826.660736c -4.59  -3.14    +65.1888
iter:  45 00:57:42  -826.662223c -4.95  -3.18    +65.1675
iter:  46 00:58:48  -826.665157c -5.11  -3.21    +65.1606
iter:  47 00:59:55  -826.670488c -5.10  -3.26    +65.1258
iter:  48 01:01:01  -826.668720c -5.16  -3.28    +65.1317
iter:  49 01:02:08  -826.671186c -5.31  -3.32    +65.1171
iter:  50 01:03:14  -826.672947c -5.37  -3.37    +65.1036
iter:  51 01:04:21  -826.673290c -5.58  -3.37    +65.0971
iter:  52 01:05:28  -826.674717c -5.53  -3.41    +65.0975
iter:  53 01:06:34  -826.676843c -5.45  -3.46    +65.0755
iter:  54 01:07:40  -826.677092c -5.66  -3.48    +65.0696
iter:  55 01:08:46  -826.678760c -5.73  -3.52    +65.0595
iter:  56 01:09:53  -826.680482c -5.64  -3.55    +65.0461
iter:  57 01:11:00  -826.681297c -5.74  -3.57    +65.0367
iter:  58 01:12:05  -826.682440c -5.66  -3.58    +65.0246
iter:  59 01:13:12  -826.683200c -5.79  -3.67    +65.0092
iter:  60 01:14:18  -826.684401c -5.93  -3.75    +64.9874
iter:  61 01:15:23  -826.685172c -6.12  -3.77    +64.9763
iter:  62 01:16:29  -826.687525c -5.66  -3.81    +64.9280
iter:  63 01:17:36  -826.687696c -6.08  -3.80    +64.9345
iter:  64 01:18:41  -826.688846c -5.92  -3.84    +64.9175
iter:  65 01:19:47  -826.689755c -6.04  -3.87    +64.8835
iter:  66 01:20:53  -826.691272c -5.79  -3.96    +64.8435
iter:  67 01:22:00  -826.692731c -5.87  -3.95    +64.8122
iter:  68 01:23:07  -826.695359c -5.53  -3.95    +64.7661
iter:  69 01:24:14  -826.701627c -4.82  -3.85    +64.6661
iter:  70 01:25:21  -826.705084c -4.93  -3.76    +64.5936
iter:  71 01:26:27  -826.708014c -5.01  -3.67    +64.5580
iter:  72 01:27:34  -826.711009c -5.25  -3.61    +64.5189
iter:  73 01:28:39  -826.710631c -6.00  -3.49    +64.5340
iter:  74 01:29:46  -826.711547c -5.59  -3.51    +64.5020
iter:  75 01:30:52  -826.713093c -5.31  -3.47    +64.4620
iter:  76 01:31:59  -826.711268c -5.33  -3.38    +64.4585
iter:  77 01:33:06  -826.717963c -4.68  -3.43    +64.4270
iter:  78 01:34:14  -826.707365c -5.20  -3.21    +64.4392
iter:  79 01:35:20  -826.713548c -4.97  -3.61    +64.4281
iter:  80 01:36:26  -826.706866c -5.32  -3.35    +64.4148
iter:  81 01:37:32  -826.706663c -5.61  -3.64    +64.3658
iter:  82 01:38:38  -826.706045c -5.93  -3.65    +64.3810
iter:  83 01:39:44  -826.707053c -5.92  -3.76    +64.3693
iter:  84 01:40:50  -826.706123c -6.16  -3.77    +64.3722
iter:  85 01:41:57  -826.706212c -6.20  -3.82    +64.3715
iter:  86 01:43:02  -826.706696c -6.10  -3.82    +64.3677
iter:  87 01:44:09  -826.706796c -6.13  -3.83    +64.3751
iter:  88 01:45:15  -826.706864c -6.11  -3.86    +64.3630
iter:  89 01:46:22  -826.706136c -6.27  -3.88    +64.3647
iter:  90 01:47:28  -826.706631c -6.30  -3.95    +64.3679
iter:  91 01:48:34  -826.706791c -6.57  -3.96    +64.3711
iter:  92 01:49:40  -826.706737c -6.77  -4.01c   +64.3775
iter:  93 01:50:46  -826.706809c -6.77  -4.07c   +64.3783
iter:  94 01:51:54  -826.706837c -7.15  -4.08c   +64.3799
iter:  95 01:52:59  -826.707067c -6.77  -4.09c   +64.3777
iter:  96 01:54:06  -826.706942c -6.54  -4.14c   +64.3814
iter:  97 01:55:12  -826.707017c -6.41  -4.06c   +64.3815
iter:  98 01:56:19  -826.707362c -6.52  -4.19c   +64.3794
iter:  99 01:57:25  -826.707365c -6.66  -4.26c   +64.3833
iter: 100 01:58:31  -826.707417c -6.71  -4.44c   +64.3827
iter: 101 01:59:37  -826.707331c -7.18  -4.36c   +64.3830
iter: 102 02:00:42  -826.707501c -6.89  -4.53c   +64.3806
iter: 103 02:01:48  -826.707434c -7.65c -4.55c   +64.3823

Converged after 103 iterations.

Dipole moment: (27.483002, -2.593591, -8.691238) |e|*Ang

Total magnetic moment: (0.000000, 0.000000, 64.382340)
Local magnetic moments:
   0 Fe ( 0.000000,  0.000000,  2.163280)
   1 Cr ( 0.000000,  0.000000,  1.395453)
   2 Ni ( 0.000000,  0.000000, -0.008694)
   3 Cr ( 0.000000,  0.000000, -1.885201)
   4 Al ( 0.000000,  0.000000, -0.013444)
   5 Fe ( 0.000000,  0.000000,  2.197052)
   6 Ni ( 0.000000,  0.000000,  0.174301)
   7 Al ( 0.000000,  0.000000, -0.017798)
   8 Al ( 0.000000,  0.000000, -0.014824)
   9 Co ( 0.000000,  0.000000,  1.418427)
  10 Ni ( 0.000000,  0.000000,  0.200901)
  11 Co ( 0.000000,  0.000000,  1.111276)
  12 Ni ( 0.000000,  0.000000,  0.247562)
  13 Cr ( 0.000000,  0.000000,  1.237755)
  14 Fe ( 0.000000,  0.000000,  1.472881)
  15 Cr ( 0.000000,  0.000000, -1.577719)
  16 Co ( 0.000000,  0.000000,  0.749497)
  17 Cr ( 0.000000,  0.000000,  0.396853)
  18 Co ( 0.000000,  0.000000,  1.065692)
  19 Fe ( 0.000000,  0.000000,  1.830926)
  20 Cr ( 0.000000,  0.000000, -1.985790)
  21 Fe ( 0.000000,  0.000000,  2.342243)
  22 Co ( 0.000000,  0.000000,  1.045812)
  23 Al ( 0.000000,  0.000000, -0.028548)
  24 Ni ( 0.000000,  0.000000,  0.196098)
  25 Cr ( 0.000000,  0.000000,  0.361636)
  26 Cr ( 0.000000,  0.000000, -0.470101)
  27 Al ( 0.000000,  0.000000, -0.017804)
  28 Cr ( 0.000000,  0.000000, -0.585209)
  29 Cr ( 0.000000,  0.000000, -1.839650)
  30 Fe ( 0.000000,  0.000000,  1.732817)
  31 Fe ( 0.000000,  0.000000,  1.595908)
  32 Ni ( 0.000000,  0.000000,  0.259456)
  33 Cr ( 0.000000,  0.000000,  1.555776)
  34 Co ( 0.000000,  0.000000,  0.899316)
  35 Ni ( 0.000000,  0.000000,  0.340308)
  36 Ni ( 0.000000,  0.000000,  0.173046)
  37 Co ( 0.000000,  0.000000,  1.559734)
  38 Co ( 0.000000,  0.000000,  1.257751)
  39 Cr ( 0.000000,  0.000000, -1.888875)
  40 Fe ( 0.000000,  0.000000,  2.186283)
  41 Al ( 0.000000,  0.000000, -0.039371)
  42 Fe ( 0.000000,  0.000000,  2.242663)
  43 Ni ( 0.000000,  0.000000,  0.394572)
  44 Cr ( 0.000000,  0.000000, -1.690831)
  45 Co ( 0.000000,  0.000000,  1.496047)
  46 Co ( 0.000000,  0.000000,  1.299128)
  47 Ni ( 0.000000,  0.000000,  0.419913)
  48 Ni ( 0.000000,  0.000000,  0.292944)
  49 Cr ( 0.000000,  0.000000,  1.528377)
  50 Co ( 0.000000,  0.000000,  0.978631)
  51 Al ( 0.000000,  0.000000, -0.027348)
  52 Al ( 0.000000,  0.000000, -0.039416)
  53 Fe ( 0.000000,  0.000000,  2.068858)
  54 Fe ( 0.000000,  0.000000,  2.383669)
  55 Fe ( 0.000000,  0.000000,  2.212555)
  56 Ni ( 0.000000,  0.000000,  0.550609)
  57 Ni ( 0.000000,  0.000000,  0.179890)
  58 Co ( 0.000000,  0.000000,  1.209444)
  59 Co ( 0.000000,  0.000000,  0.853169)
  60 Fe ( 0.000000,  0.000000,  1.396478)
  61 Co ( 0.000000,  0.000000,  1.232960)
  62 Al ( 0.000000,  0.000000, -0.014955)
  63 Ni ( 0.000000,  0.000000, -0.010737)
  64 Al ( 0.000000,  0.000000, -0.012556)
  65 Cr ( 0.000000,  0.000000, -1.931100)
  66 Al ( 0.000000,  0.000000, -0.022967)
  67 Ni ( 0.000000,  0.000000,  0.062844)
  68 Al ( 0.000000,  0.000000, -0.033631)
  69 Fe ( 0.000000,  0.000000,  2.017661)
  70 Cr ( 0.000000,  0.000000, -0.860057)
  71 Cr ( 0.000000,  0.000000, -1.050178)
  72 Fe ( 0.000000,  0.000000,  2.451485)
  73 Co ( 0.000000,  0.000000,  1.503473)
  74 Co ( 0.000000,  0.000000,  1.073127)
  75 Co ( 0.000000,  0.000000,  1.579477)
  76 Fe ( 0.000000,  0.000000,  2.284090)
  77 Fe ( 0.000000,  0.000000,  2.361766)
  78 Cr ( 0.000000,  0.000000, -1.977579)
  79 Fe ( 0.000000,  0.000000,  2.283444)
  80 Co ( 0.000000,  0.000000,  1.309264)
  81 Al ( 0.000000,  0.000000, -0.018229)
  82 Ni ( 0.000000,  0.000000,  0.403801)
  83 Ni ( 0.000000,  0.000000,  0.508850)
  84 Ni ( 0.000000,  0.000000,  0.369791)
  85 Fe ( 0.000000,  0.000000,  2.190446)
  86 Co ( 0.000000,  0.000000,  1.216474)
  87 Cr ( 0.000000,  0.000000, -1.777081)
  88 Ni ( 0.000000,  0.000000,  0.434639)
  89 Fe ( 0.000000,  0.000000,  2.117571)
  90 Ni ( 0.000000,  0.000000,  0.194884)
  91 Co ( 0.000000,  0.000000,  0.837222)
  92 Al ( 0.000000,  0.000000, -0.041949)
  93 Cr ( 0.000000,  0.000000,  1.695128)
  94 Fe ( 0.000000,  0.000000,  2.121819)
  95 Cr ( 0.000000,  0.000000, -1.435836)
  96 Ni ( 0.000000,  0.000000,  0.225229)
  97 Fe ( 0.000000,  0.000000,  2.425047)
  98 Co ( 0.000000,  0.000000,  0.517039)
  99 Ni ( 0.000000,  0.000000,  0.380077)
 100 Cr ( 0.000000,  0.000000,  1.532492)
 101 Al ( 0.000000,  0.000000, -0.009875)
 102 Cr ( 0.000000,  0.000000, -1.482299)
 103 Co ( 0.000000,  0.000000,  0.769154)
 104 Al ( 0.000000,  0.000000, -0.019932)
 105 Ni ( 0.000000,  0.000000,  0.277104)
 106 Co ( 0.000000,  0.000000,  1.111832)
 107 Fe ( 0.000000,  0.000000,  2.194103)

Energy contributions relative to reference atoms: (reference = -3382523.201499)

Kinetic:       +216.913178
Potential:     -227.262180
External:        +0.000000
XC:            -847.589340
Entropy (-ST):   -4.178717
Local:          +33.320266
--------------------------
Free energy:   -828.796793
Extrapolated:  -826.707434

Spin contamination: 27.628371 electrons
Showing only first 2 kpts
                      Up                     Down
 Kpt  Band  Eigenvalues  Occupancy  Eigenvalues  Occupancy
  0   470      9.12223    0.99655     10.07976    0.01963
  0   471      9.12869    0.99632     10.09481    0.01693
  0   472      9.13844    0.99594     10.10556    0.01524
  0   473      9.15168    0.99537     10.11446    0.01396

  1   470      9.12142    0.99657     10.08480    0.01869
  1   471      9.13955    0.99589     10.09605    0.01673
  1   472      9.16011    0.99496     10.09773    0.01646
  1   473      9.17332    0.99426     10.12374    0.01274


Fermi level: 9.68868

No gap

Forces in eV/Ang:
  0 Fe   -0.02747    0.13162   -0.16576
  1 Cr    0.05212    0.21015    0.01871
  2 Ni    0.12159   -0.35434   -0.39205
  3 Cr   -0.18308    0.40252    0.19305
  4 Al    0.10160   -0.16732   -0.19613
  5 Fe   -0.27108    0.34290    0.01463
  6 Ni    0.01202    0.40527   -0.42573
  7 Al   -0.43868   -0.15356    0.12963
  8 Al    0.29003    0.65366   -0.38744
  9 Co    0.09561    0.25585   -0.15835
 10 Ni   -0.14638   -0.06233   -0.26518
 11 Co   -0.17438    0.00947   -0.00283
 12 Ni   -0.08861    0.13399    0.05192
 13 Cr    0.04678   -0.07034    0.18994
 14 Fe    0.51729    0.09008   -0.04484
 15 Cr   -0.20217   -0.32350   -0.21564
 16 Co   -0.15112    0.25969    0.09902
 17 Cr   -0.28721    0.23869   -0.76493
 18 Co    0.01535   -0.28622    0.11307
 19 Fe   -0.36663   -0.06428    0.32237
 20 Cr    0.29054    0.43206    0.06331
 21 Fe    0.00586   -0.14995   -0.01545
 22 Co   -0.10184   -0.16260   -0.11865
 23 Al    0.26104    0.67700   -0.10998
 24 Ni    0.02443   -0.08878    0.06008
 25 Cr   -0.44576   -0.35776    0.29701
 26 Cr   -0.20945    0.09112    0.11588
 27 Al    0.22583    0.27255   -0.53146
 28 Cr   -0.16001   -0.15486    0.44370
 29 Cr    0.24170   -0.01487    0.16633
 30 Fe   -0.37059    0.18463   -0.02832
 31 Fe   -0.32728    0.02462   -0.07444
 32 Ni    0.14143    0.05749   -0.18188
 33 Cr    0.08943   -0.20299    0.31425
 34 Co    0.28171    0.28389    0.13333
 35 Ni   -0.13311    0.01041    0.29503
 36 Ni   -0.10932    0.03836   -0.03483
 37 Co    0.20330    0.36093   -0.07621
 38 Co    0.12636   -0.10706   -0.07224
 39 Cr   -0.41623    0.18364   -0.42823
 40 Fe   -0.01604   -0.23539   -0.30514
 41 Al   -0.14043    0.45398    0.05456
 42 Fe    0.17279   -0.14299   -0.00963
 43 Ni   -0.21011    0.28392   -0.01256
 44 Cr   -0.11817    0.10351    0.04408
 45 Co   -0.21385    0.00928    0.18581
 46 Co   -0.16612   -0.07752   -0.26836
 47 Ni   -0.13705   -0.13654    0.06786
 48 Ni    0.32883    0.19650    0.01754
 49 Cr   -0.72937   -0.31888    0.32277
 50 Co    0.27430   -0.13889   -0.17554
 51 Al    0.56044   -0.55479    0.28193
 52 Al    0.01113   -0.15663    0.32783
 53 Fe   -0.00223   -0.03612   -0.44079
 54 Fe    0.13306    0.18241    0.06679
 55 Fe   -0.24473   -0.21760   -0.15555
 56 Ni    0.03444   -0.20949   -0.09408
 57 Ni   -0.00400    0.39990    0.16503
 58 Co    0.05059    0.19943    0.04875
 59 Co    0.03877    0.00573    0.16401
 60 Fe   -0.13023   -0.13388   -0.14813
 61 Co   -0.30245   -0.03626   -0.12823
 62 Al   -0.30466    0.42697   -0.18533
 63 Ni    0.31090   -0.31313    0.11081
 64 Al    0.31826   -0.22875    0.67620
 65 Cr   -0.02052    0.66953    0.38420
 66 Al    0.43616   -0.19155    0.00563
 67 Ni   -0.06770   -0.56271    0.19981
 68 Al   -0.23585   -0.34822    0.38443
 69 Fe    0.05665    0.07226    0.06757
 70 Cr    0.51549   -0.12582    0.03441
 71 Cr    0.70962    0.11076   -0.27449
 72 Fe    0.30331    0.37601   -0.07901
 73 Co    0.12473   -0.01539    0.18629
 74 Co    0.25931   -0.13173    0.26615
 75 Co   -0.05706    0.17730    0.00780
 76 Fe   -0.22720   -0.48168    0.15771
 77 Fe   -0.03163   -0.12505    0.00807
 78 Cr    0.26048   -0.22642   -0.23580
 79 Fe    0.12968   -0.02055    0.07999
 80 Co   -0.08692   -0.07919    0.04183
 81 Al    0.30900   -0.04744    0.03285
 82 Ni   -0.30163    0.31447    0.19666
 83 Ni   -0.47248    0.18486    0.19469
 84 Ni    0.03747   -0.06023   -0.11246
 85 Fe    0.03177    0.22653   -0.32770
 86 Co    0.01223   -0.20228    0.02157
 87 Cr   -0.28303    0.02448    0.20533
 88 Ni    0.03477   -0.08619   -0.13015
 89 Fe    0.11238   -0.41046    0.25098
 90 Ni    0.28753   -0.37200    0.05671
 91 Co   -0.07867   -0.01572   -0.18596
 92 Al   -0.10567   -0.07705   -0.02958
 93 Cr   -0.19861    0.12291   -0.28824
 94 Fe    0.07229   -0.47644   -0.09835
 95 Cr    0.63105    0.02422    0.02944
 96 Ni    0.18358   -0.19611   -0.05272
 97 Fe    0.11350   -0.24523    0.00705
 98 Co    0.27844    0.02509    0.28610
 99 Ni    0.41294   -0.27190    0.04558
100 Cr    0.04473    0.06539   -0.02475
101 Al   -0.60309    0.13395   -0.02494
102 Cr    0.34006    0.15610    0.11826
103 Co    0.05653   -0.00674    0.07193
104 Al   -0.50298   -0.02972   -0.10865
105 Ni   -0.19411   -0.06730   -0.05696
106 Co   -0.28393    0.01389   -0.06705
107 Fe   -0.05137   -0.18467   -0.18651

Timing:                              incl.     excl.
-----------------------------------------------------------
Forces:                             16.798    16.798   0.2% |
Hamiltonian:                         0.978     0.004   0.0% |
 Atomic:                             0.233     0.140   0.0% |
  XC Correction:                     0.093     0.093   0.0% |
 Calculate atomic Hamiltonians:      0.635     0.635   0.0% |
 Communicate:                        0.000     0.000   0.0% |
 Initialize Hamiltonian:             0.000     0.000   0.0% |
 Poisson:                            0.000     0.000   0.0% |
 XC 3D grid:                         0.106     0.106   0.0% |
LCAO initialization:                66.329     1.155   0.0% |
 LCAO eigensolver:                   7.983     0.020   0.0% |
  Calculate projections:             0.226     0.226   0.0% |
  DenseAtomicCorrection:             0.149     0.149   0.0% |
  Distribute overlap matrix:         0.952     0.952   0.0% |
  Orbital Layouts:                   3.412     3.412   0.0% |
  Potential matrix:                  1.922     1.922   0.0% |
  Sum over cells:                    1.302     1.302   0.0% |
 LCAO to grid:                      55.201    55.201   0.8% |
 Set positions (LCAO WFS):           1.989     1.170   0.0% |
  Basic WFS set positions:           0.004     0.004   0.0% |
  Basis functions set positions:     0.001     0.001   0.0% |
  P tci:                             0.228     0.228   0.0% |
  ST tci:                            0.215     0.215   0.0% |
  mktci:                             0.372     0.372   0.0% |
PWDescriptor:                        0.067     0.067   0.0% |
SCF-cycle:                        6800.275    66.217   1.0% |
 Davidson:                        6512.553  1553.592  22.6% |--------|
  Apply H:                          60.203    56.476   0.8% |
   HMM T:                            3.727     3.727   0.1% |
  Subspace diag:                   521.762     0.079   0.0% |
   calc_h_matrix:                  202.788   144.572   2.1% ||
    Apply H:                        58.216    56.437   0.8% |
     HMM T:                          1.779     1.779   0.0% |
   diagonalize:                     89.325    89.325   1.3% ||
   rotate_psi:                     229.570   229.570   3.3% ||
  calc. matrices:                 1176.921  1072.752  15.6% |-----|
   Apply H:                        104.169    96.069   1.4% ||
    HMM T:                           8.100     8.100   0.1% |
  diagonalize:                    2708.788  2708.788  39.3% |---------------|
  rotate_psi:                      491.288   491.288   7.1% |--|
 Density:                          106.828     0.004   0.0% |
  Atomic density matrices:           1.864     1.864   0.0% |
  Mix:                              82.440    82.440   1.2% |
  Multipole moments:                 0.086     0.086   0.0% |
  Pseudo density:                   22.434    22.428   0.3% |
   Symmetrize density:               0.006     0.006   0.0% |
 Hamiltonian:                      108.301     0.679   0.0% |
  Atomic:                           21.442    12.023   0.2% |
   XC Correction:                    9.419     9.419   0.1% |
  Calculate atomic Hamiltonians:    73.207    73.207   1.1% |
  Communicate:                       0.658     0.658   0.0% |
  Poisson:                           0.051     0.051   0.0% |
  XC 3D grid:                       12.264    12.264   0.2% |
 Orthonormalize:                     6.375     0.002   0.0% |
  calc_s_matrix:                     0.870     0.870   0.0% |
  inverse-cholesky:                  0.695     0.695   0.0% |
  projections:                       3.742     3.742   0.1% |
  rotate_psi_s:                      1.066     1.066   0.0% |
Set symmetry:                        0.001     0.001   0.0% |
Other:                               4.273     4.273   0.1% |
-----------------------------------------------------------
Total:                                      6888.721 100.0%

Date: Sat Apr  8 02:02:06 2023
