
  ___ ___ ___ _ _ _  
 |   |   |_  | | | | 
 | | | | | . | | | | 
 |__ |  _|___|_____|  22.8.0
 |___|_|             

User:   c.zeng@d0137
Date:   Sat Apr  8 16:49:29 2023
Arch:   x86_64
Pid:    116110
CWD:    /home/c.zeng/projects/hea-corrosion/hea-mlp/data-curation/volume/dft-jobs/94
Python: 3.8.1
gpaw:   /home/c.zeng/usr/installs/gpaw/source/gpaw-22.8.0/gpaw
_gpaw:  /home/c.zeng/usr/installs/gpaw/source/gpaw-22.8.0/
        _gpaw.cpython-38-x86_64-linux-gnu.so
ase:    /home/c.zeng/.local/lib/python3.8/site-packages/ase-3.22.1-py3.8.egg/ase (version 3.22.1)
numpy:  /shared/centos7/python/3.8.1/lib/python3.8/site-packages/numpy (version 1.17.4)
scipy:  /shared/centos7/python/3.8.1/lib/python3.8/site-packages/scipy (version 1.4.1)
libxc:  4.2.3
units:  Angstrom and eV
cores: 64
OpenMP: False
OMP_NUM_THREADS: 1

Input parameters:
  convergence: {energy: 0.0001}
  kpts: [2 2 2]
  maxiter: 666
  mode: {ecut: 350.0,
         name: pw}
  occupations: {fixmagmom: False,
                name: fermi-dirac,
                width: 0.1}
  spinpol: True
  xc: PBE

System changes: positions, numbers, cell, pbc, initial_charges, initial_magmoms 

Initialize ...

species:
  Fe:
    name: Iron
    id: 37abbd8d6c3c35915a9b583b742da910
    Z: 26.0
    valence: 8
    core: 18
    charge: 0.0
    file: /home/c.zeng/usr/data/gpaw-setups-0.9.20000/Fe.PBE.gz
    compensation charges: {type: gauss,
                           rc: 0.33,
                           lmax: 2}
    cutoffs: {filter: 2.06,
              core: 2.67}
    valence states:
      #              energy  rcut
      - 4s(2.00)    -5.291   1.164
      - 4p(0.00)    -1.326   1.058
      - 3d(6.00)    -7.505   1.058
      -  s          21.920   1.164
      -  p          25.885   1.058
      -  d          19.706   1.058
  
    # Using partial waves for Fe as LCAO basis

  Cr:
    name: Chromium
    id: 33f258bda2ca9f93018e70263a35547b
    Z: 24.0
    valence: 6
    core: 18
    charge: 0.0
    file: /home/c.zeng/usr/data/gpaw-setups-0.9.20000/Cr.PBE.gz
    compensation charges: {type: gauss,
                           rc: 0.35,
                           lmax: 2}
    cutoffs: {filter: 2.14,
              core: 3.04}
    valence states:
      #              energy  rcut
      - 4s(1.00)    -4.007   1.164
      - 4p(0.00)    -0.989   1.217
      - 3d(5.00)    -2.913   1.111
      -  s          23.205   1.164
      -  p          26.223   1.217
      -  d          24.299   1.111
  
    # Using partial waves for Cr as LCAO basis

  Ni:
    name: Nickel
    id: 0d9f38a9d6e76a2886f07bb4381f212b
    Z: 28.0
    valence: 16
    core: 12
    charge: 0.0
    file: /home/c.zeng/usr/data/gpaw-setups-0.9.20000/Ni.PBE.gz
    compensation charges: {type: gauss,
                           rc: 0.36,
                           lmax: 2}
    cutoffs: {filter: 2.14,
              core: 1.98}
    valence states:
      #              energy  rcut
      - 4s(2.00)    -5.642   1.164
      - 3p(6.00)   -71.394   1.207
      - 4p(0.00)    -1.226   1.207
      - 3d(8.00)    -8.875   1.138
      -  s          21.570   1.164
      -  d          18.337   1.138
  
    # Using partial waves for Ni as LCAO basis

  Al:
    name: Aluminium
    id: 0292cae29f5d6237e50f6abdd43a7bdd
    Z: 13.0
    valence: 3
    core: 10
    charge: 0.0
    file: /home/c.zeng/usr/data/gpaw-setups-0.9.20000/Al.PBE.gz
    compensation charges: {type: gauss,
                           rc: 0.34,
                           lmax: 2}
    cutoffs: {filter: 1.91,
              core: 2.36}
    valence states:
      #              energy  rcut
      - 3s(2.00)    -7.753   1.085
      - 3p(1.00)    -2.712   1.085
      -  s          19.459   1.085
      -  p          24.499   1.085
      -  d           0.000   1.085
  
    # Using partial waves for Al as LCAO basis

  Co:
    name: Cobalt
    id: 339d20d5b0b93d2de9531a1bee871d91
    Z: 27.0
    valence: 9
    core: 18
    charge: 0.0
    file: /home/c.zeng/usr/data/gpaw-setups-0.9.20000/Co.PBE.gz
    compensation charges: {type: gauss,
                           rc: 0.32,
                           lmax: 2}
    cutoffs: {filter: 1.87,
              core: 2.55}
    valence states:
      #              energy  rcut
      - 4s(2.00)    -5.469   1.005
      - 4p(0.00)    -1.277   1.058
      - 3d(7.00)    -8.205   1.005
      -  s          21.742   1.005
      -  p          25.934   1.058
      -  d          19.007   1.005
  
    # Using partial waves for Co as LCAO basis

Reference energy: -3382523.201499  # eV

Spin-polarized calculation.
Magnetic moment: 128.800000

Convergence criteria:
 Maximum [total energy] change in last 3 cyles: 0.0001 eV / electron
 Maximum integral of absolute [dens]ity change: 0.0001 electrons / valence electron
 Maximum integral of absolute [eigenst]ate change: 4e-08 eV^2 / valence electron
 Maximum number of scf [iter]ations: 666
 (Square brackets indicate name in SCF output, whereas a 'c' in
 the SCF output indicates the quantity has converged.)

Symmetries present (total): 1

  ( 1  0  0)
  ( 0  1  0)
  ( 0  0  1)

8 k-points: 2 x 2 x 2 Monkhorst-Pack grid
4 k-points in the irreducible part of the Brillouin zone
       k-points in crystal coordinates                weights
   0:     0.25000000   -0.25000000   -0.25000000          2/8
   1:     0.25000000   -0.25000000    0.25000000          2/8
   2:     0.25000000    0.25000000   -0.25000000          2/8
   3:     0.25000000    0.25000000    0.25000000          2/8

Wave functions: Plane wave expansion
  Cutoff energy: 350.000 eV
  Number of coefficients (min, max): 21428, 21428
  Pulay-stress correction: 0.000000 eV/Ang^3 (de/decut=0.000000)
  Using FFTW library
  ScaLapack parameters: grid=1x1, blocksize=None
  Wavefunction extrapolation:
    Improved wavefunction reuse through dual PAW basis 

Occupation numbers: Fermi-Dirac:
  width: 0.1000  # eV
 

Eigensolver
   Davidson(niter=2) 

Densities:
  Coarse grid: 49*49*49 grid
  Fine grid: 98*98*98 grid
  Total Charge: 0.000000 

Density mixing:
  Method: difference
  Backend: pulay
  Linear mixing parameter: 0.05
  old densities: 5
  Damping of long wavelength oscillations: 50 

Hamiltonian:
  XC and Coulomb potentials evaluated on a 98*98*98 grid
  Using the PBE Exchange-Correlation functional
  External potential:
    NoExternalPotential
 

XC parameters: PBE with 2 nearest neighbor stencil

Memory estimate:
  Process memory now: 178.86 MiB
  Calculator: 717.14 MiB
    Density: 5.75 MiB
      Arrays: 2.02 MiB
      Localized functions: 2.86 MiB
      Mixer: 0.87 MiB
    Hamiltonian: 1.59 MiB
      Arrays: 1.50 MiB
      XC: 0.00 MiB
      Poisson: 0.00 MiB
      vbar: 0.09 MiB
    Wavefunctions: 709.81 MiB
      Arrays psit_nG: 424.40 MiB
      Eigensolver: 278.13 MiB
      Projections: 2.31 MiB
      Projectors: 0.39 MiB
      PW-descriptor: 4.59 MiB

Total number of cores used: 64
Parallelization over k-points: 4
Domain decomposition: 4 x 2 x 2

Number of atoms: 108
Number of atomic orbitals: 961
Number of bands in calculation: 649
Number of valence electrons: 945
Bands to converge: occupied

... initialized

Initializing position-dependent things.

Density initialized from atomic densities
Creating initial wave functions:
  649 bands from LCAO basis set

        .---------------------------Fe 
       /|                     Ni    |  
      / |             Cr       Ni Ni|  
     /  |                           |  
    /   |Cr     Al        NiAl     Fe  
   /i   FeCo        Cr     CoCo     |  
  /  Fe |  Ni Fe     CoCr     Fe    |  
 *      Co   CoCrNi   FeAl Fe     Ni|  
 |      |Cr Fe  CrCo Al   FeCrCo   Co  
 |    CoNiAl Ni     AlAl     CrNi   |  
 |     Co  Ni        Ni       Cr    |  
 |      |     FeFe     Ni Ni    Cr  |  
 |      CoFe   AlFe   NiAl Co     Fe|  
 |      |Al Al  Cr FeCo  Cr CoCo   Cr  
 |      .-Cr-Al-----FeNiCo-AlCoNi---.  
 |     Cr  Al CrNi   FeFe Ni    Cr /   
 |    / FeFe   CrCo Cr  Ni Co     /    
 |   /     Fe      FeCo          /     
 |  /                         Cr/      
 | /  Ni     Co       CrNi     /       
 |/    Cr       Al        Co  /        
 *--------Al-----------------*         

Positions:
   0 Fe    11.299489   11.299489   11.299489    ( 0.0000,  0.0000,  2.0000)
   1 Cr    11.299489    1.883254    1.883242    ( 0.0000,  0.0000,  0.0000)
   2 Ni     1.883254    0.000024    1.883276    ( 0.0000,  0.0000,  1.5000)
   3 Cr     1.883242    1.883265   11.299500    ( 0.0000,  0.0000,  0.0000)
   4 Al     3.766496    0.000066    0.000060    ( 0.0000,  0.0000,  0.0000)
   5 Fe     3.766496    1.883254    1.883265    ( 0.0000,  0.0000,  2.0000)
   6 Ni     5.649727   11.299489    1.883299    ( 0.0000,  0.0000,  1.5000)
   7 Al     5.649671    1.883355    0.000058    ( 0.0000,  0.0000,  0.0000)
   8 Al     7.533072   11.299387    0.000054    ( 0.0000,  0.0000,  0.0000)
   9 Co     7.533015    1.883265    1.883276    ( 0.0000,  0.0000,  2.1000)
  10 Ni     9.416280    0.000017    1.883242    ( 0.0000,  0.0000,  1.5000)
  11 Co     9.416280    1.883254    0.000007    ( 0.0000,  0.0000,  2.1000)
  12 Ni     0.000003    3.766485   11.299477    ( 0.0000,  0.0000,  1.5000)
  13 Cr    11.299477    5.649750    1.883265    ( 0.0000,  0.0000,  0.0000)
  14 Fe     1.883254    3.766485    1.883242    ( 0.0000,  0.0000,  2.0000)
  15 Cr     1.883254    5.649727   11.299466    ( 0.0000,  0.0000,  0.0000)
  16 Co     3.766496    3.766508   11.299500    ( 0.0000,  0.0000,  2.1000)
  17 Cr     3.766564    5.649727    1.883209    ( 0.0000,  0.0000,  0.0000)
  18 Co     5.649761    3.766530    1.883254    ( 0.0000,  0.0000,  2.1000)
  19 Fe     5.649761    5.649761    0.000017    ( 0.0000,  0.0000,  2.0000)
  20 Cr     7.533004    3.766530    0.000043    ( 0.0000,  0.0000,  0.0000)
  21 Fe     7.532970    5.649750    1.883254    ( 0.0000,  0.0000,  2.0000)
  22 Co     9.416246    3.766496    1.883265    ( 0.0000,  0.0000,  2.1000)
  23 Al     9.416235    5.649750   11.299489    ( 0.0000,  0.0000,  0.0000)
  24 Ni    11.299489    7.533015   11.299466    ( 0.0000,  0.0000,  1.5000)
  25 Cr    11.299477    9.416258    1.883265    ( 0.0000,  0.0000,  0.0000)
  26 Cr     1.883209    7.533004    1.883254    ( 0.0000,  0.0000,  0.0000)
  27 Al     1.883129    9.416235    0.000012    ( 0.0000,  0.0000,  0.0000)
  28 Cr     3.766553    7.532959    0.000005    ( 0.0000,  0.0000,  0.0000)
  29 Cr     3.766553    9.416269    1.883276    ( 0.0000,  0.0000,  0.0000)
  30 Fe     5.649773    7.532981    1.883242    ( 0.0000,  0.0000,  2.0000)
  31 Fe     5.649761    9.416224    0.000019    ( 0.0000,  0.0000,  2.0000)
  32 Ni     7.532970    7.533004    0.000032    ( 0.0000,  0.0000,  1.5000)
  33 Cr     7.532970    9.416224    1.883231    ( 0.0000,  0.0000,  0.0000)
  34 Co     9.416258    7.532992    1.883254    ( 0.0000,  0.0000,  2.1000)
  35 Ni     9.416280    9.416246   11.299477    ( 0.0000,  0.0000,  1.5000)
  36 Ni     0.000008   11.299489    3.766519    ( 0.0000,  0.0000,  1.5000)
  37 Co    11.299489    1.883242    5.649761    ( 0.0000,  0.0000,  2.1000)
  38 Co     1.883231   11.299489    5.649761    ( 0.0000,  0.0000,  2.1000)
  39 Cr     1.883231    1.883220    3.766474    ( 0.0000,  0.0000,  0.0000)
  40 Fe     3.766508    0.000001    3.766485    ( 0.0000,  0.0000,  2.0000)
  41 Al     3.766541    1.883186    5.649818    ( 0.0000,  0.0000,  0.0000)
  42 Fe     5.649750   11.299489    5.649750    ( 0.0000,  0.0000,  2.0000)
  43 Ni     5.649761    1.883231    3.766496    ( 0.0000,  0.0000,  1.5000)
  44 Cr     7.532981    0.000003    3.766530    ( 0.0000,  0.0000,  0.0000)
  45 Co     7.532981    1.883231    5.649750    ( 0.0000,  0.0000,  2.1000)
  46 Co     9.416258   11.299500    5.649761    ( 0.0000,  0.0000,  2.1000)
  47 Ni     9.416258    1.883265    3.766508    ( 0.0000,  0.0000,  1.5000)
  48 Ni    11.299477    3.766496    3.766496    ( 0.0000,  0.0000,  1.5000)
  49 Cr    11.299466    5.649727    5.649750    ( 0.0000,  0.0000,  0.0000)
  50 Co     1.883231    3.766496    5.649773    ( 0.0000,  0.0000,  2.1000)
  51 Al     1.883163    5.649705    3.766474    ( 0.0000,  0.0000,  0.0000)
  52 Al     3.766564    3.766508    3.766440    ( 0.0000,  0.0000,  0.0000)
  53 Fe     3.766530    5.649716    5.649761    ( 0.0000,  0.0000,  2.0000)
  54 Fe     5.649761    3.766519    5.649750    ( 0.0000,  0.0000,  2.0000)
  55 Fe     5.649761    5.649739    3.766485    ( 0.0000,  0.0000,  2.0000)
  56 Ni     7.532992    3.766519    3.766496    ( 0.0000,  0.0000,  1.5000)
  57 Ni     7.532981    5.649705    5.649716    ( 0.0000,  0.0000,  1.5000)
  58 Co     9.416258    3.766485    5.649727    ( 0.0000,  0.0000,  2.1000)
  59 Co     9.416258    5.649739    3.766474    ( 0.0000,  0.0000,  2.1000)
  60 Fe    11.299489    7.533015    3.766496    ( 0.0000,  0.0000,  2.0000)
  61 Co    11.299477    9.416280    5.649761    ( 0.0000,  0.0000,  2.1000)
  62 Al     1.883163    7.533049    5.649818    ( 0.0000,  0.0000,  0.0000)
  63 Ni     1.883220    9.416280    3.766508    ( 0.0000,  0.0000,  1.5000)
  64 Al     3.766553    7.533049    3.766395    ( 0.0000,  0.0000,  0.0000)
  65 Cr     3.766519    9.416337    5.649761    ( 0.0000,  0.0000,  0.0000)
  66 Al     5.649716    7.532959    5.649761    ( 0.0000,  0.0000,  0.0000)
  67 Ni     5.649750    9.416280    3.766496    ( 0.0000,  0.0000,  1.5000)
  68 Al     7.533038    7.532959    3.766406    ( 0.0000,  0.0000,  0.0000)
  69 Fe     7.533004    9.416291    5.649773    ( 0.0000,  0.0000,  2.0000)
  70 Cr     9.416291    7.533026    5.649739    ( 0.0000,  0.0000,  0.0000)
  71 Cr     9.416280    9.416258    3.766519    ( 0.0000,  0.0000,  0.0000)
  72 Fe    11.299500   11.299477    7.533004    ( 0.0000,  0.0000,  2.0000)
  73 Co    11.299489    1.883254    9.416246    ( 0.0000,  0.0000,  2.1000)
  74 Co     1.883209    0.000020    9.416212    ( 0.0000,  0.0000,  2.1000)
  75 Co     1.883242    1.883231    7.533026    ( 0.0000,  0.0000,  2.1000)
  76 Fe     3.766508    0.000021    7.533004    ( 0.0000,  0.0000,  2.0000)
  77 Fe     3.766496    1.883265    9.416212    ( 0.0000,  0.0000,  2.0000)
  78 Cr     5.649727   11.299489    9.416167    ( 0.0000,  0.0000,  0.0000)
  79 Fe     5.649727    1.883231    7.532992    ( 0.0000,  0.0000,  2.0000)
  80 Co     7.533004   11.299477    7.532959    ( 0.0000,  0.0000,  2.1000)
  81 Al     7.533060    1.883265    9.416190    ( 0.0000,  0.0000,  0.0000)
  82 Ni     9.416325   11.299477    9.416235    ( 0.0000,  0.0000,  1.5000)
  83 Ni     9.416280    1.883231    7.532992    ( 0.0000,  0.0000,  1.5000)
  84 Ni    11.299489    3.766485    7.533026    ( 0.0000,  0.0000,  1.5000)
  85 Fe     0.000007    5.649750    9.416246    ( 0.0000,  0.0000,  2.0000)
  86 Co     1.883242    3.766508    9.416246    ( 0.0000,  0.0000,  2.1000)
  87 Cr     1.883265    5.649727    7.533038    ( 0.0000,  0.0000,  0.0000)
  88 Ni     3.766519    3.766508    7.533026    ( 0.0000,  0.0000,  1.5000)
  89 Fe     3.766496    5.649739    9.416258    ( 0.0000,  0.0000,  2.0000)
  90 Ni     5.649682    3.766541    9.416246    ( 0.0000,  0.0000,  1.5000)
  91 Co     5.649716    5.649716    7.533004    ( 0.0000,  0.0000,  2.1000)
  92 Al     7.532970    3.766508    7.532936    ( 0.0000,  0.0000,  0.0000)
  93 Cr     7.532981    5.649750    9.416280    ( 0.0000,  0.0000,  0.0000)
  94 Fe     9.416303    3.766508    9.416246    ( 0.0000,  0.0000,  2.0000)
  95 Cr     9.416291    5.649739    7.533026    ( 0.0000,  0.0000,  0.0000)
  96 Ni    11.299477    7.533038    7.533049    ( 0.0000,  0.0000,  1.5000)
  97 Fe    11.299489    9.416258    9.416235    ( 0.0000,  0.0000,  2.0000)
  98 Co     1.883209    7.532970    9.416235    ( 0.0000,  0.0000,  2.1000)
  99 Ni     1.883209    9.416291    7.533015    ( 0.0000,  0.0000,  1.5000)
 100 Cr     3.766508    7.532970    7.533026    ( 0.0000,  0.0000,  0.0000)
 101 Al     3.766541    9.416224    9.416156    ( 0.0000,  0.0000,  0.0000)
 102 Cr     5.649739    7.532970    9.416303    ( 0.0000,  0.0000,  0.0000)
 103 Co     5.649773    9.416303    7.532981    ( 0.0000,  0.0000,  2.1000)
 104 Al     7.533049    7.533072    7.533060    ( 0.0000,  0.0000,  0.0000)
 105 Ni     7.533026    9.416246    9.416235    ( 0.0000,  0.0000,  1.5000)
 106 Co     9.416291    7.533015    9.416246    ( 0.0000,  0.0000,  2.1000)
 107 Fe     9.416258    9.416269    7.533004    ( 0.0000,  0.0000,  2.0000)

Unit cell:
           periodic     x           y           z      points  spacing
  1. axis:    yes   11.299500    0.000000    0.000000    49     0.2306
  2. axis:    yes    0.000000   11.299500    0.000000    49     0.2306
  3. axis:    yes    0.000000    0.000000   11.299500    49     0.2306

  Lengths:  11.299500  11.299500  11.299500
  Angles:   90.000000  90.000000  90.000000

Effective grid spacing dv^(1/3) = 0.2306

     iter     time        total  log10-change:  magmom
                         energy  eigst   dens
iter:   1 16:51:15 -1009.709292                  +129.0867
iter:   2 16:52:01  -884.793694  -0.10  -1.16    +70.6875
iter:   3 16:52:47  -879.211387  -0.65  -1.14    +68.9307
iter:   4 16:53:33  -832.150711  -1.16  -1.22    +63.9953
iter:   5 16:54:19  -824.383622  -1.63  -1.31    +64.8690
iter:   6 16:55:05  -828.961722  -1.44  -1.34    +69.7026
iter:   7 16:55:50  -818.991236  -1.31  -1.35    +71.6598
iter:   8 16:56:37  -818.621916  -1.54  -1.48    +74.8910
iter:   9 16:57:22  -813.848669  -1.54  -1.53    +76.1036
iter:  10 16:58:09  -811.539747  -2.13  -1.67    +76.7041
iter:  11 16:58:54  -810.733736  -2.33  -1.73    +79.6295
iter:  12 16:59:40  -811.335191  -2.55  -1.82    +81.0434
iter:  13 17:00:26  -812.541466  -2.35  -1.88    +81.5756
iter:  14 17:01:13  -812.328329  -2.52  -1.89    +81.7614
iter:  15 17:01:59  -813.135691  -2.58  -1.97    +81.8336
iter:  16 17:02:45  -812.544761  -2.80  -1.96    +82.2720
iter:  17 17:03:31  -813.256392  -2.89  -2.08    +82.5701
iter:  18 17:04:17  -812.962220  -3.20  -2.05    +82.3351
iter:  19 17:05:03  -813.516683  -3.04  -2.17    +82.2732
iter:  20 17:05:49  -813.943851  -2.97  -2.18    +82.2595
iter:  21 17:06:35  -813.831479  -3.11  -2.19    +81.9071
iter:  22 17:07:21  -814.129460  -3.15  -2.32    +81.9856
iter:  23 17:08:07  -814.389987  -3.28  -2.36    +81.8904
iter:  24 17:08:53  -814.630005  -3.31  -2.37    +81.7997
iter:  25 17:09:39  -814.791844  -3.57  -2.38    +81.7802
iter:  26 17:10:25  -815.374176  -2.83  -2.39    +81.4465
iter:  27 17:11:11  -815.921009  -2.95  -2.30    +81.7788
iter:  28 17:11:57  -815.774379  -3.52  -2.21    +81.8833
iter:  29 17:12:43  -815.804495  -3.66  -2.24    +82.3038
iter:  30 17:13:29  -815.982491  -3.45  -2.24    +82.7544
iter:  31 17:14:14  -815.878553  -3.26  -2.19    +82.6602
iter:  32 17:15:01  -815.996095  -4.01  -2.17    +82.6408
iter:  33 17:15:47  -816.330215  -3.68  -2.16    +82.3936
iter:  34 17:16:33  -816.144694  -3.30  -2.13    +82.5169
iter:  35 17:17:19  -815.726894  -2.83  -2.13    +82.1656
iter:  36 17:18:05  -815.480555  -3.28  -2.18    +81.4582
iter:  37 17:18:51  -815.653779  -3.36  -2.26    +80.7132
iter:  38 17:19:37  -815.542156  -3.53  -2.25    +80.6303
iter:  39 17:20:23  -815.831660  -3.08  -2.30    +80.2197
iter:  40 17:21:09  -815.545828  -3.21  -2.29    +80.4466
iter:  41 17:21:55  -815.728952  -3.23  -2.43    +80.4233
iter:  42 17:22:41  -815.596187  -3.25  -2.38    +80.3334
iter:  43 17:23:26  -815.500039  -3.47  -2.45    +80.5660
iter:  44 17:24:12  -815.566283  -3.51  -2.59    +80.6378
iter:  45 17:24:58  -815.469979  -3.98  -2.56    +80.6930
iter:  46 17:25:44  -815.492052  -4.02  -2.72    +80.7373
iter:  47 17:26:30  -815.518154c -4.02  -2.76    +80.9306
iter:  48 17:27:17  -815.519608c -4.12  -2.74    +81.0229
iter:  49 17:28:03  -815.515675c -4.34  -2.80    +80.9390
iter:  50 17:28:49  -815.529161c -4.27  -2.83    +81.0395
iter:  51 17:29:35  -815.529715c -4.47  -2.84    +81.1092
iter:  52 17:30:20  -815.529370c -4.86  -2.88    +81.1849
iter:  53 17:31:06  -815.551419c -4.54  -2.93    +81.1653
iter:  54 17:31:52  -815.545504c -4.74  -2.91    +81.2516
iter:  55 17:32:38  -815.560101c -4.54  -2.94    +81.3796
iter:  56 17:33:24  -815.565660c -4.47  -2.96    +81.3584
iter:  57 17:34:10  -815.573640c -4.26  -2.98    +81.3267
iter:  58 17:34:56  -815.577388c -4.26  -3.02    +81.2787
iter:  59 17:35:42  -815.567758c -4.58  -3.02    +81.3803
iter:  60 17:36:28  -815.579017c -4.66  -3.16    +81.3662
iter:  61 17:37:15  -815.575950c -4.76  -3.16    +81.3629
iter:  62 17:38:00  -815.576319c -4.99  -3.17    +81.4367
iter:  63 17:38:46  -815.579262c -5.23  -3.26    +81.5168
iter:  64 17:39:32  -815.584335c -4.91  -3.33    +81.5416
iter:  65 17:40:19  -815.581887c -5.49  -3.25    +81.5179
iter:  66 17:41:04  -815.586255c -5.10  -3.44    +81.5291
iter:  67 17:41:51  -815.585800c -5.21  -3.33    +81.5056
iter:  68 17:42:37  -815.587404c -5.40  -3.54    +81.5027
iter:  69 17:43:23  -815.587699c -5.75  -3.54    +81.5276
iter:  70 17:44:08  -815.588744c -5.75  -3.63    +81.5293
iter:  71 17:44:54  -815.590031c -5.95  -3.62    +81.5252
iter:  72 17:45:40  -815.591040c -5.90  -3.66    +81.5373
iter:  73 17:46:27  -815.591484c -5.78  -3.70    +81.5228
iter:  74 17:47:12  -815.592829c -5.90  -3.69    +81.5263
iter:  75 17:47:59  -815.593186c -5.97  -3.72    +81.5428
iter:  76 17:48:45  -815.593542c -6.04  -3.80    +81.5271
iter:  77 17:49:31  -815.594188c -6.13  -3.82    +81.5256
iter:  78 17:50:17  -815.594115c -6.45  -3.87    +81.5302
iter:  79 17:51:03  -815.594405c -6.31  -3.90    +81.5271
iter:  80 17:51:49  -815.594888c -6.60  -3.94    +81.5275
iter:  81 17:52:35  -815.594969c -6.49  -3.98    +81.5307
iter:  82 17:53:21  -815.595163c -6.56  -4.04c   +81.5377
iter:  83 17:54:07  -815.595348c -6.66  -4.02c   +81.5346
iter:  84 17:54:52  -815.595518c -6.79  -4.10c   +81.5344
iter:  85 17:55:38  -815.595473c -6.69  -4.15c   +81.5401
iter:  86 17:56:24  -815.595887c -6.72  -4.12c   +81.5381
iter:  87 17:57:10  -815.595664c -6.97  -4.22c   +81.5372
iter:  88 17:57:57  -815.595979c -7.02  -4.24c   +81.5377
iter:  89 17:58:43  -815.596025c -6.91  -4.32c   +81.5435
iter:  90 17:59:29  -815.596037c -7.04  -4.28c   +81.5430
iter:  91 18:00:15  -815.596004c -7.23  -4.31c   +81.5371
iter:  92 18:01:00  -815.596059c -7.31  -4.53c   +81.5370
iter:  93 18:01:47  -815.596117c -7.66c -4.54c   +81.5371

Converged after 93 iterations.

Dipole moment: (-0.471874, -0.136342, 0.260370) |e|*Ang

Total magnetic moment: (0.000000, 0.000000, 81.537087)
Local magnetic moments:
   0 Fe ( 0.000000,  0.000000,  2.627171)
   1 Cr ( 0.000000,  0.000000,  2.530601)
   2 Ni ( 0.000000,  0.000000,  0.063953)
   3 Cr ( 0.000000,  0.000000, -2.668011)
   4 Al ( 0.000000,  0.000000, -0.009641)
   5 Fe ( 0.000000,  0.000000,  2.538000)
   6 Ni ( 0.000000,  0.000000,  0.245779)
   7 Al ( 0.000000,  0.000000, -0.013429)
   8 Al ( 0.000000,  0.000000, -0.020939)
   9 Co ( 0.000000,  0.000000,  1.608560)
  10 Ni ( 0.000000,  0.000000,  0.278123)
  11 Co ( 0.000000,  0.000000,  1.434619)
  12 Ni ( 0.000000,  0.000000,  0.370710)
  13 Cr ( 0.000000,  0.000000,  2.079272)
  14 Fe ( 0.000000,  0.000000,  2.257419)
  15 Cr ( 0.000000,  0.000000, -2.494236)
  16 Co ( 0.000000,  0.000000,  1.359442)
  17 Cr ( 0.000000,  0.000000, -2.044447)
  18 Co ( 0.000000,  0.000000,  1.411057)
  19 Fe ( 0.000000,  0.000000,  2.516207)
  20 Cr ( 0.000000,  0.000000, -2.661768)
  21 Fe ( 0.000000,  0.000000,  2.705160)
  22 Co ( 0.000000,  0.000000,  1.475799)
  23 Al ( 0.000000,  0.000000, -0.037021)
  24 Ni ( 0.000000,  0.000000,  0.285458)
  25 Cr ( 0.000000,  0.000000, -2.587330)
  26 Cr ( 0.000000,  0.000000,  1.893864)
  27 Al ( 0.000000,  0.000000, -0.012401)
  28 Cr ( 0.000000,  0.000000, -2.129864)
  29 Cr ( 0.000000,  0.000000, -2.590366)
  30 Fe ( 0.000000,  0.000000,  2.295264)
  31 Fe ( 0.000000,  0.000000,  2.109019)
  32 Ni ( 0.000000,  0.000000,  0.431428)
  33 Cr ( 0.000000,  0.000000,  2.242703)
  34 Co ( 0.000000,  0.000000,  1.332359)
  35 Ni ( 0.000000,  0.000000,  0.508447)
  36 Ni ( 0.000000,  0.000000,  0.265026)
  37 Co ( 0.000000,  0.000000,  1.826391)
  38 Co ( 0.000000,  0.000000,  1.537742)
  39 Cr ( 0.000000,  0.000000, -2.607948)
  40 Fe ( 0.000000,  0.000000,  2.635749)
  41 Al ( 0.000000,  0.000000, -0.038010)
  42 Fe ( 0.000000,  0.000000,  2.645114)
  43 Ni ( 0.000000,  0.000000,  0.453929)
  44 Cr ( 0.000000,  0.000000, -2.608092)
  45 Co ( 0.000000,  0.000000,  1.738354)
  46 Co ( 0.000000,  0.000000,  1.682577)
  47 Ni ( 0.000000,  0.000000,  0.594340)
  48 Ni ( 0.000000,  0.000000,  0.411745)
  49 Cr ( 0.000000,  0.000000,  2.452728)
  50 Co ( 0.000000,  0.000000,  1.243153)
  51 Al ( 0.000000,  0.000000, -0.039925)
  52 Al ( 0.000000,  0.000000, -0.030856)
  53 Fe ( 0.000000,  0.000000,  2.295564)
  54 Fe ( 0.000000,  0.000000,  2.669299)
  55 Fe ( 0.000000,  0.000000,  2.440758)
  56 Ni ( 0.000000,  0.000000,  0.667222)
  57 Ni ( 0.000000,  0.000000,  0.146554)
  58 Co ( 0.000000,  0.000000,  1.618712)
  59 Co ( 0.000000,  0.000000,  1.535263)
  60 Fe ( 0.000000,  0.000000,  2.337398)
  61 Co ( 0.000000,  0.000000,  1.644810)
  62 Al ( 0.000000,  0.000000, -0.019059)
  63 Ni ( 0.000000,  0.000000,  0.124611)
  64 Al ( 0.000000,  0.000000, -0.008474)
  65 Cr ( 0.000000,  0.000000, -2.535722)
  66 Al ( 0.000000,  0.000000, -0.029798)
  67 Ni ( 0.000000,  0.000000,  0.136175)
  68 Al ( 0.000000,  0.000000, -0.049609)
  69 Fe ( 0.000000,  0.000000,  2.458118)
  70 Cr ( 0.000000,  0.000000, -2.313401)
  71 Cr ( 0.000000,  0.000000,  2.128647)
  72 Fe ( 0.000000,  0.000000,  2.877851)
  73 Co ( 0.000000,  0.000000,  1.759702)
  74 Co ( 0.000000,  0.000000,  1.325299)
  75 Co ( 0.000000,  0.000000,  1.798739)
  76 Fe ( 0.000000,  0.000000,  2.655046)
  77 Fe ( 0.000000,  0.000000,  2.583290)
  78 Cr ( 0.000000,  0.000000, -2.378576)
  79 Fe ( 0.000000,  0.000000,  2.560349)
  80 Co ( 0.000000,  0.000000,  1.663018)
  81 Al ( 0.000000,  0.000000, -0.016971)
  82 Ni ( 0.000000,  0.000000,  0.469244)
  83 Ni ( 0.000000,  0.000000,  0.585691)
  84 Ni ( 0.000000,  0.000000,  0.502999)
  85 Fe ( 0.000000,  0.000000,  2.668514)
  86 Co ( 0.000000,  0.000000,  1.554918)
  87 Cr ( 0.000000,  0.000000, -2.575408)
  88 Ni ( 0.000000,  0.000000,  0.548770)
  89 Fe ( 0.000000,  0.000000,  2.607206)
  90 Ni ( 0.000000,  0.000000,  0.257305)
  91 Co ( 0.000000,  0.000000,  1.306991)
  92 Al ( 0.000000,  0.000000, -0.044006)
  93 Cr ( 0.000000,  0.000000,  2.285849)
  94 Fe ( 0.000000,  0.000000,  2.472035)
  95 Cr ( 0.000000,  0.000000, -2.389366)
  96 Ni ( 0.000000,  0.000000,  0.369166)
  97 Fe ( 0.000000,  0.000000,  2.807394)
  98 Co ( 0.000000,  0.000000,  1.050586)
  99 Ni ( 0.000000,  0.000000,  0.457822)
 100 Cr ( 0.000000,  0.000000,  2.132648)
 101 Al ( 0.000000,  0.000000, -0.024133)
 102 Cr ( 0.000000,  0.000000,  1.766559)
 103 Co ( 0.000000,  0.000000,  1.153286)
 104 Al ( 0.000000,  0.000000, -0.029712)
 105 Ni ( 0.000000,  0.000000,  0.395540)
 106 Co ( 0.000000,  0.000000,  1.466570)
 107 Fe ( 0.000000,  0.000000,  2.720226)

Energy contributions relative to reference atoms: (reference = -3382523.201499)

Kinetic:       -100.664087
Potential:      +26.430132
External:        +0.000000
XC:            -770.876362
Entropy (-ST):   -4.307264
Local:          +31.667832
--------------------------
Free energy:   -817.749749
Extrapolated:  -815.596117

Spin contamination: 42.470099 electrons
Showing only first 2 kpts
                      Up                     Down
 Kpt  Band  Eigenvalues  Occupancy  Eigenvalues  Occupancy
  0   470      7.37488    0.99953      8.56391    0.01432
  0   471      7.39423    0.99943      8.57299    0.01310
  0   472      7.39738    0.99941      8.58160    0.01203
  0   473      7.41434    0.99930      8.58893    0.01119

  1   470      7.38220    0.99949      8.55815    0.01516
  1   471      7.39767    0.99941      8.57320    0.01307
  1   472      7.41111    0.99932      8.58576    0.01154
  1   473      7.42262    0.99924      8.59420    0.01062


Fermi level: 8.14076

No gap

Forces in eV/Ang:
  0 Fe   -0.37952    0.12964   -0.46044
  1 Cr   -0.23631   -0.04107    0.19581
  2 Ni    0.02075   -0.09064   -0.00092
  3 Cr   -0.43071    0.56739    0.04789
  4 Al   -0.12366    0.22484    0.53021
  5 Fe   -0.11952    0.38766    0.03636
  6 Ni   -0.06522    0.21874   -0.02549
  7 Al   -0.50582    0.91255    0.68758
  8 Al    0.98656   -0.65829    0.45765
  9 Co    0.34345    0.41803    0.21680
 10 Ni   -0.01660    0.24559   -0.10319
 11 Co    0.10587    0.19030    0.14041
 12 Ni    0.06849   -0.17120   -0.13873
 13 Cr   -0.19139   -0.18542    0.02538
 14 Fe    0.34932   -0.02456   -0.27770
 15 Cr   -0.61030   -0.47174   -0.46064
 16 Co   -0.14300    0.26517   -0.00413
 17 Cr    0.36053   -0.15059   -0.44949
 18 Co    0.16458   -0.04002    0.13336
 19 Fe   -0.41256   -0.23569    0.53904
 20 Cr    0.19621    0.46125    0.36090
 21 Fe    0.08868   -0.20216    0.12871
 22 Co   -0.28846   -0.16346    0.17229
 23 Al    0.32908    0.51240    0.07199
 24 Ni   -0.11849    0.11067   -0.06670
 25 Cr   -0.49741   -0.11443    0.39982
 26 Cr    0.29542    0.08891   -0.41367
 27 Al   -0.96196   -0.16789   -0.15209
 28 Cr    0.59219   -0.42287   -0.46293
 29 Cr    0.43397    0.36046    0.74723
 30 Fe   -0.20264   -0.14027   -0.33882
 31 Fe   -0.00420   -0.23283    0.16897
 32 Ni   -0.02417    0.15011   -0.16839
 33 Cr    0.20639    0.01205   -0.12950
 34 Co    0.12624    0.16250   -0.03822
 35 Ni    0.08370   -0.19210   -0.00070
 36 Ni   -0.01749   -0.04117    0.19470
 37 Co   -0.01397    0.10202    0.05328
 38 Co   -0.20876   -0.13099    0.11229
 39 Cr   -0.87126   -0.18981   -0.43413
 40 Fe    0.02684   -0.29911   -0.21562
 41 Al   -0.03553   -0.17080    0.66102
 42 Fe    0.24703   -0.07373    0.05222
 43 Ni    0.02759    0.11271   -0.08702
 44 Cr    0.05437    0.06396    0.07103
 45 Co   -0.03012   -0.00071    0.01332
 46 Co    0.07623    0.19163    0.07021
 47 Ni   -0.09137    0.00237    0.05682
 48 Ni   -0.04487   -0.06240    0.08795
 49 Cr   -0.40983   -0.63162    0.40096
 50 Co   -0.02172   -0.25348    0.09703
 51 Al   -0.94194   -0.74867   -0.01403
 52 Al    0.65519   -0.03447   -0.10643
 53 Fe    0.07749   -0.35226   -0.00535
 54 Fe    0.36310    0.12874   -0.02051
 55 Fe    0.13501   -0.42212   -0.34035
 56 Ni    0.09968   -0.15003   -0.05651
 57 Ni    0.10895    0.09764   -0.16139
 58 Co    0.07413   -0.22239   -0.28387
 59 Co   -0.19402   -0.32599   -0.03888
 60 Fe   -0.25148    0.23407    0.03610
 61 Co   -0.02567    0.27052    0.03931
 62 Al   -0.91117    0.82752    0.60424
 63 Ni   -0.13929    0.08032    0.09641
 64 Al    0.51297    0.45888   -0.49247
 65 Cr   -0.06721    1.00178    0.41144
 66 Al   -0.05560   -0.22839    0.37415
 67 Ni    0.01999   -0.26515    0.02547
 68 Al    0.20339   -0.25466   -0.49417
 69 Fe   -0.05857    0.60131    0.47909
 70 Cr    0.73660    0.43045   -0.39419
 71 Cr    0.42235    0.33048   -0.01539
 72 Fe    0.15124    0.27327   -0.09767
 73 Co    0.05818    0.04508   -0.06618
 74 Co   -0.11570    0.00522   -0.16858
 75 Co   -0.27710    0.13470    0.14729
 76 Fe   -0.35936   -0.21124   -0.04935
 77 Fe   -0.43999    0.39103   -0.32993
 78 Cr    0.16049   -0.50142   -0.77658
 79 Fe    0.02419   -0.18993   -0.19460
 80 Co    0.02030   -0.20874   -0.27129
 81 Al    0.85959   -0.27484   -0.55756
 82 Ni    0.17425    0.09322   -0.05385
 83 Ni   -0.00584   -0.01900   -0.02893
 84 Ni   -0.01225   -0.27807   -0.01051
 85 Fe    0.26400    0.15839   -0.26865
 86 Co   -0.06056   -0.18638   -0.04122
 87 Cr   -0.02628   -0.37781    0.37828
 88 Ni   -0.00442    0.03322    0.11362
 89 Fe   -0.07744   -0.65963    0.19916
 90 Ni   -0.09426    0.01792   -0.09970
 91 Co   -0.31486   -0.01713    0.14099
 92 Al   -0.18152    0.16538   -0.65141
 93 Cr   -0.10715    0.00866    0.08517
 94 Fe    0.83107   -0.57853   -0.02442
 95 Cr    0.80199   -0.35755    0.42771
 96 Ni   -0.11448    0.15275    0.26455
 97 Fe   -0.10003   -0.21000   -0.21538
 98 Co   -0.14301   -0.14632    0.08503
 99 Ni   -0.14566    0.08906    0.01338
100 Cr   -0.05838    0.15116    0.08314
101 Al   -0.21997   -0.24765   -0.99762
102 Cr    0.06750    0.03732    0.16673
103 Co    0.33972    0.27268    0.12635
104 Al   -0.06803    0.25404    0.51174
105 Ni    0.01815   -0.10953    0.02132
106 Co    0.17596    0.35219    0.02960
107 Fe    0.10371    0.15768   -0.03383

Timing:                              incl.     excl.
-----------------------------------------------------------
Forces:                             12.072    12.072   0.3% |
Hamiltonian:                         0.617     0.004   0.0% |
 Atomic:                             0.247     0.180   0.0% |
  XC Correction:                     0.067     0.067   0.0% |
 Calculate atomic Hamiltonians:      0.245     0.245   0.0% |
 Communicate:                        0.003     0.003   0.0% |
 Initialize Hamiltonian:             0.000     0.000   0.0% |
 Poisson:                            0.001     0.001   0.0% |
 XC 3D grid:                         0.117     0.117   0.0% |
LCAO initialization:                49.898     0.809   0.0% |
 LCAO eigensolver:                   4.058     0.004   0.0% |
  Calculate projections:             0.096     0.096   0.0% |
  DenseAtomicCorrection:             0.098     0.098   0.0% |
  Distribute overlap matrix:         0.717     0.717   0.0% |
  Orbital Layouts:                   1.972     1.972   0.0% |
  Potential matrix:                  1.073     1.073   0.0% |
  Sum over cells:                    0.098     0.098   0.0% |
 LCAO to grid:                      43.715    43.715   1.0% |
 Set positions (LCAO WFS):           1.316     0.747   0.0% |
  Basic WFS set positions:           0.003     0.003   0.0% |
  Basis functions set positions:     0.001     0.001   0.0% |
  P tci:                             0.182     0.182   0.0% |
  ST tci:                            0.127     0.127   0.0% |
  mktci:                             0.256     0.256   0.0% |
PWDescriptor:                        0.070     0.070   0.0% |
SCF-cycle:                        4285.223   219.307   5.0% |-|
 Davidson:                        3944.320  1195.197  27.5% |----------|
  Apply H:                          64.066    63.200   1.5% ||
   HMM T:                            0.866     0.866   0.0% |
  Subspace diag:                   361.945     0.028   0.0% |
   calc_h_matrix:                  137.978    81.928   1.9% ||
    Apply H:                        56.050    55.257   1.3% ||
     HMM T:                          0.793     0.793   0.0% |
   diagonalize:                     74.462    74.462   1.7% ||
   rotate_psi:                     149.477   149.477   3.4% ||
  calc. matrices:                  859.120   779.352  17.9% |------|
   Apply H:                         79.768    78.030   1.8% ||
    HMM T:                           1.739     1.739   0.0% |
  diagonalize:                    1103.402  1103.402  25.4% |---------|
  rotate_psi:                      360.590   360.590   8.3% |--|
 Density:                           61.508     0.002   0.0% |
  Atomic density matrices:           1.175     1.175   0.0% |
  Mix:                              31.473    31.473   0.7% |
  Multipole moments:                 0.053     0.053   0.0% |
  Pseudo density:                   28.804    28.802   0.7% |
   Symmetrize density:               0.003     0.003   0.0% |
 Hamiltonian:                       55.644     0.704   0.0% |
  Atomic:                           19.710    13.528   0.3% |
   XC Correction:                    6.182     6.182   0.1% |
  Calculate atomic Hamiltonians:    23.923    23.923   0.5% |
  Communicate:                       1.561     1.561   0.0% |
  Poisson:                           0.047     0.047   0.0% |
  XC 3D grid:                        9.699     9.699   0.2% |
 Orthonormalize:                     4.443     0.001   0.0% |
  calc_s_matrix:                     0.498     0.498   0.0% |
  inverse-cholesky:                  0.356     0.356   0.0% |
  projections:                       2.757     2.757   0.1% |
  rotate_psi_s:                      0.831     0.831   0.0% |
Set symmetry:                        0.001     0.001   0.0% |
Other:                               2.826     2.826   0.1% |
-----------------------------------------------------------
Total:                                      4350.706 100.0%

Date: Sat Apr  8 18:02:00 2023
