
  ___ ___ ___ _ _ _  
 |   |   |_  | | | | 
 | | | | | . | | | | 
 |__ |  _|___|_____|  22.8.0
 |___|_|             

User:   c.zeng@d0023
Date:   Mon Apr 17 04:26:30 2023
Arch:   x86_64
Pid:    18343
CWD:    /home/c.zeng/projects/hea-corrosion/hea-mlp/data-curation/surface-md/dft-jobs/13
Python: 3.8.1
gpaw:   /home/c.zeng/usr/installs/gpaw/source/gpaw-22.8.0/gpaw
_gpaw:  /home/c.zeng/usr/installs/gpaw/source/gpaw-22.8.0/
        _gpaw.cpython-38-x86_64-linux-gnu.so
ase:    /home/c.zeng/.local/lib/python3.8/site-packages/ase-3.22.1-py3.8.egg/ase (version 3.22.1)
numpy:  /home/c.zeng/.local/lib/python3.8/site-packages/numpy (version 1.24.2)
scipy:  /home/c.zeng/.local/lib/python3.8/site-packages/scipy (version 1.10.1)
libxc:  4.2.3
units:  Angstrom and eV
cores: 30
OpenMP: False
OMP_NUM_THREADS: 1

Input parameters:
  convergence: {energy: 0.0001}
  kpts: [2 2 1]
  maxiter: 666
  mode: {ecut: 350.0,
         name: pw}
  occupations: {fixmagmom: False,
                name: fermi-dirac,
                width: 0.1}
  poissonsolver: {dipolelayer: xy}
  spinpol: True
  symmetry: {point_group: False}
  xc: PBE

System changes: positions, numbers, cell, pbc, initial_charges, initial_magmoms 

Initialize ...

species:
  Cr:
    name: Chromium
    id: 33f258bda2ca9f93018e70263a35547b
    Z: 24.0
    valence: 6
    core: 18
    charge: 0.0
    file: /home/c.zeng/usr/data/gpaw-setups-0.9.20000/Cr.PBE.gz
    compensation charges: {type: gauss,
                           rc: 0.35,
                           lmax: 2}
    cutoffs: {filter: 2.14,
              core: 3.04}
    valence states:
      #              energy  rcut
      - 4s(1.00)    -4.007   1.164
      - 4p(0.00)    -0.989   1.217
      - 3d(5.00)    -2.913   1.111
      -  s          23.205   1.164
      -  p          26.223   1.217
      -  d          24.299   1.111
  
    # Using partial waves for Cr as LCAO basis

  Fe:
    name: Iron
    id: 37abbd8d6c3c35915a9b583b742da910
    Z: 26.0
    valence: 8
    core: 18
    charge: 0.0
    file: /home/c.zeng/usr/data/gpaw-setups-0.9.20000/Fe.PBE.gz
    compensation charges: {type: gauss,
                           rc: 0.33,
                           lmax: 2}
    cutoffs: {filter: 2.06,
              core: 2.67}
    valence states:
      #              energy  rcut
      - 4s(2.00)    -5.291   1.164
      - 4p(0.00)    -1.326   1.058
      - 3d(6.00)    -7.505   1.058
      -  s          21.920   1.164
      -  p          25.885   1.058
      -  d          19.706   1.058
  
    # Using partial waves for Fe as LCAO basis

  Ni:
    name: Nickel
    id: 0d9f38a9d6e76a2886f07bb4381f212b
    Z: 28.0
    valence: 16
    core: 12
    charge: 0.0
    file: /home/c.zeng/usr/data/gpaw-setups-0.9.20000/Ni.PBE.gz
    compensation charges: {type: gauss,
                           rc: 0.36,
                           lmax: 2}
    cutoffs: {filter: 2.14,
              core: 1.98}
    valence states:
      #              energy  rcut
      - 4s(2.00)    -5.642   1.164
      - 3p(6.00)   -71.394   1.207
      - 4p(0.00)    -1.226   1.207
      - 3d(8.00)    -8.875   1.138
      -  s          21.570   1.164
      -  d          18.337   1.138
  
    # Using partial waves for Ni as LCAO basis

  Co:
    name: Cobalt
    id: 339d20d5b0b93d2de9531a1bee871d91
    Z: 27.0
    valence: 9
    core: 18
    charge: 0.0
    file: /home/c.zeng/usr/data/gpaw-setups-0.9.20000/Co.PBE.gz
    compensation charges: {type: gauss,
                           rc: 0.32,
                           lmax: 2}
    cutoffs: {filter: 1.87,
              core: 2.55}
    valence states:
      #              energy  rcut
      - 4s(2.00)    -5.469   1.005
      - 4p(0.00)    -1.277   1.058
      - 3d(7.00)    -8.205   1.005
      -  s          21.742   1.005
      -  p          25.934   1.058
      -  d          19.007   1.005
  
    # Using partial waves for Co as LCAO basis

Reference energy: -4451268.207082  # eV

Spin-polarized calculation.
Magnetic moment: 175.600000

Convergence criteria:
 Maximum [total energy] change in last 3 cyles: 0.0001 eV / electron
 Maximum integral of absolute [dens]ity change: 0.0001 electrons / valence electron
 Maximum integral of absolute [eigenst]ate change: 4e-08 eV^2 / valence electron
 Maximum number of scf [iter]ations: 666
 (Square brackets indicate name in SCF output, whereas a 'c' in
 the SCF output indicates the quantity has converged.)

Symmetries present (total): 1

  ( 1  0  0)
  ( 0  1  0)
  ( 0  0  1)

4 k-points: 2 x 2 x 1 Monkhorst-Pack grid
2 k-points in the irreducible part of the Brillouin zone
       k-points in crystal coordinates                weights
   0:     0.25000000   -0.25000000    0.00000000          2/4
   1:     0.25000000    0.25000000    0.00000000          2/4

Wave functions: Plane wave expansion
  Cutoff energy: 350.000 eV
  Number of coefficients (min, max): 58495, 58567
  Pulay-stress correction: 0.000000 eV/Ang^3 (de/decut=0.000000)
  Using FFTW library
  ScaLapack parameters: grid=1x1, blocksize=None
  Wavefunction extrapolation:
    Improved wavefunction reuse through dual PAW basis 

Occupation numbers: Fermi-Dirac:
  width: 0.1000  # eV
 

Eigensolver
   Davidson(niter=2) 

Densities:
  Coarse grid: 54*54*128 grid
  Fine grid: 108*108*256 grid
  Total Charge: 0.000000 

Density mixing:
  Method: difference
  Backend: pulay
  Linear mixing parameter: 0.05
  old densities: 5
  Damping of long wavelength oscillations: 50 

Hamiltonian:
  XC and Coulomb potentials evaluated on a 108*108*256 grid
  Using the PBE Exchange-Correlation functional
  External potential:
    NoExternalPotential
 

XC parameters: PBE with 2 nearest neighbor stencil

Memory estimate:
  Process memory now: 367.73 MiB
  Calculator: 2405.48 MiB
    Density: 16.73 MiB
      Arrays: 6.75 MiB
      Localized functions: 7.29 MiB
      Mixer: 2.70 MiB
    Hamiltonian: 5.22 MiB
      Arrays: 5.01 MiB
      XC: 0.00 MiB
      Poisson: 0.00 MiB
      vbar: 0.21 MiB
    Wavefunctions: 2383.52 MiB
      Arrays psit_nG: 1501.35 MiB
      Eigensolver: 862.84 MiB
      Projections: 3.85 MiB
      Projectors: 0.98 MiB
      PW-descriptor: 14.51 MiB

Total number of cores used: 30
Parallelization over k-points: 2
Domain decomposition: 1 x 3 x 5

Number of atoms: 125
Number of atomic orbitals: 1218
Number of bands in calculation: 840
Number of valence electrons: 1217
Bands to converge: occupied

... initialized

Initializing position-dependent things.

Density initialized from atomic densities
Creating initial wave functions:
  840 bands from LCAO basis set

                                                                  
                                                                  
                                                                  
                                                                  
                                          Ni                      
                                           Cr          Co         
                          Ni        CoCo         Cr               
                     Cr         Ni          CCr                   
                 Co        Ni    Cr               Fe    Co        
                       Ni  CNi  Co Ni  Co    Fe     Fe            
                   Ni  NiFe    NiNi     FCr   CNi                 
             Co          Fe CCo    FeCr         Cr   Fe           
        Co        Fe   FNi     Co Ni     NFe                      
                    Ni     FeNi Co  CFe   FeCo   Fe  Fe           
                  Co    Cr     Co      Fe                         
               Ni  FeCo  NiCo Ni     CFe   NCo        Cr          
               Fe    NiCr    Fe Co    NiCr   Co  Fe   Cr          
           Co             NCr Ni FeCrCr    Ni                     
                NFe  CFe   CCr     Fe FCr   Cr    Cr              
           Fe    Co      Cr      Cr                               
            Co        Cr     Cr    CrCo      Ni                   
                 FCo    Co     Ni      FeCr                       
             Fe    Ni                Cr                           
                                                                  
                                                                  
                                                                  
                                                                  
                                                                  
                                                                  

Positions:
   0 Cr    12.174554    1.101865   10.505469    ( 0.0000,  0.0000,  0.0000)
   1 Fe     2.409427    1.108081   10.041893    ( 0.0000,  0.0000,  2.0000)
   2 Ni     4.863386    1.251093    9.857697    ( 0.0000,  0.0000,  1.5000)
   3 Co     6.976414    0.717577   11.044553    ( 0.0000,  0.0000,  2.1000)
   4 Ni     9.706477    1.135742   10.771591    ( 0.0000,  0.0000,  1.5000)
   5 Cr    13.147991    3.398366   10.013977    ( 0.0000,  0.0000,  0.0000)
   6 Fe     3.261060    3.531270    9.788208    ( 0.0000,  0.0000,  2.0000)
   7 Cr     5.369319    3.206519   10.982404    ( 0.0000,  0.0000,  0.0000)
   8 Cr     8.136988    3.185038   10.446452    ( 0.0000,  0.0000,  0.0000)
   9 Cr    10.701734    3.199768   10.305273    ( 0.0000,  0.0000,  0.0000)
  10 Ni    14.145037    5.351865    9.853093    ( 0.0000,  0.0000,  1.5000)
  11 Cr     4.521873    5.533718   10.911411    ( 0.0000,  0.0000,  0.0000)
  12 Cr     7.010984    5.432261   10.922600    ( 0.0000,  0.0000,  0.0000)
  13 Cr     9.194643    5.415618    9.964853    ( 0.0000,  0.0000,  0.0000)
  14 Fe    11.674874    5.578081    9.013575    ( 0.0000,  0.0000,  2.0000)
  15 Cr    15.658220    7.433331    9.988730    ( 0.0000,  0.0000,  0.0000)
  16 Ni     6.054642    7.602880   10.482088    ( 0.0000,  0.0000,  1.5000)
  17 Ni     8.569261    8.130280   10.325289    ( 0.0000,  0.0000,  1.5000)
  18 Fe    10.992918    7.547551   10.313427    ( 0.0000,  0.0000,  2.0000)
  19 Cr    13.273569    7.791693    9.795947    ( 0.0000,  0.0000,  0.0000)
  20 Cr    16.920523    9.586100   10.527093    ( 0.0000,  0.0000,  0.0000)
  21 Ni     7.051801    9.842025    9.977284    ( 0.0000,  0.0000,  1.5000)
  22 Cr     9.699385    9.949344    9.308605    ( 0.0000,  0.0000,  0.0000)
  23 Ni    12.156180    9.814148    9.728201    ( 0.0000,  0.0000,  1.5000)
  24 Fe    14.696879    9.368367   11.021473    ( 0.0000,  0.0000,  2.0000)
  25 Co    12.303275   -0.240384   12.525011    ( 0.0000,  0.0000,  2.1000)
  26 Co     2.284899   -0.278538   12.288434    ( 0.0000,  0.0000,  2.1000)
  27 Co     4.692003    0.067566   11.860663    ( 0.0000,  0.0000,  2.1000)
  28 Cr     7.496282   -0.349935   13.421305    ( 0.0000,  0.0000,  0.0000)
  29 Fe    16.103333   10.697646   12.679832    ( 0.0000,  0.0000,  2.0000)
  30 Fe     1.130550    2.150385   12.190427    ( 0.0000,  0.0000,  2.0000)
  31 Co     3.548618    2.075135   11.982105    ( 0.0000,  0.0000,  2.1000)
  32 Fe     5.934811    1.712396   13.274097    ( 0.0000,  0.0000,  2.0000)
  33 Cr     8.352696    2.016508   12.610937    ( 0.0000,  0.0000,  0.0000)
  34 Fe    11.086961    2.422342   12.549556    ( 0.0000,  0.0000,  2.0000)
  35 Ni     2.639617    4.320700   11.883774    ( 0.0000,  0.0000,  1.5000)
  36 Ni     4.663964    4.070074   13.143894    ( 0.0000,  0.0000,  1.5000)
  37 Cr     7.175507    4.166170   12.850838    ( 0.0000,  0.0000,  0.0000)
  38 Fe     9.736766    4.222352   12.346978    ( 0.0000,  0.0000,  2.0000)
  39 Cr    12.227309    4.413617   11.699048    ( 0.0000,  0.0000,  0.0000)
  40 Fe     3.379846    6.181723   13.171573    ( 0.0000,  0.0000,  2.0000)
  41 Ni     5.728188    6.384582   12.820178    ( 0.0000,  0.0000,  1.5000)
  42 Co     8.712727    6.599219   12.514951    ( 0.0000,  0.0000,  2.1000)
  43 Ni    11.277974    6.391928   12.327063    ( 0.0000,  0.0000,  1.5000)
  44 Co    13.773414    6.736681   11.974880    ( 0.0000,  0.0000,  2.1000)
  45 Cr    17.024041    8.283864   12.363398    ( 0.0000,  0.0000,  0.0000)
  46 Ni     7.168622    8.450023   12.447196    ( 0.0000,  0.0000,  1.5000)
  47 Co    10.075282    8.613398   12.249513    ( 0.0000,  0.0000,  2.1000)
  48 Ni    12.448661    8.904126   11.828787    ( 0.0000,  0.0000,  1.5000)
  49 Fe    14.964762    8.356830   13.474908    ( 0.0000,  0.0000,  2.0000)
  50 Co     1.493700    0.694807   14.260451    ( 0.0000,  0.0000,  2.1000)
  51 Fe     3.921631    0.532760   14.155718    ( 0.0000,  0.0000,  2.0000)
  52 Cr     6.292470    0.640320   15.581579    ( 0.0000,  0.0000,  0.0000)
  53 Fe     8.810121    0.628572   15.146108    ( 0.0000,  0.0000,  2.0000)
  54 Cr    11.199058    0.845104   14.436078    ( 0.0000,  0.0000,  0.0000)
  55 Fe     2.650359    2.893676   14.026771    ( 0.0000,  0.0000,  2.0000)
  56 Co     5.080736    2.592112   15.510476    ( 0.0000,  0.0000,  2.1000)
  57 Co     7.350736    3.042599   14.865019    ( 0.0000,  0.0000,  2.1000)
  58 Co     9.760371    2.877021   14.470894    ( 0.0000,  0.0000,  2.1000)
  59 Cr    12.866432    2.960688   14.517145    ( 0.0000,  0.0000,  0.0000)
  60 Co     3.597765    4.646664   15.245826    ( 0.0000,  0.0000,  2.1000)
  61 Cr     5.785078    5.068358   14.922133    ( 0.0000,  0.0000,  0.0000)
  62 Co     8.565914    5.290031   14.578108    ( 0.0000,  0.0000,  2.1000)
  63 Fe    11.546300    4.926876   14.186652    ( 0.0000,  0.0000,  2.0000)
  64 Co    13.888508    4.956418   13.822970    ( 0.0000,  0.0000,  2.1000)
  65 Fe     4.905769    7.053208   15.067232    ( 0.0000,  0.0000,  2.0000)
  66 Ni     7.300828    7.059819   14.844596    ( 0.0000,  0.0000,  1.5000)
  67 Cr    10.242502    7.129042   14.303812    ( 0.0000,  0.0000,  0.0000)
  68 Fe    12.694716    7.282716   14.086229    ( 0.0000,  0.0000,  2.0000)
  69 Cr    14.993553    7.294351   15.695905    ( 0.0000,  0.0000,  0.0000)
  70 Cr     6.234904    9.222717   14.752889    ( 0.0000,  0.0000,  0.0000)
  71 Ni     8.829149    9.211449   14.368228    ( 0.0000,  0.0000,  1.5000)
  72 Ni    11.551493    9.435542   14.020272    ( 0.0000,  0.0000,  1.5000)
  73 Co    13.641149    9.178738   15.414179    ( 0.0000,  0.0000,  2.1000)
  74 Fe    16.272796    9.474496   15.029976    ( 0.0000,  0.0000,  2.0000)
  75 Fe    12.840098    1.619644   16.615476    ( 0.0000,  0.0000,  2.0000)
  76 Ni     2.942862    1.737953   15.935720    ( 0.0000,  0.0000,  1.5000)
  77 Ni     5.064176    1.410893   17.648458    ( 0.0000,  0.0000,  1.5000)
  78 Fe     7.703473    1.635417   17.212634    ( 0.0000,  0.0000,  2.0000)
  79 Co    10.064787    1.717720   16.950163    ( 0.0000,  0.0000,  2.1000)
  80 Co    14.049965    3.993228   16.254400    ( 0.0000,  0.0000,  2.1000)
  81 Fe     3.739183    3.433679   17.405348    ( 0.0000,  0.0000,  2.0000)
  82 Ni     6.086511    3.527708   17.268504    ( 0.0000,  0.0000,  1.5000)
  83 Co     8.753263    3.836272   16.621497    ( 0.0000,  0.0000,  2.1000)
  84 Fe    11.307520    3.840733   16.457751    ( 0.0000,  0.0000,  2.0000)
  85 Ni    15.082945    5.623140   17.446385    ( 0.0000,  0.0000,  1.5000)
  86 Ni     4.922602    5.851139   17.179950    ( 0.0000,  0.0000,  1.5000)
  87 Co     7.422577    5.748811   16.747297    ( 0.0000,  0.0000,  2.1000)
  88 Fe    10.066039    5.915603   16.399609    ( 0.0000,  0.0000,  2.0000)
  89 Fe    12.762217    5.916738   16.223078    ( 0.0000,  0.0000,  2.0000)
  90 Fe    16.390403    8.159095   17.296566    ( 0.0000,  0.0000,  2.0000)
  91 Co     6.281351    8.042399   16.994005    ( 0.0000,  0.0000,  2.1000)
  92 Ni     8.806179    7.884230   16.523716    ( 0.0000,  0.0000,  1.5000)
  93 Fe    11.529468    8.083746   16.156308    ( 0.0000,  0.0000,  2.0000)
  94 Fe    13.549562    7.799211   17.574500    ( 0.0000,  0.0000,  2.0000)
  95 Co    17.527684   10.503266   16.697994    ( 0.0000,  0.0000,  2.1000)
  96 Co     7.696953   10.155900   16.344363    ( 0.0000,  0.0000,  2.1000)
  97 Fe    10.506800   10.209986   16.296774    ( 0.0000,  0.0000,  2.0000)
  98 Co    12.409873   10.096355   17.671493    ( 0.0000,  0.0000,  2.1000)
  99 Fe    15.199976   10.275104   17.266477    ( 0.0000,  0.0000,  2.0000)
 100 Co     0.287670    0.484353   18.707503    ( 0.0000,  0.0000,  2.1000)
 101 Co     9.014538   11.251631   18.365727    ( 0.0000,  0.0000,  2.1000)
 102 Ni    11.554074   11.031228   19.740170    ( 0.0000,  0.0000,  1.5000)
 103 Fe     7.551769    0.020954   19.737166    ( 0.0000,  0.0000,  2.0000)
 104 Co    16.734932   11.245008   18.829802    ( 0.0000,  0.0000,  2.1000)
 105 Co     1.774914    2.589644   18.696134    ( 0.0000,  0.0000,  2.1000)
 106 Ni     4.238990    2.553836   19.474577    ( 0.0000,  0.0000,  1.5000)
 107 Fe     6.752152    2.331932   19.288192    ( 0.0000,  0.0000,  2.0000)
 108 Ni     9.148851    2.479176   19.297046    ( 0.0000,  0.0000,  1.5000)
 109 Cr    11.608320    2.635758   18.582850    ( 0.0000,  0.0000,  0.0000)
 110 Co     3.031183    4.478712   19.764442    ( 0.0000,  0.0000,  2.1000)
 111 Ni     5.521330    4.552881   19.336899    ( 0.0000,  0.0000,  1.5000)
 112 Ni     7.688851    4.600090   18.884981    ( 0.0000,  0.0000,  1.5000)
 113 Ni    10.323113    4.651101   18.752615    ( 0.0000,  0.0000,  1.5000)
 114 Cr    12.808177    4.600153   18.335564    ( 0.0000,  0.0000,  0.0000)
 115 Cr     4.066997    6.650651   19.258202    ( 0.0000,  0.0000,  0.0000)
 116 Ni     6.428288    6.703219   19.033995    ( 0.0000,  0.0000,  1.5000)
 117 Cr     8.916004    6.885814   18.900749    ( 0.0000,  0.0000,  0.0000)
 118 Co    11.314954    6.973662   18.201705    ( 0.0000,  0.0000,  2.1000)
 119 Cr    13.969037    6.431119   19.672627    ( 0.0000,  0.0000,  0.0000)
 120 Ni     5.593965    9.159595   19.350015    ( 0.0000,  0.0000,  1.5000)
 121 Ni     7.983756    8.938958   18.591436    ( 0.0000,  0.0000,  1.5000)
 122 Co    10.333123    8.991843   18.957470    ( 0.0000,  0.0000,  2.1000)
 123 Cr    12.690765    8.661155   19.909608    ( 0.0000,  0.0000,  0.0000)
 124 Cr    14.926316    8.709560   19.253763    ( 0.0000,  0.0000,  0.0000)

Unit cell:
           periodic     x           y           z      points  spacing
  1. axis:    yes   12.446800    0.000000    0.000000    54     0.1996
  2. axis:    yes    6.223010   10.778600    0.000000    54     0.1996
  3. axis:    no     0.000000    0.000000   29.353100   128     0.2293

  Lengths:  12.446800  12.446046  29.353100
  Angles:   90.000000  90.000000  60.000070

Effective grid spacing dv^(1/3) = 0.2193

     iter     time        total  log10-change:  magmom
                         energy  eigst   dens
iter:   1 04:33:51 -1248.985789                  +175.9175
iter:   2 04:36:24 -1217.876005  +0.06  -1.11    +97.4612
iter:   3 04:38:58 -1621.719726  -0.28  -1.03    +80.9527
iter:   4 04:41:32 -2276.183775  +0.52  -0.88    +71.6979
iter:   5 04:44:06 -1072.121313  -0.51  -0.73    +42.5500
iter:   6 04:46:39 -1048.203516  -1.33  -1.22    +39.8011
iter:   7 04:49:13 -1048.386151  -1.71  -1.23    +41.6814
iter:   8 04:51:47 -1016.129986  -1.27  -1.22    +43.1215
iter:   9 04:54:21 -1780.698148  +0.02  -1.32    +45.2326
iter:  10 04:56:55 -1089.813424  -0.39  -0.84    +41.4237
iter:  11 04:59:29 -1027.098278  -0.97  -1.16    +38.9230
iter:  12 05:01:58 -1009.985734  -1.58  -1.34    +41.1866
iter:  13 05:04:30 -1000.673421  -1.67  -1.40    +40.5679
iter:  14 05:07:05 -1032.739612  -1.59  -1.46    +40.6241
iter:  15 05:09:41 -1034.939395  -1.16  -1.28    +42.7614
iter:  16 05:12:15  -974.516136  -1.63  -1.30    +43.1666
iter:  17 05:14:50  -998.093317  -1.74  -1.54    +44.4005
iter:  18 05:17:25  -971.471637  -1.77  -1.40    +46.7362
iter:  19 05:20:00  -966.315831  -2.14  -1.57    +49.1141
iter:  20 05:22:34  -968.848603  -2.33  -1.63    +52.8361
iter:  21 05:25:09  -966.880539  -2.18  -1.63    +54.2615
iter:  22 05:27:45  -987.607890  -1.88  -1.65    +56.8182
iter:  23 05:30:20 -1048.540128  -1.59  -1.51    +59.8181
iter:  24 05:32:55  -965.683373  -1.96  -1.25    +59.5393
iter:  25 05:35:29  -968.523325  -2.34  -1.74    +61.9988
iter:  26 05:38:05  -963.102611  -2.73  -1.73    +62.1519
iter:  27 05:40:39  -965.484149  -2.92  -1.82    +65.4140
iter:  28 05:43:14  -963.847419  -2.85  -1.80    +67.3049
iter:  29 05:45:49 -1080.529447  -1.62  -1.90    +70.2245
iter:  30 05:48:23  -972.866475  -1.77  -1.22    +71.7131
iter:  31 05:50:58  -970.128730  -2.45  -1.74    +73.1202
iter:  32 05:53:33  -969.946923  -2.44  -1.84    +73.7109
iter:  33 05:56:08  -967.496013  -2.36  -1.93    +74.8586
iter:  34 05:58:43  -968.011010  -2.94  -2.00    +77.7201
iter:  35 06:01:18  -999.407862  -2.08  -2.01    +80.6970
iter:  36 06:03:53  -968.589101  -2.36  -1.49    +82.8502
iter:  37 06:06:29  -968.638376  -3.09  -2.06    +85.6702
iter:  38 06:09:04  -970.226492  -3.00  -2.13    +86.9815
iter:  39 06:11:39  -969.364713  -3.13  -2.06    +87.7115
iter:  40 06:14:14  -969.822269  -3.07  -2.23    +89.0600
iter:  41 06:16:48  -971.375544  -2.85  -2.24    +90.1697
iter:  42 06:19:23  -971.772731  -2.99  -2.11    +90.7925
iter:  43 06:21:58  -971.246100  -3.12  -2.08    +91.2464
iter:  44 06:24:33  -970.477104  -3.32  -2.20    +91.2058
iter:  45 06:27:08  -971.185490  -3.40  -2.40    +92.2788
iter:  46 06:29:44  -970.901603  -3.44  -2.26    +92.7243
iter:  47 06:32:19  -970.819244  -3.50  -2.37    +93.4472
iter:  48 06:34:55  -971.671063  -3.52  -2.51    +93.9122
iter:  49 06:37:29  -971.104133  -3.64  -2.27    +93.9793
iter:  50 06:40:03  -971.133226  -3.55  -2.54    +94.1700
iter:  51 06:42:35  -971.159711c -3.69  -2.56    +94.5054
iter:  52 06:45:07  -971.513242  -3.90  -2.67    +94.4907
iter:  53 06:47:37  -971.259493  -3.92  -2.42    +94.5760
iter:  54 06:50:08  -972.254647  -3.46  -2.70    +94.6640
iter:  55 06:52:39  -971.395762  -3.63  -2.27    +94.7057
iter:  56 06:55:10  -971.491046  -4.08  -2.65    +94.8559
iter:  57 06:57:40  -971.617184  -4.05  -2.64    +95.3148
iter:  58 07:00:10  -971.928142  -3.27  -2.63    +96.4682
iter:  59 07:02:41  -971.837354  -3.94  -2.50    +96.1679
iter:  60 07:05:12  -974.091510  -3.22  -2.64    +96.3494
iter:  61 07:07:42  -971.873606  -3.45  -2.11    +96.2921
iter:  62 07:10:13  -971.852783  -3.68  -2.60    +96.2210
iter:  63 07:12:44  -973.162119  -3.34  -2.50    +96.1575
iter:  64 07:15:14  -971.962789  -3.72  -2.16    +95.8364
iter:  65 07:17:45  -972.640009  -3.76  -2.48    +95.3863
iter:  66 07:20:16  -975.169573  -2.86  -2.26    +95.2922
iter:  67 07:22:47  -972.070217  -3.03  -2.01    +95.0080
iter:  68 07:25:17  -971.906826  -3.73  -2.53    +94.8468
iter:  69 07:27:49  -972.072317  -3.57  -2.62    +94.1403
iter:  70 07:30:20  -971.941970  -3.77  -2.54    +94.1670
iter:  71 07:32:50  -971.842459  -4.51  -2.58    +93.9353
iter:  72 07:35:21  -971.786253  -4.40  -2.74    +93.6954
iter:  73 07:37:52  -971.861732c -4.53  -2.90    +93.7142
iter:  74 07:40:23  -971.820371c -4.19  -2.72    +93.5293
iter:  75 07:42:54  -971.796275c -4.36  -2.88    +93.5335
iter:  76 07:45:25  -971.836949c -4.19  -2.94    +93.4837
iter:  77 07:47:56  -971.818321c -4.36  -2.90    +93.3473
iter:  78 07:50:27  -971.819687c -4.43  -2.94    +93.4838
iter:  79 07:52:58  -971.805430c -4.83  -2.97    +93.3640
iter:  80 07:55:29  -971.801468c -5.21  -3.12    +93.3672
iter:  81 07:58:00  -971.813822c -4.97  -3.26    +93.2213
iter:  82 08:00:30  -971.815979c -5.41  -3.27    +93.3124
iter:  83 08:03:01  -971.829257c -4.83  -3.28    +93.3392
iter:  84 08:05:32  -971.854030c -5.01  -3.27    +93.2570
iter:  85 08:08:03  -971.844539c -5.75  -3.09    +93.2459
iter:  86 08:10:34  -971.852433c -4.94  -3.18    +93.0631
iter:  87 08:13:04  -971.865778c -4.97  -3.17    +92.9271
iter:  88 08:15:35  -971.862066c -4.83  -3.15    +92.8777
iter:  89 08:18:07  -971.871808c -4.80  -3.15    +92.8015
iter:  90 08:20:38  -971.866097c -5.31  -3.06    +92.6018
iter:  91 08:23:09  -971.885271c -4.77  -3.16    +92.3580
iter:  92 08:25:40  -971.873203c -5.82  -3.05    +92.4111
iter:  93 08:28:11  -971.951326c -4.72  -3.16    +92.3703
iter:  94 08:30:43  -971.889742c -5.19  -2.83    +92.3378
iter:  95 08:33:14  -971.901309c -5.26  -3.06    +92.2369
iter:  96 08:35:44  -971.907575c -4.86  -3.00    +92.3354
iter:  97 08:38:15  -971.902696c -4.75  -3.01    +92.3007
iter:  98 08:40:46  -972.004610c -4.74  -3.07    +92.2836
iter:  99 08:43:17  -971.931903c -4.61  -2.74    +92.2945
iter: 100 08:45:48  -971.924763c -4.40  -2.90    +92.1334
iter: 101 08:48:19  -971.980557c -4.39  -2.92    +92.0814
iter: 102 08:50:50  -971.935503c -3.98  -2.78    +92.1692
iter: 103 08:53:20  -971.997771c -3.80  -2.88    +92.0402
iter: 104 08:55:51  -972.364401  -3.76  -2.75    +91.8488
iter: 105 08:58:21  -971.917921  -4.04  -2.43    +92.1939
iter: 106 09:00:52  -971.903572  -4.74  -2.88    +91.9354
iter: 107 09:03:22  -971.893716c -5.10  -3.04    +91.8059
iter: 108 09:05:53  -971.907411c -5.13  -3.11    +91.7250
iter: 109 09:08:23  -971.891214c -4.61  -3.04    +91.6952
iter: 110 09:10:53  -972.292832  -3.95  -3.19    +91.6950
iter: 111 09:13:24  -971.949282  -4.06  -2.46    +91.7043
iter: 112 09:15:55  -971.895573  -4.80  -2.86    +91.6938
iter: 113 09:18:25  -971.910292c -5.04  -3.15    +91.7145
iter: 114 09:20:56  -971.888371c -4.75  -3.05    +91.7265
iter: 115 09:23:27  -971.882091c -5.30  -3.32    +91.7247
iter: 116 09:25:58  -971.886473c -5.41  -3.66    +91.5817
iter: 117 09:28:30  -971.892508c -5.33  -3.57    +91.5470
iter: 118 09:31:01  -971.887808c -5.72  -3.34    +91.5941
iter: 119 09:33:33  -971.886292c -5.78  -3.66    +91.6221
iter: 120 09:36:03  -971.887993c -5.88  -3.73    +91.5785
iter: 121 09:38:36  -971.888346c -6.22  -3.76    +91.5597
iter: 122 09:41:07  -971.889409c -6.29  -3.73    +91.5418
iter: 123 09:43:39  -971.889231c -6.00  -3.61    +91.5095
iter: 124 09:46:09  -971.890375c -6.07  -3.74    +91.5141
iter: 125 09:48:41  -971.890061c -6.31  -3.69    +91.5117
iter: 126 09:51:12  -971.891830c -6.29  -3.63    +91.5239
iter: 127 09:53:43  -971.889936c -6.00  -3.53    +91.5384
iter: 128 09:56:15  -971.891816c -5.61  -3.63    +91.5439
iter: 129 09:58:46  -971.889392c -5.52  -3.58    +91.5274
iter: 130 10:01:18  -971.894214c -5.57  -3.60    +91.5395
iter: 131 10:03:49  -971.889781c -6.16  -3.44    +91.4963
iter: 132 10:06:21  -971.890086c -6.46  -3.79    +91.5033
iter: 133 10:08:52  -971.890259c -7.09  -3.71    +91.4930
iter: 134 10:11:24  -971.891718c -5.90  -3.70    +91.4554
iter: 135 10:13:55  -971.891259c -5.90  -3.65    +91.4726
iter: 136 10:16:28  -971.890669c -6.07  -3.57    +91.4543
iter: 137 10:18:59  -971.889464c -6.14  -3.62    +91.4421
iter: 138 10:21:31  -971.890813c -5.66  -3.92    +91.4579
iter: 139 10:24:03  -971.890031c -5.91  -3.61    +91.4687
iter: 140 10:26:35  -971.889013c -6.32  -3.77    +91.4617
iter: 141 10:29:06  -971.889164c -6.53  -3.77    +91.4622
iter: 142 10:31:41  -971.889147c -6.61  -4.11c   +91.4784
iter: 143 10:34:17  -971.889152c -6.64  -4.15c   +91.4929
iter: 144 10:36:52  -971.889051c -6.61  -4.05c   +91.4937
iter: 145 10:39:27  -971.889490c -7.17  -4.09c   +91.4923
iter: 146 10:42:03  -971.889130c -7.06  -3.94    +91.4831
iter: 147 10:44:37  -971.889688c -6.58  -3.97    +91.4846
iter: 148 10:47:12  -971.889490c -6.88  -4.05c   +91.4859
iter: 149 10:49:48  -971.890740c -6.39  -4.14c   +91.4952
iter: 150 10:52:22  -971.889442c -6.52  -3.81    +91.4947
iter: 151 10:54:57  -971.891193c -6.23  -4.07c   +91.5072
iter: 152 10:57:33  -971.889692c -6.08  -3.78    +91.4922
iter: 153 11:00:08  -971.890039c -6.21  -3.72    +91.4747
iter: 154 11:02:43  -971.889713c -6.45  -4.05c   +91.5027
iter: 155 11:05:18  -971.889572c -6.99  -4.30c   +91.5033
iter: 156 11:07:54  -971.889861c -7.20  -4.32c   +91.5013
iter: 157 11:10:30  -971.889721c -7.28  -4.34c   +91.4991
iter: 158 11:13:05  -971.889935c -7.30  -4.44c   +91.5011
iter: 159 11:15:41  -971.889932c -6.97  -4.51c   +91.5046
iter: 160 11:18:16  -971.889968c -7.47c -4.37c   +91.5066

Converged after 160 iterations.

Dipole moment: (7.818290, 3.682744, -0.112411) |e|*Ang

Total magnetic moment: (0.000000, 0.000000, 91.506573)
Local magnetic moments:
   0 Cr ( 0.000000,  0.000000, -2.327623)
   1 Fe ( 0.000000,  0.000000,  2.539360)
   2 Ni ( 0.000000,  0.000000,  0.443804)
   3 Co ( 0.000000,  0.000000,  1.246003)
   4 Ni ( 0.000000,  0.000000,  0.142769)
   5 Cr ( 0.000000,  0.000000,  1.403895)
   6 Fe ( 0.000000,  0.000000,  2.666017)
   7 Cr ( 0.000000,  0.000000, -2.300351)
   8 Cr ( 0.000000,  0.000000,  2.432342)
   9 Cr ( 0.000000,  0.000000, -1.308381)
  10 Ni ( 0.000000,  0.000000,  0.350351)
  11 Cr ( 0.000000,  0.000000, -2.427360)
  12 Cr ( 0.000000,  0.000000,  2.053829)
  13 Cr ( 0.000000,  0.000000, -3.014320)
  14 Fe ( 0.000000,  0.000000,  3.035072)
  15 Cr ( 0.000000,  0.000000,  2.782644)
  16 Ni ( 0.000000,  0.000000, -0.000525)
  17 Ni ( 0.000000,  0.000000,  0.280961)
  18 Fe ( 0.000000,  0.000000,  2.553884)
  19 Cr ( 0.000000,  0.000000, -2.483874)
  20 Cr ( 0.000000,  0.000000, -1.526208)
  21 Ni ( 0.000000,  0.000000,  0.196375)
  22 Cr ( 0.000000,  0.000000,  2.965849)
  23 Ni ( 0.000000,  0.000000,  0.288646)
  24 Fe ( 0.000000,  0.000000,  2.265001)
  25 Co ( 0.000000,  0.000000,  0.968626)
  26 Co ( 0.000000,  0.000000,  1.751385)
  27 Co ( 0.000000,  0.000000,  1.728590)
  28 Cr ( 0.000000,  0.000000, -1.789289)
  29 Fe ( 0.000000,  0.000000,  2.150053)
  30 Fe ( 0.000000,  0.000000,  2.311471)
  31 Co ( 0.000000,  0.000000,  1.363136)
  32 Fe ( 0.000000,  0.000000,  2.289596)
  33 Cr ( 0.000000,  0.000000, -1.714147)
  34 Fe ( 0.000000,  0.000000,  1.838935)
  35 Ni ( 0.000000,  0.000000,  0.450204)
  36 Ni ( 0.000000,  0.000000,  0.071146)
  37 Cr ( 0.000000,  0.000000, -1.290533)
  38 Fe ( 0.000000,  0.000000,  2.031080)
  39 Cr ( 0.000000,  0.000000, -1.041596)
  40 Fe ( 0.000000,  0.000000,  2.360503)
  41 Ni ( 0.000000,  0.000000,  0.109496)
  42 Co ( 0.000000,  0.000000,  1.442058)
  43 Ni ( 0.000000,  0.000000,  0.343999)
  44 Co ( 0.000000,  0.000000,  1.491360)
  45 Cr ( 0.000000,  0.000000, -0.008648)
  46 Ni ( 0.000000,  0.000000,  0.338947)
  47 Co ( 0.000000,  0.000000,  1.547083)
  48 Ni ( 0.000000,  0.000000,  0.397531)
  49 Fe ( 0.000000,  0.000000,  1.953534)
  50 Co ( 0.000000,  0.000000,  1.342808)
  51 Fe ( 0.000000,  0.000000,  2.534777)
  52 Cr ( 0.000000,  0.000000, -2.024972)
  53 Fe ( 0.000000,  0.000000,  1.989938)
  54 Cr ( 0.000000,  0.000000, -2.118720)
  55 Fe ( 0.000000,  0.000000,  2.125955)
  56 Co ( 0.000000,  0.000000,  1.269812)
  57 Co ( 0.000000,  0.000000,  1.149375)
  58 Co ( 0.000000,  0.000000,  1.306418)
  59 Cr ( 0.000000,  0.000000, -2.003150)
  60 Co ( 0.000000,  0.000000,  1.250335)
  61 Cr ( 0.000000,  0.000000, -1.489414)
  62 Co ( 0.000000,  0.000000,  1.420585)
  63 Fe ( 0.000000,  0.000000,  2.253778)
  64 Co ( 0.000000,  0.000000,  1.266802)
  65 Fe ( 0.000000,  0.000000,  2.089382)
  66 Ni ( 0.000000,  0.000000,  0.419021)
  67 Cr ( 0.000000,  0.000000, -2.054032)
  68 Fe ( 0.000000,  0.000000,  2.405149)
  69 Cr ( 0.000000,  0.000000, -2.071600)
  70 Cr ( 0.000000,  0.000000, -2.272477)
  71 Ni ( 0.000000,  0.000000,  0.417832)
  72 Ni ( 0.000000,  0.000000,  0.409281)
  73 Co ( 0.000000,  0.000000,  0.771992)
  74 Fe ( 0.000000,  0.000000,  1.913821)
  75 Fe ( 0.000000,  0.000000,  2.546832)
  76 Ni ( 0.000000,  0.000000,  0.629478)
  77 Ni ( 0.000000,  0.000000,  0.538426)
  78 Fe ( 0.000000,  0.000000,  2.387329)
  79 Co ( 0.000000,  0.000000,  1.461788)
  80 Co ( 0.000000,  0.000000,  1.248542)
  81 Fe ( 0.000000,  0.000000,  2.695220)
  82 Ni ( 0.000000,  0.000000,  0.630354)
  83 Co ( 0.000000,  0.000000,  1.668520)
  84 Fe ( 0.000000,  0.000000,  2.290686)
  85 Ni ( 0.000000,  0.000000,  0.283650)
  86 Ni ( 0.000000,  0.000000,  0.305577)
  87 Co ( 0.000000,  0.000000,  1.594366)
  88 Fe ( 0.000000,  0.000000,  2.517731)
  89 Fe ( 0.000000,  0.000000,  2.297670)
  90 Fe ( 0.000000,  0.000000,  2.088663)
  91 Co ( 0.000000,  0.000000,  1.583761)
  92 Ni ( 0.000000,  0.000000,  0.483485)
  93 Fe ( 0.000000,  0.000000,  2.305291)
  94 Fe ( 0.000000,  0.000000,  2.042079)
  95 Co ( 0.000000,  0.000000,  1.442014)
  96 Co ( 0.000000,  0.000000,  1.562125)
  97 Fe ( 0.000000,  0.000000,  2.553683)
  98 Co ( 0.000000,  0.000000,  1.535977)
  99 Fe ( 0.000000,  0.000000,  2.373769)
 100 Co ( 0.000000,  0.000000,  1.650090)
 101 Co ( 0.000000,  0.000000,  1.854101)
 102 Ni ( 0.000000,  0.000000,  0.673654)
 103 Fe ( 0.000000,  0.000000,  2.631355)
 104 Co ( 0.000000,  0.000000,  1.591887)
 105 Co ( 0.000000,  0.000000,  1.621876)
 106 Ni ( 0.000000,  0.000000,  0.636970)
 107 Fe ( 0.000000,  0.000000,  2.775998)
 108 Ni ( 0.000000,  0.000000,  0.644138)
 109 Cr ( 0.000000,  0.000000, -1.785173)
 110 Co ( 0.000000,  0.000000,  1.603266)
 111 Ni ( 0.000000,  0.000000,  0.456142)
 112 Ni ( 0.000000,  0.000000,  0.523926)
 113 Ni ( 0.000000,  0.000000,  0.241001)
 114 Cr ( 0.000000,  0.000000, -1.964107)
 115 Cr ( 0.000000,  0.000000, -2.672245)
 116 Ni ( 0.000000,  0.000000,  0.415750)
 117 Cr ( 0.000000,  0.000000, -2.983360)
 118 Co ( 0.000000,  0.000000,  1.492611)
 119 Cr ( 0.000000,  0.000000,  2.733305)
 120 Ni ( 0.000000,  0.000000,  0.674308)
 121 Ni ( 0.000000,  0.000000,  0.455364)
 122 Co ( 0.000000,  0.000000,  1.690719)
 123 Cr ( 0.000000,  0.000000, -2.881828)
 124 Cr ( 0.000000,  0.000000, -2.172845)

Energy contributions relative to reference atoms: (reference = -4451268.207082)

Kinetic:       +281.723281
Potential:     -323.413613
External:        +0.000000
XC:            -971.165197
Entropy (-ST):   -5.641887
Local:          +43.786504
--------------------------
Free energy:   -974.710911
Extrapolated:  -971.889968

Dipole-layer corrected work functions: 4.578673, 4.730291 eV

Spin contamination: 58.429958 electrons
Showing all kpts
                      Up                     Down
 Kpt  Band  Eigenvalues  Occupancy  Eigenvalues  Occupancy
  0   606      0.04724    0.99914      1.13713    0.02111
  0   607      0.05471    0.99908      1.14201    0.02012
  0   608      0.06950    0.99893      1.14882    0.01882
  0   609      0.07501    0.99887      1.16172    0.01658

  1   606      0.07361    0.99889      1.13788    0.02095
  1   607      0.08278    0.99878      1.15438    0.01782
  1   608      0.08994    0.99869      1.16876    0.01547
  1   609      0.09521    0.99862      1.17600    0.01441


Fermi level: 0.75346

No gap

Forces in eV/Ang:
  0 Cr    0.34133    0.21237    0.09668
  1 Fe   -1.14276    1.15315    1.01685
  2 Ni   -0.29934    0.11884   -0.39773
  3 Co    0.26884    0.24408    0.62897
  4 Ni   -0.76579   -0.24306   -0.92230
  5 Cr   -0.86106   -1.15643   -0.07418
  6 Fe    0.76425   -0.84371   -0.23013
  7 Cr    1.55980   -0.60524   -0.08956
  8 Cr   -0.18622   -0.97918    0.29749
  9 Cr   -0.02087    0.69120   -0.20490
 10 Ni    0.18006    1.48295    0.17002
 11 Cr   -0.56860    1.07294   -0.24049
 12 Cr   -0.02679    0.03681   -0.19278
 13 Cr    0.62875    0.80813    0.73653
 14 Fe    0.41169   -0.35605    1.20038
 15 Cr    0.98131   -1.09424    0.19181
 16 Ni   -0.34077    0.24726    0.07541
 17 Ni   -0.06146   -1.34637    0.74808
 18 Fe   -0.63408    0.17745   -0.74355
 19 Cr    0.28144   -1.10156   -0.46486
 20 Cr    0.59550    0.07529    0.11406
 21 Ni   -0.01406    0.29637    0.87275
 22 Cr    0.56985   -1.08994    0.30739
 23 Ni   -0.55760    0.58807   -0.27402
 24 Fe   -0.49788    1.37357    0.76901
 25 Co   -0.33508    0.59107   -0.14977
 26 Co    0.11889    0.28621   -1.18627
 27 Co    0.53416   -0.66574   -0.07934
 28 Cr   -0.05706    0.30197   -1.11701
 29 Fe   -0.20946   -0.41114    0.96460
 30 Fe   -0.14809   -0.46203   -0.10572
 31 Co    0.07535   -0.42304    0.13465
 32 Fe    0.27261    0.35409   -0.56116
 33 Cr    0.34572    0.24078    0.28862
 34 Fe    0.59141   -0.99366   -0.15850
 35 Ni   -1.42591   -0.15422   -0.29326
 36 Ni    0.41380   -0.59330   -0.25950
 37 Cr    0.11106    0.60814   -0.52435
 38 Fe   -0.75154    1.38246   -0.04236
 39 Cr    1.37969   -0.43235    0.01472
 40 Fe   -0.13613    0.09588    0.36442
 41 Ni    1.89607   -0.45350    0.46551
 42 Co   -0.46938   -0.53659   -0.40539
 43 Ni   -0.40101    0.75833   -0.86888
 44 Co    0.34426   -0.22563   -0.16290
 45 Cr   -0.13021    1.28282   -0.15812
 46 Ni    0.37734   -0.25712    0.29970
 47 Co   -0.74859    0.10487    0.05981
 48 Ni    0.32407   -0.81850    1.04102
 49 Fe   -0.68554   -0.07084   -1.04779
 50 Co   -1.02094   -0.21668    0.10171
 51 Fe   -0.31765    0.73697   -0.75173
 52 Cr    0.12795   -0.40555   -0.54322
 53 Fe   -0.53741    1.07468   -0.90791
 54 Cr    0.38932    0.05977    0.75116
 55 Fe    0.69823    0.00146   -0.68161
 56 Co   -0.96321    0.33259   -2.06230
 57 Co    0.21447   -0.65391    0.53835
 58 Co    0.47686    0.45594    1.01793
 59 Cr   -1.19726   -0.47442   -0.44756
 60 Co   -0.37122    1.45826    0.51990
 61 Cr    1.76934   -1.01968    0.70892
 62 Co    1.06334   -2.03851   -0.37157
 63 Fe   -1.35721   -0.44815    0.57187
 64 Co   -0.33702    1.08157    0.79326
 65 Fe   -0.88289    1.37364   -0.00459
 66 Ni   -0.29829    1.62210   -1.14929
 67 Cr   -0.26189    0.41629    0.78706
 68 Fe    0.57376   -0.32608   -0.14362
 69 Cr   -0.18693   -1.21455   -0.93376
 70 Cr   -0.23482    0.34910   -0.68554
 71 Ni    0.11970   -0.15811    0.10383
 72 Ni   -0.27820    0.20751    0.46311
 73 Co   -0.40865    0.38844    0.82051
 74 Fe    0.15661   -0.82066   -0.47916
 75 Fe    0.22787    0.47883   -0.31103
 76 Ni   -0.87614   -1.37497    2.13239
 77 Ni   -0.19860   -0.56510   -0.76280
 78 Fe   -0.20558   -0.11854    0.17232
 79 Co    0.39524    1.02523   -0.54272
 80 Co   -0.84066   -1.91269    0.02876
 81 Fe   -0.62203    0.94311    0.44317
 82 Ni    1.92544    1.45119   -0.12784
 83 Co    0.36275   -0.24704    0.66369
 84 Fe    0.14299   -0.47598   -0.08357
 85 Ni   -0.83750    1.09117    0.94490
 86 Ni    1.03636   -0.48413   -0.33152
 87 Co   -0.07454    0.04614    0.70209
 88 Fe    0.22197   -0.64866    0.57242
 89 Fe   -0.18896    0.24335   -0.28301
 90 Fe    0.05350    0.06816    0.41067
 91 Co    0.15841    0.30625   -0.03730
 92 Ni    0.48269    0.87897    0.13540
 93 Fe   -0.25207    0.05670    0.14299
 94 Fe    0.35819    0.50939    0.02853
 95 Co    1.36853   -0.73290    0.58209
 96 Co    0.22541    0.57909    1.00636
 97 Fe   -1.51294    0.09805    0.45328
 98 Co    1.00607   -1.15488    0.49928
 99 Fe   -1.41612   -0.78942    0.57019
100 Co    1.50982   -0.54271   -0.37546
101 Co    0.45258   -0.29356   -0.30477
102 Ni   -1.16678    0.00719   -0.14987
103 Fe    1.58284    0.64712   -0.87734
104 Co   -1.23949   -0.70192    1.13121
105 Co   -0.09348    0.16282   -0.55001
106 Ni   -0.22066   -1.10910    1.01280
107 Fe   -0.56437    0.15700    0.50866
108 Ni   -0.03463   -0.07019   -1.13854
109 Cr   -0.04443   -0.74797    0.21816
110 Co   -0.35254    0.08378   -0.90231
111 Ni   -1.74436    0.02258    0.23025
112 Ni    1.87101   -0.20931   -0.28709
113 Ni   -0.36262    0.16717   -0.82007
114 Cr    0.71015    1.16277   -0.07286
115 Cr   -0.10421   -0.03488    0.62443
116 Ni    0.67510    0.75462   -0.39064
117 Cr    0.52026   -1.08841   -0.38770
118 Co    0.57062   -0.63513    0.51871
119 Cr   -0.21553    0.18187    0.18400
120 Ni   -0.55678   -0.72175   -1.26322
121 Ni   -1.17277    1.33351   -0.08029
122 Co    0.39017    0.76304   -1.07580
123 Cr   -2.01102   -0.08166   -0.12632
124 Cr    1.83878    0.46489   -0.54157

Timing:                              incl.     excl.
-----------------------------------------------------------
Forces:                             38.405    38.405   0.2% |
Hamiltonian:                         1.299     0.010   0.0% |
 Atomic:                             0.378     0.001   0.0% |
  XC Correction:                     0.376     0.376   0.0% |
 Calculate atomic Hamiltonians:      0.431     0.431   0.0% |
 Communicate:                        0.093     0.093   0.0% |
 Initialize Hamiltonian:             0.001     0.001   0.0% |
 Poisson:                            0.083     0.083   0.0% |
 XC 3D grid:                         0.304     0.304   0.0% |
LCAO initialization:               268.350     0.407   0.0% |
 LCAO eigensolver:                  13.553     0.014   0.0% |
  Calculate projections:             0.000     0.000   0.0% |
  DenseAtomicCorrection:             0.000     0.000   0.0% |
  Distribute overlap matrix:         8.224     8.224   0.0% |
  Orbital Layouts:                   5.258     5.258   0.0% |
  Potential matrix:                  0.008     0.008   0.0% |
  Sum over cells:                    0.050     0.050   0.0% |
 LCAO to grid:                     252.337   252.337   1.0% |
 Set positions (LCAO WFS):           2.052     1.773   0.0% |
  Basic WFS set positions:           0.004     0.004   0.0% |
  Basis functions set positions:     0.001     0.001   0.0% |
  P tci:                             0.000     0.000   0.0% |
  ST tci:                            0.106     0.106   0.0% |
  mktci:                             0.169     0.169   0.0% |
PWDescriptor:                        0.096     0.096   0.0% |
SCF-cycle:                       24432.878     1.281   0.0% |
 Davidson:                       23947.628  7506.952  30.3% |-----------|
  Apply H:                         392.908   386.257   1.6% ||
   HMM T:                            6.651     6.651   0.0% |
  Subspace diag:                  2616.336     0.047   0.0% |
   calc_h_matrix:                 1032.664   691.044   2.8% ||
    Apply H:                       341.621   335.040   1.4% ||
     HMM T:                          6.581     6.581   0.0% |
   diagonalize:                    249.819   249.819   1.0% |
   rotate_psi:                    1333.805  1333.805   5.4% |-|
  calc. matrices:                 6102.127  5462.054  22.1% |--------|
   Apply H:                        640.074   626.737   2.5% ||
    HMM T:                          13.337    13.337   0.1% |
  diagonalize:                    4496.558  4496.558  18.2% |------|
  rotate_psi:                     2832.746  2832.746  11.4% |----|
 Density:                          263.579     0.004   0.0% |
  Atomic density matrices:           3.699     3.699   0.0% |
  Mix:                              90.580    90.580   0.4% |
  Multipole moments:                 0.104     0.104   0.0% |
  Pseudo density:                  169.192   169.186   0.7% |
   Symmetrize density:               0.006     0.006   0.0% |
 Hamiltonian:                      202.010     1.541   0.0% |
  Atomic:                           61.113     0.188   0.0% |
   XC Correction:                   60.925    60.925   0.2% |
  Calculate atomic Hamiltonians:    70.132    70.132   0.3% |
  Communicate:                      15.599    15.599   0.1% |
  Poisson:                           5.387     5.387   0.0% |
  XC 3D grid:                       48.238    48.238   0.2% |
 Orthonormalize:                    18.379     0.001   0.0% |
  calc_s_matrix:                     2.308     2.308   0.0% |
  inverse-cholesky:                  0.893     0.893   0.0% |
  projections:                      11.127    11.127   0.0% |
  rotate_psi_s:                      4.050     4.050   0.0% |
Set symmetry:                        0.001     0.001   0.0% |
Other:                               6.276     6.276   0.0% |
-----------------------------------------------------------
Total:                                     24747.305 100.0%

Date: Mon Apr 17 11:18:58 2023
