
  ___ ___ ___ _ _ _  
 |   |   |_  | | | | 
 | | | | | . | | | | 
 |__ |  _|___|_____|  22.8.0
 |___|_|             

User:   c.zeng@d0047
Date:   Fri Apr 14 00:10:13 2023
Arch:   x86_64
Pid:    132507
CWD:    /home/c.zeng/projects/hea-corrosion/hea-mlp/data-curation/bulk-md/dft-jobs/61
Python: 3.8.1
gpaw:   /home/c.zeng/usr/installs/gpaw/source/gpaw-22.8.0/gpaw
_gpaw:  /home/c.zeng/usr/installs/gpaw/source/gpaw-22.8.0/
        _gpaw.cpython-38-x86_64-linux-gnu.so
ase:    /home/c.zeng/.local/lib/python3.8/site-packages/ase-3.22.1-py3.8.egg/ase (version 3.22.1)
numpy:  /shared/centos7/python/3.8.1/lib/python3.8/site-packages/numpy (version 1.17.4)
scipy:  /shared/centos7/python/3.8.1/lib/python3.8/site-packages/scipy (version 1.4.1)
libxc:  4.2.3
units:  Angstrom and eV
cores: 30
OpenMP: False
OMP_NUM_THREADS: 1

Input parameters:
  convergence: {energy: 0.0001}
  kpts: [2 2 2]
  maxiter: 666
  mode: {ecut: 350.0,
         name: pw}
  occupations: {fixmagmom: False,
                name: fermi-dirac,
                width: 0.1}
  spinpol: True
  xc: PBE

System changes: positions, numbers, cell, pbc, initial_charges, initial_magmoms 

Initialize ...

species:
  Fe:
    name: Iron
    id: 37abbd8d6c3c35915a9b583b742da910
    Z: 26.0
    valence: 8
    core: 18
    charge: 0.0
    file: /home/c.zeng/usr/data/gpaw-setups-0.9.20000/Fe.PBE.gz
    compensation charges: {type: gauss,
                           rc: 0.33,
                           lmax: 2}
    cutoffs: {filter: 2.06,
              core: 2.67}
    valence states:
      #              energy  rcut
      - 4s(2.00)    -5.291   1.164
      - 4p(0.00)    -1.326   1.058
      - 3d(6.00)    -7.505   1.058
      -  s          21.920   1.164
      -  p          25.885   1.058
      -  d          19.706   1.058
  
    # Using partial waves for Fe as LCAO basis

  Cr:
    name: Chromium
    id: 33f258bda2ca9f93018e70263a35547b
    Z: 24.0
    valence: 6
    core: 18
    charge: 0.0
    file: /home/c.zeng/usr/data/gpaw-setups-0.9.20000/Cr.PBE.gz
    compensation charges: {type: gauss,
                           rc: 0.35,
                           lmax: 2}
    cutoffs: {filter: 2.14,
              core: 3.04}
    valence states:
      #              energy  rcut
      - 4s(1.00)    -4.007   1.164
      - 4p(0.00)    -0.989   1.217
      - 3d(5.00)    -2.913   1.111
      -  s          23.205   1.164
      -  p          26.223   1.217
      -  d          24.299   1.111
  
    # Using partial waves for Cr as LCAO basis

  Ni:
    name: Nickel
    id: 0d9f38a9d6e76a2886f07bb4381f212b
    Z: 28.0
    valence: 16
    core: 12
    charge: 0.0
    file: /home/c.zeng/usr/data/gpaw-setups-0.9.20000/Ni.PBE.gz
    compensation charges: {type: gauss,
                           rc: 0.36,
                           lmax: 2}
    cutoffs: {filter: 2.14,
              core: 1.98}
    valence states:
      #              energy  rcut
      - 4s(2.00)    -5.642   1.164
      - 3p(6.00)   -71.394   1.207
      - 4p(0.00)    -1.226   1.207
      - 3d(8.00)    -8.875   1.138
      -  s          21.570   1.164
      -  d          18.337   1.138
  
    # Using partial waves for Ni as LCAO basis

  Al:
    name: Aluminium
    id: 0292cae29f5d6237e50f6abdd43a7bdd
    Z: 13.0
    valence: 3
    core: 10
    charge: 0.0
    file: /home/c.zeng/usr/data/gpaw-setups-0.9.20000/Al.PBE.gz
    compensation charges: {type: gauss,
                           rc: 0.34,
                           lmax: 2}
    cutoffs: {filter: 1.91,
              core: 2.36}
    valence states:
      #              energy  rcut
      - 3s(2.00)    -7.753   1.085
      - 3p(1.00)    -2.712   1.085
      -  s          19.459   1.085
      -  p          24.499   1.085
      -  d           0.000   1.085
  
    # Using partial waves for Al as LCAO basis

  Co:
    name: Cobalt
    id: 339d20d5b0b93d2de9531a1bee871d91
    Z: 27.0
    valence: 9
    core: 18
    charge: 0.0
    file: /home/c.zeng/usr/data/gpaw-setups-0.9.20000/Co.PBE.gz
    compensation charges: {type: gauss,
                           rc: 0.32,
                           lmax: 2}
    cutoffs: {filter: 1.87,
              core: 2.55}
    valence states:
      #              energy  rcut
      - 4s(2.00)    -5.469   1.005
      - 4p(0.00)    -1.277   1.058
      - 3d(7.00)    -8.205   1.005
      -  s          21.742   1.005
      -  p          25.934   1.058
      -  d          19.007   1.005
  
    # Using partial waves for Co as LCAO basis

Reference energy: -3382523.201499  # eV

Spin-polarized calculation.
Magnetic moment: 128.800000

Convergence criteria:
 Maximum [total energy] change in last 3 cyles: 0.0001 eV / electron
 Maximum integral of absolute [dens]ity change: 0.0001 electrons / valence electron
 Maximum integral of absolute [eigenst]ate change: 4e-08 eV^2 / valence electron
 Maximum number of scf [iter]ations: 666
 (Square brackets indicate name in SCF output, whereas a 'c' in
 the SCF output indicates the quantity has converged.)

Symmetries present (total): 1

  ( 1  0  0)
  ( 0  1  0)
  ( 0  0  1)

8 k-points: 2 x 2 x 2 Monkhorst-Pack grid
4 k-points in the irreducible part of the Brillouin zone
       k-points in crystal coordinates                weights
   0:     0.25000000   -0.25000000   -0.25000000          2/8
   1:     0.25000000   -0.25000000    0.25000000          2/8
   2:     0.25000000    0.25000000   -0.25000000          2/8
   3:     0.25000000    0.25000000    0.25000000          2/8

Wave functions: Plane wave expansion
  Cutoff energy: 350.000 eV
  Number of coefficients (min, max): 18865, 18865
  Pulay-stress correction: 0.000000 eV/Ang^3 (de/decut=0.000000)
  Using FFTW library
  ScaLapack parameters: grid=1x1, blocksize=None
  Wavefunction extrapolation:
    Improved wavefunction reuse through dual PAW basis 

Occupation numbers: Fermi-Dirac:
  width: 0.1000  # eV
 

Eigensolver
   Davidson(niter=2) 

Densities:
  Coarse grid: 48*48*48 grid
  Fine grid: 96*96*96 grid
  Total Charge: 0.000000 

Density mixing:
  Method: difference
  Backend: pulay
  Linear mixing parameter: 0.05
  old densities: 5
  Damping of long wavelength oscillations: 50 

Hamiltonian:
  XC and Coulomb potentials evaluated on a 96*96*96 grid
  Using the PBE Exchange-Correlation functional
  External potential:
    NoExternalPotential
 

XC parameters: PBE with 2 nearest neighbor stencil

Memory estimate:
  Process memory now: 250.28 MiB
  Calculator: 1017.03 MiB
    Density: 5.55 MiB
      Arrays: 2.05 MiB
      Localized functions: 2.68 MiB
      Mixer: 0.82 MiB
    Hamiltonian: 1.60 MiB
      Arrays: 1.52 MiB
      XC: 0.00 MiB
      Poisson: 0.00 MiB
      vbar: 0.08 MiB
    Wavefunctions: 1009.87 MiB
      Arrays psit_nG: 747.28 MiB
      Eigensolver: 252.55 MiB
      Projections: 4.92 MiB
      Projectors: 0.73 MiB
      PW-descriptor: 4.39 MiB

Total number of cores used: 30
Parallelization over k-points: 2
Domain decomposition: 5 x 3 x 1

Number of atoms: 108
Number of atomic orbitals: 961
Number of bands in calculation: 649
Number of valence electrons: 945
Bands to converge: occupied

... initialized

Initializing position-dependent things.

Density initialized from atomic densities
Creating initial wave functions:
  649 bands from LCAO basis set

        .--------------------------.  
       /|           Fe             |  
      / |   Co          Ni     Ni  |  
     / Fe       Al       Ni        |  
    /   |Cr       Fe       AlCo    |  
   /    | CoiCo    CrCCr      Ni   |  
  /     |     FeAl    CrAl     Fe  |  
 *      CoAlCoCr Ni  Fe   Fe   CNi |  
 |Co    |CrFe   CrCoAl   FeCr    Co|  
 |  Ni  | AlNiCrFe AlAl   CrCr     Ni 
 |     Co  NiFeFe   Ni NiNi  CrCr  |  
 Fe    CoFe    AlFe CoiAl Co  NiFe |  
 |Co   CrAl     CrFe Co Cr Co      |  
 |      FeCAll------FeNi----CoNi---.  
 |     /   Al CNi             NCr /   
 |    Cr       CrCo    FeNi      Ni   
 |   / Fe           Co   Co     /     
 |  /      Fe                Cr/      
 | /  Ni                      /       
 |/    Cr                Co  /        
 *-----------------Al-------*         

Positions:
   0 Fe    10.916576   10.695009   10.941756    ( 0.0000,  0.0000,  2.0000)
   1 Cr    10.783300    1.749768    1.628982    ( 0.0000,  0.0000,  0.0000)
   2 Ni     1.898091    0.014358    1.756426    ( 0.0000,  0.0000,  1.5000)
   3 Cr     1.734890    1.898043   10.939029    ( 0.0000,  0.0000,  0.0000)
   4 Al     3.673486    0.129871   -0.127099    ( 0.0000,  0.0000,  0.0000)
   5 Fe     3.733619    1.733936    1.790141    ( 0.0000,  0.0000,  2.0000)
   6 Ni     5.353384   10.733433    1.974137    ( 0.0000,  0.0000,  1.5000)
   7 Al     5.434310    2.160598   -0.048947    ( 0.0000,  0.0000,  0.0000)
   8 Al     7.214635   10.926485    0.131749    ( 0.0000,  0.0000,  0.0000)
   9 Co     7.095013    1.866933    1.994813    ( 0.0000,  0.0000,  2.1000)
  10 Ni     8.992490   -0.084765    1.725497    ( 0.0000,  0.0000,  1.5000)
  11 Co     9.026247    1.849235    0.131718    ( 0.0000,  0.0000,  2.1000)
  12 Ni    -0.208001    3.578765   10.735058    ( 0.0000,  0.0000,  1.5000)
  13 Cr    10.517894    5.391957    1.879118    ( 0.0000,  0.0000,  0.0000)
  14 Fe     1.540938    3.525197    1.731445    ( 0.0000,  0.0000,  2.0000)
  15 Cr     1.884089    5.411492   10.818684    ( 0.0000,  0.0000,  0.0000)
  16 Co     3.649818    3.757976   10.747785    ( 0.0000,  0.0000,  2.1000)
  17 Cr     3.653233    5.376507    1.736573    ( 0.0000,  0.0000,  0.0000)
  18 Co     5.391887    3.738304    1.880480    ( 0.0000,  0.0000,  2.1000)
  19 Fe     5.561519    5.317581   -0.116975    ( 0.0000,  0.0000,  2.0000)
  20 Cr     7.305384    3.703523   -0.149341    ( 0.0000,  0.0000,  0.0000)
  21 Fe     7.349998    5.277869    1.721170    ( 0.0000,  0.0000,  2.0000)
  22 Co     8.913168    3.428530    1.889829    ( 0.0000,  0.0000,  2.1000)
  23 Al     9.058408    5.415742   10.752889    ( 0.0000,  0.0000,  0.0000)
  24 Ni    10.809486    7.112672   10.955723    ( 0.0000,  0.0000,  1.5000)
  25 Cr    10.852732    8.800667    1.938964    ( 0.0000,  0.0000,  0.0000)
  26 Cr     1.907551    7.205794    1.887286    ( 0.0000,  0.0000,  0.0000)
  27 Al     1.727183    8.812102    0.102393    ( 0.0000,  0.0000,  0.0000)
  28 Cr     3.671212    7.285320    0.036195    ( 0.0000,  0.0000,  0.0000)
  29 Cr     3.600449    9.075453    1.691339    ( 0.0000,  0.0000,  0.0000)
  30 Fe     5.550108    7.223336    1.720747    ( 0.0000,  0.0000,  2.0000)
  31 Fe     5.431901    9.127189   -0.056191    ( 0.0000,  0.0000,  2.0000)
  32 Ni     7.279905    7.275523   -0.062576    ( 0.0000,  0.0000,  1.5000)
  33 Cr     7.075468    8.964465    1.663063    ( 0.0000,  0.0000,  0.0000)
  34 Co     8.940156    7.279312    1.775542    ( 0.0000,  0.0000,  2.1000)
  35 Ni     9.235829    8.880096   10.829481    ( 0.0000,  0.0000,  1.5000)
  36 Ni    -0.160144   10.755385    3.522374    ( 0.0000,  0.0000,  1.5000)
  37 Co    10.890894    1.794494    5.424886    ( 0.0000,  0.0000,  2.1000)
  38 Co     1.695254   10.642923    5.374389    ( 0.0000,  0.0000,  2.1000)
  39 Cr     1.668701    1.646244    3.638546    ( 0.0000,  0.0000,  0.0000)
  40 Fe     3.428348   10.708749    3.580801    ( 0.0000,  0.0000,  2.0000)
  41 Al     3.428727    1.710153    5.290599    ( 0.0000,  0.0000,  0.0000)
  42 Fe     5.326258   10.771810    5.347990    ( 0.0000,  0.0000,  2.0000)
  43 Ni     5.355460    1.729040    3.771783    ( 0.0000,  0.0000,  1.5000)
  44 Cr     7.131120   -0.121848    3.535289    ( 0.0000,  0.0000,  0.0000)
  45 Co     7.444730    1.788170    5.392009    ( 0.0000,  0.0000,  2.1000)
  46 Co     9.076071   10.707130    5.300751    ( 0.0000,  0.0000,  2.1000)
  47 Ni     9.101155    1.751881    3.509519    ( 0.0000,  0.0000,  1.5000)
  48 Ni    10.720543    3.603359    3.544986    ( 0.0000,  0.0000,  1.5000)
  49 Cr    10.680082    5.599295    5.287099    ( 0.0000,  0.0000,  0.0000)
  50 Co     1.572620    3.718660    5.265667    ( 0.0000,  0.0000,  2.1000)
  51 Al     1.675999    5.413814    3.544900    ( 0.0000,  0.0000,  0.0000)
  52 Al     3.669004    3.523983    3.611316    ( 0.0000,  0.0000,  0.0000)
  53 Fe     3.605179    5.354126    5.303549    ( 0.0000,  0.0000,  2.0000)
  54 Fe     5.440868    3.580860    5.323685    ( 0.0000,  0.0000,  2.0000)
  55 Fe     5.373895    5.365158    3.598429    ( 0.0000,  0.0000,  2.0000)
  56 Ni     7.362683    3.577927    3.769301    ( 0.0000,  0.0000,  1.5000)
  57 Ni     7.237362    5.492576    5.474615    ( 0.0000,  0.0000,  1.5000)
  58 Co     9.111213    3.678767    5.431217    ( 0.0000,  0.0000,  2.1000)
  59 Co     9.041643    5.261039    3.689443    ( 0.0000,  0.0000,  2.1000)
  60 Fe    10.706340    7.314430    3.618298    ( 0.0000,  0.0000,  2.0000)
  61 Co    10.636960    9.024603    5.292165    ( 0.0000,  0.0000,  2.1000)
  62 Al     1.648317    7.304092    5.398340    ( 0.0000,  0.0000,  0.0000)
  63 Ni     1.749756    9.028699    3.562201    ( 0.0000,  0.0000,  1.5000)
  64 Al     3.706508    7.257636    3.402977    ( 0.0000,  0.0000,  0.0000)
  65 Cr     3.561282    9.090178    5.482287    ( 0.0000,  0.0000,  0.0000)
  66 Al     5.232523    7.291931    5.602237    ( 0.0000,  0.0000,  0.0000)
  67 Ni     5.189560    9.072996    3.691498    ( 0.0000,  0.0000,  1.5000)
  68 Al     7.102018    7.252583    3.613815    ( 0.0000,  0.0000,  0.0000)
  69 Fe     7.211242    9.189944    5.434621    ( 0.0000,  0.0000,  2.0000)
  70 Cr     8.928616    7.139468    5.630416    ( 0.0000,  0.0000,  0.0000)
  71 Cr     8.847043    8.980920    3.619001    ( 0.0000,  0.0000,  0.0000)
  72 Fe    10.997159   10.844893    7.282297    ( 0.0000,  0.0000,  2.0000)
  73 Co    10.940989    1.785606    9.118516    ( 0.0000,  0.0000,  2.1000)
  74 Co     1.816732   -0.079505    9.038247    ( 0.0000,  0.0000,  2.1000)
  75 Co     1.764951    1.793385    7.285912    ( 0.0000,  0.0000,  2.1000)
  76 Fe     3.389590    0.041337    7.186037    ( 0.0000,  0.0000,  2.0000)
  77 Fe     3.569547    1.989265    9.026515    ( 0.0000,  0.0000,  2.0000)
  78 Cr     5.372595   10.951960    8.841250    ( 0.0000,  0.0000,  0.0000)
  79 Fe     5.333513    1.784935    7.079794    ( 0.0000,  0.0000,  2.0000)
  80 Co     7.500456   10.826698    7.213918    ( 0.0000,  0.0000,  2.1000)
  81 Al     7.339366    1.804538    8.997043    ( 0.0000,  0.0000,  0.0000)
  82 Ni     9.222215   10.684761    9.122658    ( 0.0000,  0.0000,  1.5000)
  83 Ni     9.152729    1.797535    7.404712    ( 0.0000,  0.0000,  1.5000)
  84 Ni    10.947593    3.663484    7.205286    ( 0.0000,  0.0000,  1.5000)
  85 Fe    -0.000725    5.404274    8.945587    ( 0.0000,  0.0000,  2.0000)
  86 Co     1.845615    3.637977    9.043632    ( 0.0000,  0.0000,  2.1000)
  87 Cr     1.912660    5.405837    7.124222    ( 0.0000,  0.0000,  0.0000)
  88 Ni     3.375014    3.617950    7.013061    ( 0.0000,  0.0000,  1.5000)
  89 Fe     3.692136    5.474330    8.903267    ( 0.0000,  0.0000,  2.0000)
  90 Ni     5.287235    3.605475    8.748162    ( 0.0000,  0.0000,  1.5000)
  91 Co     5.289702    5.381961    7.140384    ( 0.0000,  0.0000,  2.1000)
  92 Al     7.135524    3.604418    7.019121    ( 0.0000,  0.0000,  0.0000)
  93 Cr     7.102609    5.417909    8.968725    ( 0.0000,  0.0000,  0.0000)
  94 Fe     9.107136    3.510532    9.043982    ( 0.0000,  0.0000,  2.0000)
  95 Cr     9.036323    5.448750    7.268205    ( 0.0000,  0.0000,  0.0000)
  96 Ni    10.691574    7.152631    7.287347    ( 0.0000,  0.0000,  1.5000)
  97 Fe    10.874903    8.886578    8.987065    ( 0.0000,  0.0000,  2.0000)
  98 Co     1.890571    7.234895    8.912527    ( 0.0000,  0.0000,  2.1000)
  99 Ni     1.740116    9.010009    7.259110    ( 0.0000,  0.0000,  1.5000)
 100 Cr     3.533590    7.086499    7.122932    ( 0.0000,  0.0000,  0.0000)
 101 Al     3.536878    8.946387    9.012224    ( 0.0000,  0.0000,  0.0000)
 102 Cr     5.372025    7.208566    8.944249    ( 0.0000,  0.0000,  0.0000)
 103 Co     5.507589    9.220695    7.163612    ( 0.0000,  0.0000,  2.1000)
 104 Al     7.377271    7.350075    7.503683    ( 0.0000,  0.0000,  0.0000)
 105 Ni     7.288056    9.233799    9.192613    ( 0.0000,  0.0000,  1.5000)
 106 Co     9.282877    7.150015    9.123958    ( 0.0000,  0.0000,  2.1000)
 107 Fe     9.154110    8.938561    7.289116    ( 0.0000,  0.0000,  2.0000)

Unit cell:
           periodic     x           y           z      points  spacing
  1. axis:    yes   10.820500    0.000000    0.000000    48     0.2254
  2. axis:    yes    0.000000   10.820500    0.000000    48     0.2254
  3. axis:    yes    0.000000    0.000000   10.820500    48     0.2254

  Lengths:  10.820500  10.820500  10.820500
  Angles:   90.000000  90.000000  90.000000

Effective grid spacing dv^(1/3) = 0.2254

     iter     time        total  log10-change:  magmom
                         energy  eigst   dens
iter:   1 00:15:19  -981.295206                  +129.0867
iter:   2 00:17:39  -874.483105  -0.22  -1.19    +72.2885
iter:   3 00:19:59  -861.680878  -0.86  -1.20    +63.5210
iter:   4 00:22:18  -844.709500  -1.25  -1.27    +59.0226
iter:   5 00:24:37  -836.364308  -1.51  -1.29    +57.1872
iter:   6 00:26:57  -832.262298  -1.33  -1.35    +57.9286
iter:   7 00:29:16  -830.881595  -1.24  -1.43    +56.6052
iter:   8 00:31:37  -820.757114  -1.69  -1.52    +56.6887
iter:   9 00:33:56  -819.438858  -1.98  -1.67    +58.2987
iter:  10 00:36:16  -817.733745  -2.42  -1.73    +59.1508
iter:  11 00:38:35  -818.554630  -2.45  -1.81    +61.2964
iter:  12 00:40:54  -819.700517  -2.32  -1.84    +62.2668
iter:  13 00:43:13  -819.190948  -2.37  -1.85    +62.8816
iter:  14 00:45:33  -819.294013  -2.48  -1.94    +63.6557
iter:  15 00:47:49  -819.094784  -2.63  -1.96    +64.5837
iter:  16 00:50:08  -818.513088  -2.86  -2.00    +65.0031
iter:  17 00:52:28  -818.449913  -3.14  -2.08    +65.5160
iter:  18 00:54:48  -819.134929  -2.84  -2.13    +66.0960
iter:  19 00:57:08  -818.780784  -2.91  -2.09    +66.4278
iter:  20 00:59:28  -819.234388  -2.76  -2.17    +66.3069
iter:  21 01:01:48  -818.488858  -2.95  -2.15    +66.5358
iter:  22 01:04:08  -818.829789  -2.97  -2.34    +66.9191
iter:  23 01:06:29  -818.396882  -3.23  -2.29    +66.8699
iter:  24 01:08:49  -818.440348  -3.43  -2.45    +66.7490
iter:  25 01:11:09  -818.512288  -3.36  -2.49    +66.8663
iter:  26 01:13:29  -818.431481c -3.57  -2.45    +67.0614
iter:  27 01:15:48  -818.450387c -3.67  -2.57    +66.9012
iter:  28 01:18:08  -818.420869c -3.76  -2.58    +66.8688
iter:  29 01:20:28  -818.469183c -3.74  -2.68    +66.8835
iter:  30 01:22:48  -818.455678c -3.94  -2.66    +66.9065
iter:  31 01:25:09  -818.463596c -4.02  -2.71    +66.7558
iter:  32 01:27:28  -818.471822c -4.10  -2.80    +66.6291
iter:  33 01:29:47  -818.483127c -4.21  -2.77    +66.6453
iter:  34 01:32:06  -818.481367c -4.37  -2.80    +66.5958
iter:  35 01:34:26  -818.495992c -4.49  -2.88    +66.5021
iter:  36 01:36:46  -818.515792c -4.36  -2.90    +66.4218
iter:  37 01:39:06  -818.504528c -4.79  -2.87    +66.4323
iter:  38 01:41:26  -818.540805c -4.32  -2.97    +66.3514
iter:  39 01:43:45  -818.530716c -4.44  -2.92    +66.2863
iter:  40 01:46:04  -818.549106c -4.33  -3.02    +66.2468
iter:  41 01:48:20  -818.543013c -4.43  -2.95    +66.2694
iter:  42 01:50:35  -818.549098c -4.47  -3.05    +66.2230
iter:  43 01:52:55  -818.549159c -4.58  -3.11    +66.1161
iter:  44 01:55:14  -818.548592c -4.97  -3.14    +66.1007
iter:  45 01:57:34  -818.553203c -5.06  -3.20    +66.1444
iter:  46 01:59:54  -818.561666c -4.97  -3.25    +66.1154
iter:  47 02:02:14  -818.563538c -5.29  -3.22    +66.0969
iter:  48 02:04:33  -818.568061c -5.03  -3.27    +66.0617
iter:  49 02:06:53  -818.574322c -4.94  -3.35    +65.9804
iter:  50 02:09:13  -818.576720c -5.18  -3.38    +65.9746
iter:  51 02:11:33  -818.579126c -5.31  -3.40    +65.9723
iter:  52 02:13:52  -818.580958c -5.34  -3.47    +65.9220
iter:  53 02:16:12  -818.582591c -5.83  -3.53    +65.9190
iter:  54 02:18:31  -818.586126c -5.52  -3.54    +65.9105
iter:  55 02:20:51  -818.589514c -5.44  -3.57    +65.8872
iter:  56 02:23:10  -818.591707c -5.56  -3.59    +65.8719
iter:  57 02:25:29  -818.595492c -5.43  -3.67    +65.8453
iter:  58 02:27:49  -818.597187c -5.61  -3.66    +65.8217
iter:  59 02:30:08  -818.598843c -5.87  -3.71    +65.8143
iter:  60 02:32:27  -818.601570c -5.57  -3.73    +65.7900
iter:  61 02:34:46  -818.603246c -5.88  -3.78    +65.7758
iter:  62 02:37:05  -818.607119c -5.47  -3.81    +65.7461
iter:  63 02:39:20  -818.608176c -5.93  -3.82    +65.7339
iter:  64 02:41:37  -818.610698c -5.69  -3.85    +65.7065
iter:  65 02:43:56  -818.612608c -5.91  -3.88    +65.6925
iter:  66 02:46:15  -818.615361c -5.66  -3.91    +65.6608
iter:  67 02:48:35  -818.616280c -6.15  -3.93    +65.6530
iter:  68 02:50:55  -818.619563c -5.64  -3.96    +65.6228
iter:  69 02:53:16  -818.619244c -6.46  -3.97    +65.6254
iter:  70 02:55:38  -818.621568c -5.88  -4.00    +65.5915
iter:  71 02:57:59  -818.622368c -6.38  -4.04c   +65.5891
iter:  72 03:00:21  -818.625418c -5.64  -4.06c   +65.5387
iter:  73 03:02:44  -818.623613c -6.42  -4.07c   +65.5706
iter:  74 03:05:04  -818.622051c -6.00  -4.12c   +65.6051
iter:  75 03:07:25  -818.626840c -5.44  -4.08c   +65.5333
iter:  76 03:09:47  -818.631255c -5.31  -4.13c   +65.4809
iter:  77 03:12:09  -818.628665c -6.27  -4.05c   +65.5127
iter:  78 03:14:31  -818.632723c -5.68  -4.16c   +65.4746
iter:  79 03:16:53  -818.633004c -6.44  -4.06c   +65.4707
iter:  80 03:19:15  -818.635674c -5.81  -4.16c   +65.4394
iter:  81 03:21:36  -818.636654c -6.14  -4.15c   +65.4279
iter:  82 03:23:58  -818.638750c -5.95  -4.17c   +65.4079
iter:  83 03:26:20  -818.640539c -5.91  -4.10c   +65.3843
iter:  84 03:28:42  -818.645039c -5.39  -4.16c   +65.3333
iter:  85 03:31:03  -818.639444c -5.50  -4.02c   +65.3864
iter:  86 03:33:24  -818.634836c -5.26  -4.13c   +65.4303
iter:  87 03:35:44  -818.640410c -5.47  -4.19c   +65.3812
iter:  88 03:38:00  -818.641254c -6.23  -4.20c   +65.3736
iter:  89 03:40:22  -818.642688c -6.25  -4.21c   +65.3574
iter:  90 03:42:43  -818.648810c -5.20  -4.19c   +65.2893
iter:  91 03:45:05  -818.637821c -4.84  -3.93    +65.4241
iter:  92 03:47:26  -818.630732c -4.85  -4.23c   +65.4961
iter:  93 03:49:48  -818.630619c -5.86  -4.25c   +65.4929
iter:  94 03:52:10  -818.632603c -5.98  -4.27c   +65.4603
iter:  95 03:54:31  -818.641433c -4.68  -4.30c   +65.3454
iter:  96 03:56:53  -818.646501c -4.99  -4.01c   +65.3128
iter:  97 03:59:14  -818.631101c -4.46  -3.88    +65.4239
iter:  98 04:01:36  -818.633594c -6.02  -4.03c   +65.4077
iter:  99 04:03:57  -818.631540c -5.95  -4.11c   +65.4218
iter: 100 04:06:19  -818.630537c -5.88  -4.07c   +65.4374
iter: 101 04:08:41  -818.633896c -5.68  -3.95    +65.4111
iter: 102 04:11:02  -818.633744c -6.64  -4.09c   +65.4271
iter: 103 04:13:23  -818.636006c -5.94  -4.12c   +65.4143
iter: 104 04:15:45  -818.633323c -5.90  -4.20c   +65.4183
iter: 105 04:18:07  -818.635688c -5.99  -4.05c   +65.4003
iter: 106 04:20:29  -818.635469c -7.20  -4.33c   +65.3975
iter: 107 04:22:49  -818.638214c -5.86  -4.34c   +65.3793
iter: 108 04:25:09  -818.636530c -6.54  -4.36c   +65.3855
iter: 109 04:27:28  -818.636661c -6.84  -4.48c   +65.3765
iter: 110 04:29:50  -818.638612c -6.19  -4.56c   +65.3719
iter: 111 04:32:12  -818.641235c -5.83  -4.50c   +65.3576
iter: 112 04:34:33  -818.635384c -5.36  -4.39c   +65.3917
iter: 113 04:36:55  -818.598877c -3.45  -4.50c   +65.6776
iter: 114 04:39:17  -818.599243c -4.54  -3.44    +65.6882
iter: 115 04:41:36  -818.599677c -5.23  -3.43    +65.6959
iter: 116 04:43:48  -818.600921c -5.54  -3.43    +65.6842
iter: 117 04:45:59  -818.603142c -5.49  -3.44    +65.6558
iter: 118 04:48:08  -818.599930c -5.05  -3.44    +65.6577
iter: 119 04:50:16  -818.600930c -5.28  -3.44    +65.6344
iter: 120 04:52:25  -818.605358c -5.10  -3.48    +65.6849
iter: 121 04:54:33  -818.603477c -5.37  -3.47    +65.6931
iter: 122 04:56:41  -818.605552c -5.51  -3.58    +65.7341
iter: 123 04:58:49  -818.605744c -5.88  -3.71    +65.7501
iter: 124 05:00:57  -818.608330c -5.55  -3.84    +65.7512
iter: 125 05:03:05  -818.608907c -5.83  -3.82    +65.7370
iter: 126 05:05:13  -818.610599c -5.82  -3.95    +65.7370
iter: 127 05:07:22  -818.611678c -5.93  -3.85    +65.7400
iter: 128 05:09:30  -818.612972c -5.92  -4.04c   +65.7186
iter: 129 05:11:38  -818.612195c -6.78  -4.17c   +65.7161
iter: 130 05:13:46  -818.613097c -6.46  -4.21c   +65.6924
iter: 131 05:15:54  -818.613238c -6.82  -4.27c   +65.7227
iter: 132 05:18:01  -818.615120c -6.06  -4.25c   +65.7241
iter: 133 05:20:09  -818.613135c -6.20  -4.23c   +65.7136
iter: 134 05:22:17  -818.612878c -6.42  -4.28c   +65.6936
iter: 135 05:24:30  -818.614689c -6.15  -4.23c   +65.6857
iter: 136 05:27:32  -818.611525c -5.76  -4.38c   +65.6774
iter: 137 05:29:45  -818.600789c -4.49  -4.23c   +65.6159
iter: 138 05:31:53  -818.594804c -4.54  -3.71    +65.5691
iter: 139 05:34:01  -818.588723c -4.30  -3.51    +65.4862
iter: 140 05:36:09  -818.581256c -3.88  -3.31    +65.3118
iter: 141 05:38:18  -818.587048c -4.40  -3.11    +65.4324
iter: 142 05:40:26  -818.585011c -5.95  -3.27    +65.3962
iter: 143 05:42:34  -818.587482c -6.11  -3.25    +65.3738
iter: 144 05:44:43  -818.585039c -5.47  -3.23    +65.3577
iter: 145 05:46:52  -818.588565c -5.48  -3.21    +65.3565
iter: 146 05:48:59  -818.585119c -4.68  -3.19    +65.3337
iter: 147 05:51:07  -818.610719c -3.84  -3.09    +65.3246
iter: 148 05:53:15  -818.571960c -4.18  -2.93    +65.4185
iter: 149 05:55:23  -818.573255c -4.60  -3.15    +65.5103
iter: 150 05:57:30  -818.590844c -4.68  -3.51    +65.6808
iter: 151 05:59:37  -818.617382c -4.31  -3.51    +65.9799
iter: 152 06:01:44  -818.667899c -4.15  -3.35    +66.2336
iter: 153 06:03:52  -818.581457c -3.75  -3.13    +65.7186
iter: 154 06:06:00  -818.577575c -4.71  -3.55    +65.6418
iter: 155 06:08:08  -818.580579c -5.63  -3.58    +65.6662
iter: 156 06:10:15  -818.582045c -5.93  -3.66    +65.6827
iter: 157 06:12:22  -818.586077c -5.50  -3.64    +65.7070
iter: 158 06:14:46  -818.584582c -6.20  -3.84    +65.7020
iter: 159 06:17:40  -818.583179c -5.55  -3.76    +65.6759
iter: 160 06:19:47  -818.587008c -5.62  -3.70    +65.7257
iter: 161 06:21:56  -818.587554c -5.94  -3.82    +65.7375
iter: 162 06:24:04  -818.591444c -5.63  -3.78    +65.7699
iter: 163 06:26:12  -818.592729c -5.73  -3.82    +65.7731
iter: 164 06:28:21  -818.596461c -5.62  -4.03c   +65.7931
iter: 165 06:30:28  -818.596642c -6.52  -3.96    +65.7956
iter: 166 06:32:36  -818.602686c -5.28  -3.97    +65.7800
iter: 167 06:34:45  -818.588231c -4.60  -3.79    +65.8043
iter: 168 06:36:54  -818.580449c -4.68  -3.89    +65.8149
iter: 169 06:39:02  -818.581662c -5.89  -3.67    +65.8165
iter: 170 06:41:10  -818.585324c -5.59  -3.70    +65.8272
iter: 171 06:43:19  -818.587898c -5.70  -3.83    +65.8306
iter: 172 06:45:28  -818.588871c -6.15  -3.94    +65.8305
iter: 173 06:47:36  -818.589918c -6.19  -3.92    +65.8149
iter: 174 06:49:44  -818.592437c -5.66  -3.98    +65.8252
iter: 175 06:51:53  -818.593432c -6.28  -3.96    +65.8332
iter: 176 06:54:01  -818.596271c -5.82  -4.07c   +65.8445
iter: 177 06:56:10  -818.586888c -4.94  -3.99    +65.7943
iter: 178 06:58:18  -818.545838c -3.27  -3.96    +65.4931
iter: 179 07:00:26  -818.618471c -3.13  -3.09    +65.9552
iter: 180 07:02:35  -818.707552  -3.18  -3.50    +66.2830
iter: 181 07:04:43  -818.627805c -3.76  -2.99    +66.0039
iter: 182 07:06:51  -818.640482c -5.57  -3.39    +66.0514
iter: 183 07:08:58  -818.619136c -4.55  -3.29    +65.9701
iter: 184 07:11:06  -818.580100c -3.62  -3.48    +65.7572
iter: 185 07:13:37  -818.577225c -4.59  -3.62    +65.7155
iter: 186 07:16:23  -818.579050c -5.64  -3.60    +65.7247
iter: 187 07:18:31  -818.583270c -5.18  -3.64    +65.7123
iter: 188 07:20:40  -818.586922c -5.36  -3.83    +65.7285
iter: 189 07:22:49  -818.582458c -5.59  -4.02c   +65.7080
iter: 190 07:24:58  -818.582279c -6.49  -3.81    +65.7112
iter: 191 07:27:05  -818.585008c -5.91  -3.82    +65.7243
iter: 192 07:29:14  -818.589072c -5.35  -3.92    +65.7429
iter: 193 07:31:23  -818.582657c -5.20  -3.96    +65.6933
iter: 194 07:33:30  -818.581086c -5.87  -3.79    +65.6843
iter: 195 07:35:38  -818.583934c -6.01  -3.80    +65.7057
iter: 196 07:37:48  -818.582927c -6.71  -3.79    +65.6973
iter: 197 07:39:56  -818.584709c -6.19  -3.80    +65.7024
iter: 198 07:42:04  -818.585755c -5.25  -3.77    +65.7190
iter: 199 07:44:12  -818.586456c -5.45  -3.46    +65.6760
iter: 200 07:46:20  -818.590632c -5.37  -3.82    +65.6659
iter: 201 07:48:27  -818.586105c -5.46  -3.80    +65.6994
iter: 202 07:50:35  -818.587798c -5.90  -3.80    +65.7463
iter: 203 07:52:43  -818.591265c -5.70  -4.03c   +65.7759
iter: 204 07:54:51  -818.608755c -4.54  -4.06c   +65.8998
iter: 205 07:56:59  -818.560964c -3.52  -3.61    +65.4382
iter: 206 07:59:08  -818.560022c -4.51  -3.33    +65.4026
iter: 207 08:01:18  -818.559628c -5.33  -3.29    +65.3762
iter: 208 08:04:21  -818.560166c -5.58  -3.29    +65.3385
iter: 209 08:06:34  -818.562926c -5.44  -3.31    +65.3361
iter: 210 08:08:42  -818.562359c -5.32  -3.34    +65.3526
iter: 211 08:10:50  -818.562419c -4.76  -3.32    +65.3362
iter: 212 08:12:58  -818.569045c -4.68  -3.10    +65.3759
iter: 213 08:15:07  -818.567002c -4.91  -3.22    +65.4306
iter: 214 08:17:15  -818.572384c -4.58  -3.41    +65.4580
iter: 215 08:19:23  -818.583988c -4.57  -3.27    +65.4870
iter: 216 08:21:32  -818.576701c -4.82  -3.19    +65.6126
iter: 217 08:23:41  -818.590845c -4.77  -3.61    +65.7378
iter: 218 08:25:49  -818.594784c -5.33  -3.61    +65.7756
iter: 219 08:27:57  -818.623874c -4.61  -3.63    +65.9572
iter: 220 08:30:05  -818.567299c -3.99  -3.34    +65.5169
iter: 221 08:32:14  -818.552210c -4.29  -3.50    +65.3363
iter: 222 08:34:23  -818.565489c -4.96  -3.39    +65.4810
iter: 223 08:36:31  -818.586093c -4.45  -3.62    +65.6984
iter: 224 08:38:39  -818.529084c -3.54  -3.66    +64.9212
iter: 225 08:40:47  -818.645470  -3.17  -3.15    +66.2622
iter: 226 08:42:55  -818.615785  -4.87  -3.21    +65.9742
iter: 227 08:45:03  -818.609315c -5.56  -3.42    +65.8874
iter: 228 08:47:11  -818.619593c -5.24  -3.49    +65.9871
iter: 229 08:49:19  -818.628860c -5.25  -3.37    +66.0382
iter: 230 08:51:27  -818.624168c -6.05  -3.25    +66.0278
iter: 231 08:53:35  -818.640399c -5.25  -3.33    +66.0333
iter: 232 08:55:55  -818.629449c -5.09  -3.21    +66.0305
iter: 233 08:58:53  -818.638753c -4.41  -3.22    +66.1367
iter: 234 09:01:02  -818.612246c -4.68  -3.08    +66.1319
iter: 235 09:03:11  -818.641313c -4.31  -3.16    +66.1309
iter: 236 09:05:19  -818.609343c -4.53  -2.94    +66.1317
iter: 237 09:07:27  -818.615731c -4.22  -3.15    +65.9944
iter: 238 09:09:36  -818.595347c -4.83  -3.11    +65.9782
iter: 239 09:11:44  -818.606261c -4.86  -3.47    +65.9032
iter: 240 09:13:53  -818.600732c -5.02  -3.30    +65.9931
iter: 241 09:16:01  -818.601230c -5.18  -3.42    +65.9572
iter: 242 09:18:09  -818.603254c -5.35  -3.48    +65.8644
iter: 243 09:20:18  -818.606215c -5.32  -3.59    +65.7942
iter: 244 09:22:26  -818.611949c -4.88  -3.65    +65.6324
iter: 245 09:24:34  -818.614669c -5.02  -3.58    +65.5212
iter: 246 09:26:58  -818.620609c -4.95  -3.49    +65.4174
iter: 247 09:29:49  -818.616365c -5.54  -3.39    +65.5105
iter: 248 09:31:57  -818.622179c -5.11  -3.46    +65.3869
iter: 249 09:34:06  -818.619223c -6.12  -3.40    +65.4096
iter: 250 09:36:14  -818.620570c -5.83  -3.42    +65.3969
iter: 251 09:38:22  -818.620844c -5.71  -3.44    +65.3566
iter: 252 09:40:31  -818.632727c -4.57  -3.40    +65.3276
iter: 253 09:42:39  -818.619972c -4.82  -3.16    +65.3232
iter: 254 09:44:47  -818.625593c -4.71  -3.42    +65.2668
iter: 255 09:46:55  -818.618417c -5.24  -3.28    +65.2760
iter: 256 09:49:03  -818.621022c -5.46  -3.60    +65.2685
iter: 257 09:51:10  -818.626117c -5.40  -3.74    +65.3137
iter: 258 09:53:19  -818.628119c -5.48  -3.67    +65.3299
iter: 259 09:55:27  -818.634046c -5.27  -3.73    +65.3607
iter: 260 09:57:34  -818.614387c -4.33  -3.63    +65.2685
iter: 261 09:59:42  -818.610311c -4.84  -3.68    +65.2465
iter: 262 10:01:50  -818.610697c -6.02  -3.61    +65.2537
iter: 263 10:03:58  -818.610529c -6.60  -3.66    +65.2524
iter: 264 10:06:05  -818.612605c -6.02  -3.67    +65.2674
iter: 265 10:08:13  -818.612064c -5.44  -3.70    +65.2652
iter: 266 10:10:51  -818.612634c -5.57  -3.65    +65.2692
iter: 267 10:13:34  -818.617588c -5.36  -3.84    +65.3062
iter: 268 10:15:42  -818.615934c -6.06  -3.84    +65.3018
iter: 269 10:17:50  -818.622318c -5.32  -4.04c   +65.3283
iter: 270 10:19:59  -818.620762c -6.15  -3.98    +65.3331
iter: 271 10:22:08  -818.621055c -5.12  -4.11c   +65.3807
iter: 272 10:24:16  -818.625388c -4.88  -3.73    +65.3296
iter: 273 10:26:26  -818.628335c -5.61  -3.86    +65.3731
iter: 274 10:28:33  -818.636457c -5.04  -3.76    +65.4397
iter: 275 10:30:41  -818.628477c -5.22  -3.53    +65.3610
iter: 276 10:32:50  -818.636547c -5.36  -3.77    +65.4027
iter: 277 10:34:58  -818.625819c -4.93  -3.65    +65.3067
iter: 278 10:37:06  -818.633503c -5.19  -3.73    +65.3682
iter: 279 10:39:14  -818.639251c -5.31  -3.70    +65.3847
iter: 280 10:41:22  -818.637853c -5.68  -3.54    +65.3865
iter: 281 10:43:30  -818.641279c -5.22  -3.51    +65.4104
iter: 282 10:45:37  -818.639823c -5.51  -3.41    +65.4084
iter: 283 10:47:45  -818.645217c -5.38  -3.56    +65.4107
iter: 284 10:49:53  -818.642070c -4.60  -3.36    +65.4277
iter: 285 10:52:38  -818.638590c -5.05  -3.40    +65.4241
iter: 286 10:55:13  -818.644443c -5.08  -3.51    +65.3977
iter: 287 10:57:21  -818.640898c -5.65  -3.44    +65.3547
iter: 288 10:59:30  -818.643173c -5.61  -3.81    +65.2756
iter: 289 11:01:39  -818.647517c -5.17  -3.86    +65.1650
iter: 290 11:03:48  -818.653117c -4.99  -3.79    +65.0251
iter: 291 11:05:56  -818.651938c -6.22  -3.64    +65.0588
iter: 292 11:08:04  -818.653559c -5.73  -3.68    +65.0168
iter: 293 11:10:13  -818.655806c -5.81  -3.66    +64.9903
iter: 294 11:12:21  -818.655876c -6.54  -3.63    +64.9878
iter: 295 11:14:29  -818.658015c -5.53  -3.62    +64.9575
iter: 296 11:16:37  -818.657701c -5.76  -3.57    +64.9511
iter: 297 11:18:45  -818.664095c -5.08  -3.50    +64.9162
iter: 298 11:21:24  -818.663349c -5.07  -3.40    +64.9172
iter: 299 11:24:05  -818.662256c -5.41  -3.44    +64.9397
iter: 300 11:26:13  -818.664792c -5.67  -3.68    +64.9439
iter: 301 11:28:21  -818.669586c -5.31  -3.68    +64.9366
iter: 302 11:30:30  -818.666173c -5.66  -3.59    +64.9398
iter: 303 11:32:38  -818.675221c -5.04  -3.56    +64.9431
iter: 304 11:34:46  -818.669287c -5.55  -3.49    +64.9285
iter: 305 11:36:54  -818.672658c -5.87  -3.58    +64.9572
iter: 306 11:39:02  -818.675010c -5.08  -3.58    +64.9602
iter: 307 11:41:10  -818.673434c -5.30  -3.35    +64.9444
iter: 308 11:43:18  -818.672946c -5.41  -3.54    +64.9577
iter: 309 11:45:27  -818.675785c -5.29  -3.61    +64.9320
iter: 310 11:47:34  -818.675204c -5.56  -3.53    +64.8942
iter: 311 11:49:43  -818.675748c -5.64  -3.64    +64.8877
iter: 312 11:51:50  -818.676992c -5.85  -3.74    +64.8658
iter: 313 11:54:10  -818.678697c -5.46  -3.84    +64.8299
iter: 314 11:57:07  -818.678842c -5.89  -3.73    +64.8152
iter: 315 11:59:16  -818.679934c -5.77  -3.91    +64.7932
iter: 316 12:01:24  -818.680659c -5.96  -3.90    +64.7869
iter: 317 12:03:33  -818.681302c -6.08  -4.01c   +64.7652
iter: 318 12:05:42  -818.682636c -5.86  -4.18c   +64.7493
iter: 319 12:07:51  -818.683207c -6.31  -4.11c   +64.7389
iter: 320 12:09:59  -818.684618c -5.92  -4.22c   +64.7226
iter: 321 12:12:07  -818.685966c -5.86  -4.11c   +64.7052
iter: 322 12:14:15  -818.688488c -5.34  -4.04c   +64.6721
iter: 323 12:16:25  -818.692095c -4.99  -3.98    +64.6286
iter: 324 12:18:33  -818.698667c -4.52  -3.82    +64.5830
iter: 325 12:20:41  -818.698583c -5.72  -3.54    +64.6205
iter: 326 12:22:49  -818.701726c -5.16  -3.51    +64.5916
iter: 327 12:24:57  -818.701079c -5.74  -3.43    +64.6247
iter: 328 12:27:05  -818.700862c -6.03  -3.47    +64.6451
iter: 329 12:29:12  -818.700998c -6.11  -3.50    +64.6733
iter: 330 12:31:21  -818.701963c -6.13  -3.51    +64.7029
iter: 331 12:33:29  -818.703913c -4.95  -3.48    +64.6819
iter: 332 12:35:37  -818.709255c -4.96  -3.35    +64.7268
iter: 333 12:37:45  -818.701220c -5.51  -3.29    +64.7208
iter: 334 12:39:53  -818.699223c -5.13  -3.53    +64.7452
iter: 335 12:42:01  -818.702015c -4.95  -3.49    +64.7841
iter: 336 12:44:09  -818.697596c -5.62  -3.42    +64.7565
iter: 337 12:46:54  -818.697656c -5.99  -3.83    +64.7748
iter: 338 12:49:29  -818.697324c -6.22  -3.88    +64.7731
iter: 339 12:51:37  -818.697935c -6.36  -3.91    +64.7818
iter: 340 12:53:45  -818.698049c -6.42  -3.89    +64.7887
iter: 341 12:55:54  -818.697579c -6.26  -3.92    +64.7936
iter: 342 12:58:03  -818.697889c -6.24  -3.89    +64.7951
iter: 343 13:00:11  -818.698110c -6.28  -4.10c   +64.8070
iter: 344 13:02:19  -818.698048c -6.55  -4.07c   +64.8175
iter: 345 13:04:28  -818.697852c -6.82  -4.24c   +64.8192
iter: 346 13:06:36  -818.697812c -6.98  -4.27c   +64.8205
iter: 347 13:08:43  -818.697989c -7.23  -4.33c   +64.8325
iter: 348 13:10:51  -818.697941c -7.35  -4.40c   +64.8417
iter: 349 13:12:59  -818.697985c -7.44c -4.44c   +64.8480

Converged after 349 iterations.

Dipole moment: (24.843182, 39.030432, -0.015417) |e|*Ang

Total magnetic moment: (0.000000, 0.000000, 64.848028)
Local magnetic moments:
   0 Fe ( 0.000000,  0.000000,  2.163454)
   1 Cr ( 0.000000,  0.000000,  0.777981)
   2 Ni ( 0.000000,  0.000000,  0.114172)
   3 Cr ( 0.000000,  0.000000, -1.486904)
   4 Al ( 0.000000,  0.000000, -0.023511)
   5 Fe ( 0.000000,  0.000000,  2.333749)
   6 Ni ( 0.000000,  0.000000,  0.208724)
   7 Al ( 0.000000,  0.000000, -0.019847)
   8 Al ( 0.000000,  0.000000, -0.013061)
   9 Co ( 0.000000,  0.000000,  1.495175)
  10 Ni ( 0.000000,  0.000000,  0.175632)
  11 Co ( 0.000000,  0.000000,  0.932612)
  12 Ni ( 0.000000,  0.000000,  0.362581)
  13 Cr ( 0.000000,  0.000000,  1.520517)
  14 Fe ( 0.000000,  0.000000,  1.543917)
  15 Cr ( 0.000000,  0.000000, -1.966476)
  16 Co ( 0.000000,  0.000000,  0.733290)
  17 Cr ( 0.000000,  0.000000,  0.970025)
  18 Co ( 0.000000,  0.000000,  1.156749)
  19 Fe ( 0.000000,  0.000000,  1.818884)
  20 Cr ( 0.000000,  0.000000, -1.636013)
  21 Fe ( 0.000000,  0.000000,  2.421315)
  22 Co ( 0.000000,  0.000000,  1.206307)
  23 Al ( 0.000000,  0.000000, -0.026574)
  24 Ni ( 0.000000,  0.000000,  0.135298)
  25 Cr ( 0.000000,  0.000000,  0.839984)
  26 Cr ( 0.000000,  0.000000, -1.219054)
  27 Al ( 0.000000,  0.000000, -0.026517)
  28 Cr ( 0.000000,  0.000000, -0.019395)
  29 Cr ( 0.000000,  0.000000,  0.880212)
  30 Fe ( 0.000000,  0.000000,  1.779503)
  31 Fe ( 0.000000,  0.000000,  1.549176)
  32 Ni ( 0.000000,  0.000000,  0.284083)
  33 Cr ( 0.000000,  0.000000,  0.311620)
  34 Co ( 0.000000,  0.000000,  0.777351)
  35 Ni ( 0.000000,  0.000000,  0.381800)
  36 Ni ( 0.000000,  0.000000,  0.220814)
  37 Co ( 0.000000,  0.000000,  1.537479)
  38 Co ( 0.000000,  0.000000,  1.187346)
  39 Cr ( 0.000000,  0.000000, -1.983485)
  40 Fe ( 0.000000,  0.000000,  1.902511)
  41 Al ( 0.000000,  0.000000, -0.033680)
  42 Fe ( 0.000000,  0.000000,  2.261179)
  43 Ni ( 0.000000,  0.000000,  0.432545)
  44 Cr ( 0.000000,  0.000000, -1.466506)
  45 Co ( 0.000000,  0.000000,  1.619301)
  46 Co ( 0.000000,  0.000000,  1.346443)
  47 Ni ( 0.000000,  0.000000,  0.497653)
  48 Ni ( 0.000000,  0.000000,  0.295062)
  49 Cr ( 0.000000,  0.000000,  0.926739)
  50 Co ( 0.000000,  0.000000,  0.882425)
  51 Al ( 0.000000,  0.000000, -0.019568)
  52 Al ( 0.000000,  0.000000, -0.038567)
  53 Fe ( 0.000000,  0.000000,  1.920488)
  54 Fe ( 0.000000,  0.000000,  2.270492)
  55 Fe ( 0.000000,  0.000000,  2.157724)
  56 Ni ( 0.000000,  0.000000,  0.601397)
  57 Ni ( 0.000000,  0.000000,  0.081248)
  58 Co ( 0.000000,  0.000000,  1.257548)
  59 Co ( 0.000000,  0.000000,  0.782006)
  60 Fe ( 0.000000,  0.000000, -1.122386)
  61 Co ( 0.000000,  0.000000,  1.223429)
  62 Al ( 0.000000,  0.000000,  0.003013)
  63 Ni ( 0.000000,  0.000000,  0.056431)
  64 Al ( 0.000000,  0.000000, -0.027741)
  65 Cr ( 0.000000,  0.000000, -1.596203)
  66 Al ( 0.000000,  0.000000, -0.014004)
  67 Ni ( 0.000000,  0.000000,  0.102663)
  68 Al ( 0.000000,  0.000000, -0.036863)
  69 Fe ( 0.000000,  0.000000,  2.038904)
  70 Cr ( 0.000000,  0.000000, -0.217806)
  71 Cr ( 0.000000,  0.000000, -0.878358)
  72 Fe ( 0.000000,  0.000000,  2.619500)
  73 Co ( 0.000000,  0.000000,  1.505328)
  74 Co ( 0.000000,  0.000000,  1.040755)
  75 Co ( 0.000000,  0.000000,  1.588812)
  76 Fe ( 0.000000,  0.000000,  2.348346)
  77 Fe ( 0.000000,  0.000000,  2.326874)
  78 Cr ( 0.000000,  0.000000, -1.770694)
  79 Fe ( 0.000000,  0.000000,  2.411868)
  80 Co ( 0.000000,  0.000000,  1.482086)
  81 Al ( 0.000000,  0.000000, -0.012481)
  82 Ni ( 0.000000,  0.000000,  0.496799)
  83 Ni ( 0.000000,  0.000000,  0.543779)
  84 Ni ( 0.000000,  0.000000,  0.352585)
  85 Fe ( 0.000000,  0.000000,  2.287344)
  86 Co ( 0.000000,  0.000000,  1.282382)
  87 Cr ( 0.000000,  0.000000, -1.575680)
  88 Ni ( 0.000000,  0.000000,  0.345549)
  89 Fe ( 0.000000,  0.000000,  2.064474)
  90 Ni ( 0.000000,  0.000000,  0.289571)
  91 Co ( 0.000000,  0.000000,  0.722328)
  92 Al ( 0.000000,  0.000000, -0.042542)
  93 Cr ( 0.000000,  0.000000,  1.369365)
  94 Fe ( 0.000000,  0.000000,  1.972619)
  95 Cr ( 0.000000,  0.000000, -1.140620)
  96 Ni ( 0.000000,  0.000000,  0.186526)
  97 Fe ( 0.000000,  0.000000,  2.294263)
  98 Co ( 0.000000,  0.000000,  0.285258)
  99 Ni ( 0.000000,  0.000000,  0.335986)
 100 Cr ( 0.000000,  0.000000,  0.883226)
 101 Al ( 0.000000,  0.000000, -0.008925)
 102 Cr ( 0.000000,  0.000000, -1.448481)
 103 Co ( 0.000000,  0.000000,  0.789474)
 104 Al ( 0.000000,  0.000000, -0.016582)
 105 Ni ( 0.000000,  0.000000,  0.305252)
 106 Co ( 0.000000,  0.000000,  0.928281)
 107 Fe ( 0.000000,  0.000000,  2.119972)

Energy contributions relative to reference atoms: (reference = -3382523.201499)

Kinetic:       +310.728747
Potential:     -302.776543
External:        +0.000000
XC:            -857.807492
Entropy (-ST):   -4.180056
Local:          +33.247332
--------------------------
Free energy:   -820.788013
Extrapolated:  -818.697985

Spin contamination: 24.492602 electrons
Showing only first 2 kpts
                      Up                     Down
 Kpt  Band  Eigenvalues  Occupancy  Eigenvalues  Occupancy
  0   470      9.12372    0.99674     10.09137    0.01880
  0   471      9.13810    0.99623     10.11223    0.01531
  0   472      9.14652    0.99590     10.12199    0.01391
  0   473      9.15957    0.99533     10.13332    0.01244

  1   470      9.13597    0.99631     10.09834    0.01755
  1   471      9.14813    0.99584     10.11071    0.01554
  1   472      9.15742    0.99543     10.12277    0.01380
  1   473      9.16811    0.99492     10.13487    0.01225


Fermi level: 9.69586

No gap

Forces in eV/Ang:
  0 Fe   -0.58835    0.55055   -0.88253
  1 Cr   -0.06439   -0.10078    0.77400
  2 Ni   -0.67380   -0.22854   -0.19932
  3 Cr    0.09132    0.25787   -0.40887
  4 Al   -0.38268   -0.30314    0.92929
  5 Fe   -0.75079    0.98304    0.32968
  6 Ni    0.13046    0.89323   -0.78865
  7 Al   -0.44617   -0.71982    0.46223
  8 Al    0.20791   -0.06135   -0.07624
  9 Co    0.15717   -0.11423   -0.52506
 10 Ni    0.08420   -0.03621    0.40899
 11 Co   -0.35668   -0.95382   -0.75414
 12 Ni    1.78707    0.55162    0.99578
 13 Cr    1.14456   -0.01987    0.37971
 14 Fe    1.70375    0.61809    0.04400
 15 Cr   -0.73146   -0.16809   -0.24829
 16 Co   -0.61979    0.06045    0.43375
 17 Cr   -0.43056   -0.04244   -0.55510
 18 Co    0.81717   -0.73114   -0.16352
 19 Fe   -1.18354    0.31328    0.89340
 20 Cr    0.15519   -0.01595    0.76398
 21 Fe   -0.64644    0.52587    0.71903
 22 Co    0.29373    0.93849   -0.83315
 23 Al   -0.35725    0.58289   -0.21823
 24 Ni    0.75815   -0.27905   -0.32115
 25 Cr   -0.98253    0.62540   -0.05490
 26 Cr   -1.42311   -0.39336   -0.93499
 27 Al   -0.64063    1.05363   -1.48576
 28 Cr    0.85303   -1.23897    0.56040
 29 Cr    0.51874   -0.50929    0.48553
 30 Fe   -0.38887   -0.49153   -0.63409
 31 Fe   -0.25825   -0.36374   -0.11365
 32 Ni   -0.32586   -0.34302   -0.53598
 33 Cr    0.32536   -0.17596    0.61314
 34 Co    0.00557   -0.15591    0.68396
 35 Ni   -0.91503    0.75560    0.31605
 36 Ni    1.12140   -0.10291   -0.15108
 37 Co   -0.51205   -0.04325   -0.03019
 38 Co   -0.42846    0.41674    0.08236
 39 Cr   -0.98514    0.53415   -1.39858
 40 Fe    0.66238    0.59589    0.08111
 41 Al    0.23404   -0.03957    1.79446
 42 Fe    0.46731    0.29680    0.58319
 43 Ni    0.46280    0.25400   -0.74762
 44 Cr    0.55487    0.61286    0.24545
 45 Co   -0.55912   -0.72551    0.19623
 46 Co   -0.45616    1.01060    0.70047
 47 Ni   -0.55086   -0.38490    0.80786
 48 Ni    0.41654   -0.57889    0.13638
 49 Cr   -0.49848   -1.33243    1.02923
 50 Co    0.96485   -0.48483    0.43621
 51 Al    0.20174   -0.78391   -0.27397
 52 Al   -1.10003    0.34808   -0.91161
 53 Fe   -0.33379    0.17265   -0.33332
 54 Fe   -0.40290    0.14800    0.23521
 55 Fe    0.98891    0.35961    0.01486
 56 Ni   -0.91767    0.06320   -0.48426
 57 Ni   -0.70404    0.03749   -0.35193
 58 Co    0.27441   -0.72212    0.57301
 59 Co   -0.83221    1.49595   -0.55522
 60 Fe   -0.39381   -1.15226   -0.61263
 61 Co    0.31873   -0.03829    0.90822
 62 Al    0.33234    0.84759    0.21452
 63 Ni    0.16863   -0.26955    0.38894
 64 Al    0.44828    0.01247    1.55164
 65 Cr   -0.59295    1.04675    0.45851
 66 Al    2.55566   -0.42463   -1.21437
 67 Ni    1.44274   -0.91941   -0.56290
 68 Al    0.24482   -0.77323    0.23636
 69 Fe    0.24553   -0.53410    0.48452
 70 Cr    0.96063    0.56598   -1.73044
 71 Cr    1.29525    0.26918   -0.33297
 72 Fe   -1.21590   -0.00846   -0.37777
 73 Co   -0.07574   -0.19486   -0.04312
 74 Co   -0.23800    0.58056    0.55345
 75 Co   -0.16790    0.33230   -0.25200
 76 Fe    0.58758   -0.45293    0.33639
 77 Fe   -0.70609   -0.85195   -0.52848
 78 Cr    0.62658   -0.65335   -0.14219
 79 Fe    0.27068   -0.46413   -0.20098
 80 Co   -0.92056   -0.25212   -0.00549
 81 Al    0.09552   -0.57649   -0.72170
 82 Ni   -0.03442    1.00211   -0.10859
 83 Ni    0.05224   -0.10312   -1.23279
 84 Ni   -0.66636   -0.25013   -0.01066
 85 Fe    1.04980   -0.27700    0.20246
 86 Co   -0.44634    0.09721   -0.09665
 87 Cr   -1.11597    0.24325    0.51209
 88 Ni    1.20772   -0.49368    0.46598
 89 Fe   -0.43159   -0.71055    0.92259
 90 Ni    0.83858    0.14800    0.75505
 91 Co    0.23969   -0.09003   -0.44588
 92 Al    0.87653    0.17320    0.65115
 93 Cr    0.71702   -0.47410   -0.42331
 94 Fe   -0.38813    0.51519   -1.08673
 95 Cr    0.33190   -0.99525    0.13073
 96 Ni    1.83109    0.11526   -0.78520
 97 Fe    0.33465    0.47812    0.56732
 98 Co   -0.76820   -1.03324    0.71020
 99 Ni    0.15699   -0.38678   -0.59744
100 Cr   -1.08958    0.83054    1.09070
101 Al    0.48599    0.65480   -1.23756
102 Cr    0.06713    0.20480    0.69901
103 Co   -0.27722   -0.33410    1.04860
104 Al   -1.22537    0.64877   -0.45260
105 Ni   -0.15841   -0.54651   -0.88631
106 Co   -1.72745    0.52382   -0.13047
107 Fe   -0.05636    1.55341   -0.40175

Timing:                              incl.     excl.
-----------------------------------------------------------
Forces:                             20.224    20.224   0.0% |
Hamiltonian:                         0.695     0.005   0.0% |
 Atomic:                             0.379     0.074   0.0% |
  XC Correction:                     0.305     0.305   0.0% |
 Calculate atomic Hamiltonians:      0.176     0.176   0.0% |
 Communicate:                        0.002     0.002   0.0% |
 Initialize Hamiltonian:             0.000     0.000   0.0% |
 Poisson:                            0.001     0.001   0.0% |
 XC 3D grid:                         0.133     0.133   0.0% |
LCAO initialization:               155.118     1.181   0.0% |
 LCAO eigensolver:                  22.338     0.030   0.0% |
  Calculate projections:             0.434     0.434   0.0% |
  DenseAtomicCorrection:             0.621     0.621   0.0% |
  Distribute overlap matrix:         0.351     0.351   0.0% |
  Orbital Layouts:                  14.593    14.593   0.0% |
  Potential matrix:                  5.243     5.243   0.0% |
  Sum over cells:                    1.065     1.065   0.0% |
 LCAO to grid:                     129.574   129.574   0.3% |
 Set positions (LCAO WFS):           2.025     0.860   0.0% |
  Basic WFS set positions:           0.003     0.003   0.0% |
  Basis functions set positions:     0.001     0.001   0.0% |
  P tci:                             0.652     0.652   0.0% |
  ST tci:                            0.237     0.237   0.0% |
  mktci:                             0.272     0.272   0.0% |
PWDescriptor:                        0.061     0.061   0.0% |
SCF-cycle:                       46808.661     2.524   0.0% |
 Davidson:                       46082.795  8501.982  18.1% |------|
  Apply H:                         360.133   345.394   0.7% |
   HMM T:                           14.739    14.739   0.0% |
  Subspace diag:                  3266.649     0.436   0.0% |
   calc_h_matrix:                 1262.335   786.439   1.7% ||
    Apply H:                       475.895   460.167   1.0% |
     HMM T:                         15.729    15.729   0.0% |
   diagonalize:                    629.828   629.828   1.3% ||
   rotate_psi:                    1374.050  1374.050   2.9% ||
  calc. matrices:                 6609.637  5897.437  12.6% |----|
   Apply H:                        712.201   683.039   1.5% ||
    HMM T:                          29.162    29.162   0.1% |
  diagonalize:                   24312.608 24312.608  51.7% |--------------------|
  rotate_psi:                     3031.786  3031.786   6.5% |--|
 Density:                          403.049     0.016   0.0% |
  Atomic density matrices:           8.746     8.746   0.0% |
  Mix:                             167.501   167.501   0.4% |
  Multipole moments:                 0.167     0.167   0.0% |
  Pseudo density:                  226.618   226.602   0.5% |
   Symmetrize density:               0.017     0.017   0.0% |
 Hamiltonian:                      310.138     2.150   0.0% |
  Atomic:                          127.833    19.795   0.0% |
   XC Correction:                  108.038   108.038   0.2% |
  Calculate atomic Hamiltonians:   134.007   134.007   0.3% |
  Communicate:                       1.549     1.549   0.0% |
  Poisson:                           0.265     0.265   0.0% |
  XC 3D grid:                       44.333    44.333   0.1% |
 Orthonormalize:                    10.156     0.002   0.0% |
  calc_s_matrix:                     1.378     1.378   0.0% |
  inverse-cholesky:                  0.737     0.737   0.0% |
  projections:                       5.894     5.894   0.0% |
  rotate_psi_s:                      2.146     2.146   0.0% |
Set symmetry:                        0.001     0.001   0.0% |
Other:                               3.154     3.154   0.0% |
-----------------------------------------------------------
Total:                                     46987.913 100.0%

Date: Fri Apr 14 13:13:21 2023
