
  ___ ___ ___ _ _ _  
 |   |   |_  | | | | 
 | | | | | . | | | | 
 |__ |  _|___|_____|  22.8.0
 |___|_|             

User:   c.zeng@d0054
Date:   Sat Apr 15 23:37:35 2023
Arch:   x86_64
Pid:    219315
CWD:    /home/c.zeng/projects/hea-corrosion/hea-mlp/data-curation/bulk-mcmc/dft-jobs/96
Python: 3.8.1
gpaw:   /home/c.zeng/usr/installs/gpaw/source/gpaw-22.8.0/gpaw
_gpaw:  /home/c.zeng/usr/installs/gpaw/source/gpaw-22.8.0/
        _gpaw.cpython-38-x86_64-linux-gnu.so
ase:    /home/c.zeng/.local/lib/python3.8/site-packages/ase-3.22.1-py3.8.egg/ase (version 3.22.1)
numpy:  /home/c.zeng/.local/lib/python3.8/site-packages/numpy (version 1.24.2)
scipy:  /home/c.zeng/.local/lib/python3.8/site-packages/scipy (version 1.10.1)
libxc:  4.2.3
units:  Angstrom and eV
cores: 30
OpenMP: False
OMP_NUM_THREADS: 1

Input parameters:
  convergence: {energy: 0.0001}
  kpts: [2 2 2]
  maxiter: 666
  mode: {ecut: 350.0,
         name: pw}
  occupations: {fixmagmom: False,
                name: fermi-dirac,
                width: 0.1}
  spinpol: True
  xc: PBE

System changes: positions, numbers, cell, pbc, initial_charges, initial_magmoms 

Initialize ...

species:
  Ni:
    name: Nickel
    id: 0d9f38a9d6e76a2886f07bb4381f212b
    Z: 28.0
    valence: 16
    core: 12
    charge: 0.0
    file: /home/c.zeng/usr/data/gpaw-setups-0.9.20000/Ni.PBE.gz
    compensation charges: {type: gauss,
                           rc: 0.36,
                           lmax: 2}
    cutoffs: {filter: 2.14,
              core: 1.98}
    valence states:
      #              energy  rcut
      - 4s(2.00)    -5.642   1.164
      - 3p(6.00)   -71.394   1.207
      - 4p(0.00)    -1.226   1.207
      - 3d(8.00)    -8.875   1.138
      -  s          21.570   1.164
      -  d          18.337   1.138
  
    # Using partial waves for Ni as LCAO basis

  Cr:
    name: Chromium
    id: 33f258bda2ca9f93018e70263a35547b
    Z: 24.0
    valence: 6
    core: 18
    charge: 0.0
    file: /home/c.zeng/usr/data/gpaw-setups-0.9.20000/Cr.PBE.gz
    compensation charges: {type: gauss,
                           rc: 0.35,
                           lmax: 2}
    cutoffs: {filter: 2.14,
              core: 3.04}
    valence states:
      #              energy  rcut
      - 4s(1.00)    -4.007   1.164
      - 4p(0.00)    -0.989   1.217
      - 3d(5.00)    -2.913   1.111
      -  s          23.205   1.164
      -  p          26.223   1.217
      -  d          24.299   1.111
  
    # Using partial waves for Cr as LCAO basis

  Fe:
    name: Iron
    id: 37abbd8d6c3c35915a9b583b742da910
    Z: 26.0
    valence: 8
    core: 18
    charge: 0.0
    file: /home/c.zeng/usr/data/gpaw-setups-0.9.20000/Fe.PBE.gz
    compensation charges: {type: gauss,
                           rc: 0.33,
                           lmax: 2}
    cutoffs: {filter: 2.06,
              core: 2.67}
    valence states:
      #              energy  rcut
      - 4s(2.00)    -5.291   1.164
      - 4p(0.00)    -1.326   1.058
      - 3d(6.00)    -7.505   1.058
      -  s          21.920   1.164
      -  p          25.885   1.058
      -  d          19.706   1.058
  
    # Using partial waves for Fe as LCAO basis

  Co:
    name: Cobalt
    id: 339d20d5b0b93d2de9531a1bee871d91
    Z: 27.0
    valence: 9
    core: 18
    charge: 0.0
    file: /home/c.zeng/usr/data/gpaw-setups-0.9.20000/Co.PBE.gz
    compensation charges: {type: gauss,
                           rc: 0.32,
                           lmax: 2}
    cutoffs: {filter: 1.87,
              core: 2.55}
    valence states:
      #              energy  rcut
      - 4s(2.00)    -5.469   1.005
      - 4p(0.00)    -1.277   1.058
      - 3d(7.00)    -8.205   1.005
      -  s          21.742   1.005
      -  p          25.934   1.058
      -  d          19.007   1.005
  
    # Using partial waves for Co as LCAO basis

  Al:
    name: Aluminium
    id: 0292cae29f5d6237e50f6abdd43a7bdd
    Z: 13.0
    valence: 3
    core: 10
    charge: 0.0
    file: /home/c.zeng/usr/data/gpaw-setups-0.9.20000/Al.PBE.gz
    compensation charges: {type: gauss,
                           rc: 0.34,
                           lmax: 2}
    cutoffs: {filter: 1.91,
              core: 2.36}
    valence states:
      #              energy  rcut
      - 3s(2.00)    -7.753   1.085
      - 3p(1.00)    -2.712   1.085
      -  s          19.459   1.085
      -  p          24.499   1.085
      -  d           0.000   1.085
  
    # Using partial waves for Al as LCAO basis

Reference energy: -3699400.456887  # eV

Spin-polarized calculation.
Magnetic moment: 143.500000

Convergence criteria:
 Maximum [total energy] change in last 3 cyles: 0.0001 eV / electron
 Maximum integral of absolute [dens]ity change: 0.0001 electrons / valence electron
 Maximum integral of absolute [eigenst]ate change: 4e-08 eV^2 / valence electron
 Maximum number of scf [iter]ations: 666
 (Square brackets indicate name in SCF output, whereas a 'c' in
 the SCF output indicates the quantity has converged.)

Symmetries present (total): 1

  ( 1  0  0)
  ( 0  1  0)
  ( 0  0  1)

8 k-points: 2 x 2 x 2 Monkhorst-Pack grid
4 k-points in the irreducible part of the Brillouin zone
       k-points in crystal coordinates                weights
   0:     0.25000000   -0.25000000   -0.25000000          2/8
   1:     0.25000000   -0.25000000    0.25000000          2/8
   2:     0.25000000    0.25000000   -0.25000000          2/8
   3:     0.25000000    0.25000000    0.25000000          2/8

Wave functions: Plane wave expansion
  Cutoff energy: 350.000 eV
  Number of coefficients (min, max): 18052, 18052
  Pulay-stress correction: 0.000000 eV/Ang^3 (de/decut=0.000000)
  Using FFTW library
  ScaLapack parameters: grid=1x1, blocksize=None
  Wavefunction extrapolation:
    Improved wavefunction reuse through dual PAW basis 

Occupation numbers: Fermi-Dirac:
  width: 0.1000  # eV
 

Eigensolver
   Davidson(niter=2) 

Densities:
  Coarse grid: 48*48*48 grid
  Fine grid: 96*96*96 grid
  Total Charge: 0.000000 

Density mixing:
  Method: difference
  Backend: pulay
  Linear mixing parameter: 0.05
  old densities: 5
  Damping of long wavelength oscillations: 50 

Hamiltonian:
  XC and Coulomb potentials evaluated on a 96*96*96 grid
  Using the PBE Exchange-Correlation functional
  External potential:
    NoExternalPotential
 

XC parameters: PBE with 2 nearest neighbor stencil

Memory estimate:
  Process memory now: 267.19 MiB
  Calculator: 1062.64 MiB
    Density: 5.44 MiB
      Arrays: 2.05 MiB
      Localized functions: 2.57 MiB
      Mixer: 0.82 MiB
    Hamiltonian: 1.60 MiB
      Arrays: 1.52 MiB
      XC: 0.00 MiB
      Poisson: 0.00 MiB
      vbar: 0.08 MiB
    Wavefunctions: 1055.59 MiB
      Arrays psit_nG: 774.57 MiB
      Eigensolver: 270.45 MiB
      Projections: 5.49 MiB
      Projectors: 0.70 MiB
      PW-descriptor: 4.38 MiB

Total number of cores used: 30
Parallelization over k-points: 2
Domain decomposition: 5 x 3 x 1

Number of atoms: 108
Number of atomic orbitals: 1025
Number of bands in calculation: 703
Number of valence electrons: 1020
Bands to converge: occupied

... initialized

Initializing position-dependent things.

Density initialized from atomic densities
Creating initial wave functions:
  703 bands from LCAO basis set

        Ni------------------------.  
       /|  Co                Co   |  
      Cr|   Ni         Ni         |  
     / Fe      Fe       Al        |  
    /   CCo      Cr       Fe      |  
   /e   | CoNi     CoAl    NiNi   |  
  /  FeCr  CrCo     NiNiCo        |  
 *    FeFe  FeCoCr     CoAl       |  
 |     CoFeNi  CoFe Ni  CrFeNi    |  
 | Fe   NiNiNiCo NiCrCrFe  Cr     |  
 |   CoCr  CrAlCr   CrNiCr   Fe   |  
 |    FeNi  FeFeCoCr CoFeNi   Cr  |  
 |     CrFeFe  Cr NiCr  CoFeFe    |  
 |      .-CoNiCo-FeCrNiCo--CoCr---.  
 |   CrCo    CoAl   NiNiFe       /   
 |    / Ni    CrFe       Ni     /    
 |   /            Ni           /     
 |Cr/      Co       Co        /      
 | /                         /       
 |/            Cr           /        
 *----------------Cr-------*         

Positions:
   0 Ni     0.005316   -0.016350   10.639749    ( 0.0000,  0.0000,  0.0000)
   1 Cr    10.672340    1.801276    1.786848    ( 0.0000,  0.0000,  0.0000)
   2 Fe     1.795727   10.625972    1.782259    ( 0.0000,  0.0000,  0.0000)
   3 Cr     1.780787    1.796175   10.644605    ( 0.0000,  0.0000,  2.1000)
   4 Fe     3.523539   -0.014558    0.017268    ( 0.0000,  0.0000,  2.0000)
   5 Co     3.522568    1.781672    1.746648    ( 0.0000,  0.0000,  0.0000)
   6 Co     5.320952   10.642342    1.763136    ( 0.0000,  0.0000,  1.5000)
   7 Cr     5.342082    1.828767    0.007462    ( 0.0000,  0.0000,  2.0000)
   8 Cr     7.144895    0.019195    0.012033    ( 0.0000,  0.0000,  0.0000)
   9 Co     7.143497    1.798064    1.764939    ( 0.0000,  0.0000,  2.1000)
  10 Cr     8.891362   10.651627    1.788353    ( 0.0000,  0.0000,  1.5000)
  11 Co     8.888779    1.804777   10.642609    ( 0.0000,  0.0000,  2.0000)
  12 Fe     0.008694    3.581540   10.650250    ( 0.0000,  0.0000,  2.1000)
  13 Cr     0.018979    5.332745    1.789751    ( 0.0000,  0.0000,  2.1000)
  14 Ni     1.778129    3.600941    1.760019    ( 0.0000,  0.0000,  2.0000)
  15 Co     1.790423    5.343267   -0.017766    ( 0.0000,  0.0000,  2.0000)
  16 Ni     3.542802    3.589864   -0.015614    ( 0.0000,  0.0000,  2.0000)
  17 Co     3.526837    5.358538    1.765793    ( 0.0000,  0.0000,  2.0000)
  18 Fe     5.336650    3.606501    1.755815    ( 0.0000,  0.0000,  0.0000)
  19 Cr     5.300399    5.323642   -0.012797    ( 0.0000,  0.0000,  2.1000)
  20 Al     7.122858    3.584816   10.659524    ( 0.0000,  0.0000,  2.0000)
  21 Ni     7.120500    5.315168    1.805502    ( 0.0000,  0.0000,  1.5000)
  22 Ni     8.892034    3.590952    1.773146    ( 0.0000,  0.0000,  2.1000)
  23 Fe     8.925340    5.301487   -0.003100    ( 0.0000,  0.0000,  0.0000)
  24 Cr     0.023055    7.096680   -0.007939    ( 0.0000,  0.0000,  0.0000)
  25 Cr     0.019141    8.871245    1.787510    ( 0.0000,  0.0000,  1.5000)
  26 Co     1.784372    7.104567    1.776443    ( 0.0000,  0.0000,  2.0000)
  27 Co     1.779944    8.867628   10.659406    ( 0.0000,  0.0000,  1.5000)
  28 Cr     3.547785    7.097897    0.009215    ( 0.0000,  0.0000,  2.1000)
  29 Cr     3.541137    8.858109    1.788225    ( 0.0000,  0.0000,  2.1000)
  30 Cr     5.295105    7.099391    1.787894    ( 0.0000,  0.0000,  2.1000)
  31 Ni     5.303685    8.873828    0.029898    ( 0.0000,  0.0000,  0.0000)
  32 Ni     7.106883    7.088719   10.645159    ( 0.0000,  0.0000,  0.0000)
  33 Co     7.111055    8.901137    1.809472    ( 0.0000,  0.0000,  0.0000)
  34 Co     8.939384    7.093404    1.799238    ( 0.0000,  0.0000,  0.0000)
  35 Co     8.919972    8.915853   10.664881    ( 0.0000,  0.0000,  0.0000)
  36 Ni    10.679704   10.658873    3.584517    ( 0.0000,  0.0000,  2.0000)
  37 Fe    10.670921    1.796367    5.340289    ( 0.0000,  0.0000,  2.1000)
  38 Fe     1.770350   10.649001    5.343491    ( 0.0000,  0.0000,  0.0000)
  39 Co     1.791800    1.784671    3.584891    ( 0.0000,  0.0000,  2.0000)
  40 Ni     3.529718   10.626388    3.565234    ( 0.0000,  0.0000,  2.1000)
  41 Fe     3.535716    1.793465    5.367289    ( 0.0000,  0.0000,  1.5000)
  42 Co     5.311497    0.001574    5.366254    ( 0.0000,  0.0000,  1.5000)
  43 Al     5.332627    1.768055    3.580793    ( 0.0000,  0.0000,  0.0000)
  44 Ni     7.136966   10.673941    3.563804    ( 0.0000,  0.0000,  2.0000)
  45 Cr     7.136774    1.794126    5.358944    ( 0.0000,  0.0000,  2.1000)
  46 Co     8.925938   10.673621    5.347589    ( 0.0000,  0.0000,  2.0000)
  47 Fe     8.883827    1.779111    3.582404    ( 0.0000,  0.0000,  1.5000)
  48 Cr    -0.010038    3.572341    3.580996    ( 0.0000,  0.0000,  2.0000)
  49 Co    10.685573    5.328935    5.338550    ( 0.0000,  0.0000,  2.0000)
  50 Ni     1.784180    3.582949    5.348357    ( 0.0000,  0.0000,  1.5000)
  51 Fe     1.766326    5.339510    3.565255    ( 0.0000,  0.0000,  1.5000)
  52 Ni     3.522387    3.605007    3.574059    ( 0.0000,  0.0000,  0.0000)
  53 Al     3.543581    5.347343    5.347962    ( 0.0000,  0.0000,  2.1000)
  54 Co     5.333950    3.591678    5.360630    ( 0.0000,  0.0000,  2.0000)
  55 Ni     5.336458    5.346308    3.560132    ( 0.0000,  0.0000,  0.0000)
  56 Ni     7.143102    3.570089    3.572138    ( 0.0000,  0.0000,  2.1000)
  57 Ni     7.120265    5.347471    5.345689    ( 0.0000,  0.0000,  2.0000)
  58 Ni     8.888299    3.570665    5.342018    ( 0.0000,  0.0000,  1.5000)
  59 Fe     8.904573    5.339084    3.577453    ( 0.0000,  0.0000,  2.0000)
  60 Fe     0.020297    7.105111    3.565266    ( 0.0000,  0.0000,  0.0000)
  61 Co     0.010839    8.875973    5.335359    ( 0.0000,  0.0000,  1.5000)
  62 Ni     1.776144    7.099124    5.335530    ( 0.0000,  0.0000,  2.0000)
  63 Cr     1.782707    8.879996    3.566664    ( 0.0000,  0.0000,  1.5000)
  64 Fe     3.540379    7.112901    3.549920    ( 0.0000,  0.0000,  2.1000)
  65 Co     3.550165    8.855643    5.319490    ( 0.0000,  0.0000,  2.1000)
  66 Cr     5.302320    7.072776    5.331720    ( 0.0000,  0.0000,  1.5000)
  67 Cr     5.308712    8.888715    3.547198    ( 0.0000,  0.0000,  2.0000)
  68 Fe     7.110436    7.091110    3.542599    ( 0.0000,  0.0000,  1.5000)
  69 Cr     7.111322    8.868257    5.343331    ( 0.0000,  0.0000,  0.0000)
  70 Cr     8.928819    7.090939    5.344996    ( 0.0000,  0.0000,  1.5000)
  71 Fe     8.912748    8.874735    3.555853    ( 0.0000,  0.0000,  2.0000)
  72 Co     0.013232   10.658937    7.109743    ( 0.0000,  0.0000,  0.0000)
  73 Ni    10.669470    1.787435    8.884158    ( 0.0000,  0.0000,  2.0000)
  74 Ni     1.768674   10.665478    8.879922    ( 0.0000,  0.0000,  2.0000)
  75 Cr     1.779645    1.805428    7.118291    ( 0.0000,  0.0000,  0.0000)
  76 Fe     3.512206   10.665905    7.084504    ( 0.0000,  0.0000,  0.0000)
  77 Ni     3.526218    1.824316    8.898021    ( 0.0000,  0.0000,  0.0000)
  78 Co     5.331144    0.023495    8.896708    ( 0.0000,  0.0000,  0.0000)
  79 Cr     5.335252    1.825362    7.095656    ( 0.0000,  0.0000,  2.1000)
  80 Cr     7.148524    0.023834    7.114139    ( 0.0000,  0.0000,  0.0000)
  81 Ni     7.139922    1.808384    8.892706    ( 0.0000,  0.0000,  2.1000)
  82 Fe     8.906836    0.013024    8.882259    ( 0.0000,  0.0000,  2.1000)
  83 Cr     8.894083    1.797691    7.127959    ( 0.0000,  0.0000,  0.0000)
  84 Fe     0.021840    3.574998    7.113777    ( 0.0000,  0.0000,  1.5000)
  85 Fe     0.023462    5.326566    8.882152    ( 0.0000,  0.0000,  1.5000)
  86 Fe     1.768098    3.569908    8.891692    ( 0.0000,  0.0000,  2.1000)
  87 Fe     1.775205    5.350033    7.118739    ( 0.0000,  0.0000,  2.1000)
  88 Ni     3.546355    3.587879    7.119902    ( 0.0000,  0.0000,  2.1000)
  89 Co     3.540272    5.336074    8.886271    ( 0.0000,  0.0000,  2.1000)
  90 Cr     5.331998    3.563526    8.882088    ( 0.0000,  0.0000,  1.5000)
  91 Fe     5.316310    5.330738    7.117095    ( 0.0000,  0.0000,  1.5000)
  92 Cr     7.104076    3.574977    7.111546    ( 0.0000,  0.0000,  1.5000)
  93 Ni     7.108740    5.307762    8.854395    ( 0.0000,  0.0000,  1.5000)
  94 Al     8.907593    3.561296    8.890348    ( 0.0000,  0.0000,  2.1000)
  95 Fe     8.917806    5.336309    7.100224    ( 0.0000,  0.0000,  0.0000)
  96 Fe     0.016270    7.102027    7.111664    ( 0.0000,  0.0000,  2.0000)
  97 Fe     0.000822    8.895150    8.883817    ( 0.0000,  0.0000,  1.5000)
  98 Co     1.771182    7.105090    8.888608    ( 0.0000,  0.0000,  1.5000)
  99 Cr     1.775184    8.850318    7.108494    ( 0.0000,  0.0000,  2.0000)
 100 Co     3.530401    7.086478    7.104972    ( 0.0000,  0.0000,  1.5000)
 101 Fe     3.524841    8.851001    8.894798    ( 0.0000,  0.0000,  0.0000)
 102 Co     5.310654    7.102827    8.871128    ( 0.0000,  0.0000,  0.0000)
 103 Ni     5.290613    8.850286    7.104876    ( 0.0000,  0.0000,  0.0000)
 104 Co     7.129016    7.083330    7.142750    ( 0.0000,  0.0000,  2.1000)
 105 Al     7.143241    8.903186    8.854384    ( 0.0000,  0.0000,  2.0000)
 106 Ni     8.926504    7.115858    8.862313    ( 0.0000,  0.0000,  0.0000)
 107 Ni     8.932896    8.877648    7.127479    ( 0.0000,  0.0000,  1.5000)

Unit cell:
           periodic     x           y           z      points  spacing
  1. axis:    yes   10.671700    0.000000    0.000000    48     0.2223
  2. axis:    yes    0.000000   10.671700    0.000000    48     0.2223
  3. axis:    yes    0.000000    0.000000   10.671700    48     0.2223

  Lengths:  10.671700  10.671700  10.671700
  Angles:   90.000000  90.000000  90.000000

Effective grid spacing dv^(1/3) = 0.2223

     iter     time        total  log10-change:  magmom
                         energy  eigst   dens
iter:   1 23:43:43  -939.951601                  +143.1605
iter:   2 23:46:31  -932.813749  -0.48  -1.35    +106.6754
iter:   3 23:49:19  -902.580132  -0.92  -1.28    +76.6217
iter:   4 23:52:07  -876.003440  -1.38  -1.38    +64.6311
iter:   5 23:54:55  -872.591022  -1.92  -1.47    +57.9181
iter:   6 23:57:43  -875.434552  -1.97  -1.51    +54.4881
iter:   7 00:00:31  -875.472766  -1.69  -1.53    +52.8386
iter:   8 00:03:20  -870.517494  -1.78  -1.57    +51.7041
iter:   9 00:06:07  -877.564937  -1.80  -1.73    +51.2853
iter:  10 00:08:56  -868.029295  -2.00  -1.68    +50.6607
iter:  11 00:11:43  -867.840314  -2.63  -1.90    +51.0629
iter:  12 00:14:31  -868.669269  -2.71  -1.95    +51.7934
iter:  13 00:17:20  -869.062370  -2.70  -1.96    +52.5983
iter:  14 00:20:08  -869.274296  -2.77  -1.99    +53.0342
iter:  15 00:22:57  -870.531713  -2.65  -2.07    +53.6295
iter:  16 00:25:45  -870.821036  -2.55  -2.05    +54.2940
iter:  17 00:28:33  -869.634456  -2.84  -2.05    +54.6317
iter:  18 00:31:22  -869.735658  -3.06  -2.20    +55.2632
iter:  19 00:34:10  -870.078051  -3.03  -2.25    +55.7473
iter:  20 00:37:00  -869.738757  -3.20  -2.22    +56.5393
iter:  21 00:39:49  -870.091436  -3.17  -2.34    +57.2214
iter:  22 00:42:39  -870.068696  -3.23  -2.32    +57.5156
iter:  23 00:45:29  -870.217337  -3.19  -2.38    +58.2995
iter:  24 00:48:19  -870.075629  -3.48  -2.39    +58.6275
iter:  25 00:51:10  -870.356341  -3.38  -2.47    +59.4263
iter:  26 00:54:01  -870.351923  -3.51  -2.44    +59.8486
iter:  27 00:56:52  -870.404506c -3.74  -2.50    +60.4119
iter:  28 00:59:43  -870.503848  -3.77  -2.55    +61.1231
iter:  29 01:02:33  -870.774369  -3.45  -2.61    +62.1770
iter:  30 01:05:23  -870.750992  -3.85  -2.55    +62.4752
iter:  31 01:08:11  -870.856093  -3.50  -2.65    +62.9273
iter:  32 01:11:01  -870.895883  -3.60  -2.72    +63.1678
iter:  33 01:13:51  -870.878355c -4.02  -2.74    +63.3149
iter:  34 01:16:42  -870.903565c -4.30  -2.86    +63.4729
iter:  35 01:19:33  -870.960049c -4.07  -2.90    +63.6916
iter:  36 01:22:24  -870.979524c -4.34  -2.90    +63.7832
iter:  37 01:25:14  -871.001898c -4.38  -2.94    +63.8264
iter:  38 01:28:05  -870.997084c -4.50  -2.96    +63.8400
iter:  39 01:30:55  -871.008414c -4.61  -3.09    +63.8280
iter:  40 01:33:47  -871.010390c -4.84  -3.09    +63.8523
iter:  41 01:36:37  -871.019376c -4.91  -3.17    +63.9123
iter:  42 01:39:28  -871.036349c -4.81  -3.25    +63.9496
iter:  43 01:42:18  -871.041996c -5.13  -3.26    +63.9748
iter:  44 01:45:08  -871.055067c -4.95  -3.29    +64.0294
iter:  45 01:47:59  -871.066000c -4.96  -3.33    +64.0584
iter:  46 01:50:49  -871.074821c -5.00  -3.33    +64.1056
iter:  47 01:53:40  -871.080745c -5.13  -3.36    +64.1483
iter:  48 01:56:31  -871.098740c -4.85  -3.45    +64.2274
iter:  49 01:59:21  -871.099257c -5.55  -3.46    +64.2365
iter:  50 02:02:12  -871.114385c -5.06  -3.50    +64.3225
iter:  51 02:05:02  -871.114929c -5.69  -3.50    +64.3249
iter:  52 02:07:52  -871.130399c -5.04  -3.54    +64.4082
iter:  53 02:10:43  -871.123770c -5.64  -3.53    +64.3743
iter:  54 02:13:34  -871.126155c -5.66  -3.61    +64.3983
iter:  55 02:16:24  -871.139091c -5.22  -3.66    +64.4798
iter:  56 02:19:15  -871.142728c -5.71  -3.65    +64.5193
iter:  57 02:22:05  -871.157904c -5.09  -3.70    +64.6247
iter:  58 02:24:56  -871.155572c -6.15  -3.69    +64.6066
iter:  59 02:27:44  -871.171248c -5.18  -3.66    +64.7155
iter:  60 02:30:33  -871.090900c -3.76  -3.61    +64.0903
iter:  61 02:33:24  -871.048277  -3.79  -3.64    +63.6252
iter:  62 02:36:15  -871.044800c -4.46  -3.46    +63.5165
iter:  63 02:39:06  -871.048093c -4.43  -3.41    +63.3650
iter:  64 02:41:56  -871.055396c -5.28  -3.36    +63.4264
iter:  65 02:44:46  -871.058421c -5.60  -3.40    +63.4343
iter:  66 02:47:37  -871.059247c -5.75  -3.43    +63.4659
iter:  67 02:50:28  -871.072571c -4.89  -3.47    +63.4685
iter:  68 02:53:19  -871.066378c -4.92  -3.23    +63.4863
iter:  69 02:56:10  -871.075227c -5.02  -3.45    +63.5395
iter:  70 02:59:01  -871.078883c -5.34  -3.47    +63.5870
iter:  71 03:01:52  -871.085291c -5.44  -3.66    +63.6244
iter:  72 03:04:42  -871.091617c -5.42  -3.62    +63.6632
iter:  73 03:07:32  -871.096502c -5.61  -3.64    +63.6978
iter:  74 03:10:23  -871.116331c -4.75  -3.65    +63.8080
iter:  75 03:13:13  -871.085320c -4.56  -3.53    +63.6255
iter:  76 03:16:04  -871.063055c -4.49  -3.59    +63.4731
iter:  77 03:18:54  -871.083219c -5.04  -3.73    +63.6052
iter:  78 03:21:45  -871.064465c -4.94  -3.69    +63.4803
iter:  79 03:24:35  -871.078311c -5.25  -3.69    +63.5648
iter:  80 03:27:26  -871.070580c -5.61  -3.66    +63.5064
iter:  81 03:30:16  -871.074733c -5.79  -3.73    +63.5260
iter:  82 03:33:06  -871.078208c -5.72  -3.69    +63.5683
iter:  83 03:35:57  -871.083621c -5.62  -3.80    +63.6190
iter:  84 03:38:47  -871.098843c -4.95  -3.83    +63.7309
iter:  85 03:41:38  -871.097512c -6.14  -3.74    +63.7159
iter:  86 03:44:28  -871.116344c -4.77  -3.69    +63.8276
iter:  87 03:47:19  -871.120107c -5.48  -3.58    +63.8737
iter:  88 03:50:09  -871.124265c -5.48  -3.51    +63.8892
iter:  89 03:52:59  -871.137219c -4.93  -3.55    +63.9811
iter:  90 03:55:49  -871.154133c -4.79  -3.52    +64.0981
iter:  91 03:58:39  -871.152472c -5.27  -3.35    +64.0955
iter:  92 04:01:28  -871.158003c -5.11  -3.39    +64.1581
iter:  93 04:04:18  -871.160214c -5.57  -3.41    +64.1809
iter:  94 04:07:08  -871.170197c -5.19  -3.47    +64.2580
iter:  95 04:09:57  -871.172671c -5.43  -3.41    +64.2736
iter:  96 04:12:44  -871.178418c -5.30  -3.37    +64.3356
iter:  97 04:15:32  -871.183202c -5.51  -3.40    +64.3717
iter:  98 04:18:22  -871.194574c -5.10  -3.39    +64.4355
iter:  99 04:21:12  -871.187009c -5.22  -3.33    +64.3877
iter: 100 04:24:02  -871.201350c -4.90  -3.30    +64.4466
iter: 101 04:26:52  -871.202677c -5.27  -3.29    +64.4537
iter: 102 04:29:42  -871.206868c -5.11  -3.30    +64.5035
iter: 103 04:32:33  -871.220332c -4.54  -3.32    +64.5207
iter: 104 04:35:23  -871.211490c -4.80  -3.18    +64.5567
iter: 105 04:38:14  -871.209253c -5.07  -3.34    +64.5764
iter: 106 04:41:05  -871.215524c -5.16  -3.60    +64.5736
iter: 107 04:43:55  -871.215005c -5.58  -3.48    +64.5728
iter: 108 04:46:46  -871.218088c -5.46  -3.63    +64.5802
iter: 109 04:49:36  -871.222650c -5.41  -3.71    +64.5667
iter: 110 04:52:26  -871.224965c -5.55  -3.67    +64.5433
iter: 111 04:55:16  -871.230355c -5.28  -3.72    +64.5162
iter: 112 04:58:06  -871.233638c -5.71  -3.70    +64.5035
iter: 113 05:00:56  -871.229663c -5.68  -3.60    +64.4937
iter: 114 05:03:46  -871.233506c -5.30  -3.60    +64.4901
iter: 115 05:06:35  -871.238585c -5.29  -3.60    +64.4501
iter: 116 05:09:26  -871.237329c -5.73  -3.59    +64.4317
iter: 117 05:12:15  -871.239635c -5.61  -3.68    +64.3936
iter: 118 05:15:03  -871.245791c -5.11  -3.75    +64.2708
iter: 119 05:17:54  -871.241399c -5.66  -3.63    +64.3455
iter: 120 05:20:44  -871.242288c -5.77  -3.83    +64.3468
iter: 121 05:23:34  -871.243709c -5.76  -3.79    +64.2952
iter: 122 05:26:25  -871.245720c -5.84  -3.98    +64.2418
iter: 123 05:29:14  -871.246453c -6.28  -4.07c   +64.2224
iter: 124 05:32:05  -871.248657c -5.95  -4.08c   +64.1755
iter: 125 05:34:55  -871.248224c -6.87  -4.04c   +64.1878
iter: 126 05:37:45  -871.251997c -5.70  -4.03c   +64.1048
iter: 127 05:40:35  -871.238641c -4.62  -3.96    +64.4529
iter: 128 05:43:26  -871.228361c -4.45  -4.03c   +64.7796
iter: 129 05:46:15  -871.225582c -4.88  -3.79    +64.9127
iter: 130 05:49:05  -871.224745c -5.08  -3.70    +65.0242
iter: 131 05:51:53  -871.226479c -5.19  -3.64    +65.0999
iter: 132 05:54:39  -871.227555c -5.72  -3.59    +65.0090
iter: 133 05:57:29  -871.229414c -5.78  -3.57    +65.0408
iter: 134 06:00:20  -871.230623c -6.01  -3.55    +64.9928
iter: 135 06:03:09  -871.234103c -5.36  -3.55    +64.9808
iter: 136 06:05:59  -871.233140c -5.10  -3.46    +64.9534
iter: 137 06:08:49  -871.232427c -5.36  -3.48    +64.9698
iter: 138 06:11:39  -871.234074c -5.51  -3.71    +64.9585
iter: 139 06:14:28  -871.235867c -5.78  -3.79    +64.9543
iter: 140 06:17:18  -871.236655c -5.89  -3.85    +64.9461
iter: 141 06:20:07  -871.239055c -5.68  -3.98    +64.9157
iter: 142 06:22:57  -871.237968c -6.56  -3.94    +64.9264
iter: 143 06:25:46  -871.239542c -6.17  -4.06c   +64.9025
iter: 144 06:28:36  -871.239845c -6.49  -3.99    +64.9040
iter: 145 06:31:26  -871.241824c -5.90  -4.10c   +64.8859
iter: 146 06:34:16  -871.241471c -6.88  -4.09c   +64.8903
iter: 147 06:37:05  -871.243954c -5.87  -4.17c   +64.8709
iter: 148 06:39:54  -871.242751c -6.76  -4.04c   +64.8828
iter: 149 06:42:44  -871.240845c -6.03  -4.14c   +64.8877
iter: 150 06:45:33  -871.244697c -5.68  -4.20c   +64.8579
iter: 151 06:48:20  -871.239980c -5.40  -4.20c   +64.8898
iter: 152 06:51:08  -871.238234c -5.85  -4.15c   +64.8767
iter: 153 06:53:58  -871.240260c -6.31  -4.31c   +64.8501
iter: 154 06:56:48  -871.239210c -6.81  -4.49c   +64.8640
iter: 155 06:59:38  -871.235560c -5.53  -4.45c   +64.9137
iter: 156 07:02:27  -871.238132c -6.16  -4.29c   +64.8820
iter: 157 07:05:16  -871.236540c -6.47  -4.47c   +64.9001
iter: 158 07:08:06  -871.237535c -6.96  -4.39c   +64.8975
iter: 159 07:10:56  -871.238833c -6.30  -4.42c   +64.8792
iter: 160 07:13:45  -871.235265c -5.63  -4.68c   +64.9274
iter: 161 07:16:34  -871.225738c -4.56  -4.31c   +65.0518
iter: 162 07:19:24  -871.225657c -5.49  -3.84    +65.0420
iter: 163 07:22:13  -871.226641c -5.24  -3.83    +64.9704
iter: 164 07:25:02  -871.228779c -5.57  -3.81    +64.9122
iter: 165 07:27:52  -871.224346c -5.07  -3.83    +65.0566
iter: 166 07:30:41  -871.229130c -5.17  -3.78    +64.9240
iter: 167 07:33:31  -871.227457c -5.33  -3.62    +65.0171
iter: 168 07:36:21  -871.232852c -5.11  -3.65    +64.9225
iter: 169 07:39:11  -871.230331c -5.35  -3.52    +64.9626
iter: 170 07:42:00  -871.230595c -5.67  -3.65    +64.9447
iter: 171 07:44:49  -871.233066c -5.66  -4.14c   +64.9144
iter: 172 07:47:40  -871.235277c -5.69  -4.12c   +64.8823
iter: 173 07:50:26  -871.236930c -5.70  -4.14c   +64.8487
iter: 174 07:53:15  -871.238754c -5.75  -4.37c   +64.8043
iter: 175 07:56:05  -871.238523c -6.70  -4.33c   +64.8110
iter: 176 07:58:54  -871.239246c -6.47  -4.39c   +64.7970
iter: 177 08:01:43  -871.238787c -6.89  -4.37c   +64.8053
iter: 178 08:04:32  -871.238394c -5.90  -4.35c   +64.8216
iter: 179 08:07:21  -871.240366c -5.97  -4.18c   +64.7768
iter: 180 08:10:11  -871.240000c -6.45  -4.30c   +64.7957
iter: 181 08:13:00  -871.242356c -5.80  -4.15c   +64.7389
iter: 182 08:15:49  -871.240373c -5.83  -4.19c   +64.7998
iter: 183 08:18:38  -871.242261c -6.07  -4.05c   +64.7563
iter: 184 08:21:28  -871.243985c -5.88  -4.12c   +64.7094
iter: 185 08:24:17  -871.244661c -6.14  -4.13c   +64.6908
iter: 186 08:27:06  -871.244890c -6.49  -4.09c   +64.6863
iter: 187 08:29:56  -871.247119c -5.80  -4.23c   +64.6323
iter: 188 08:32:46  -871.243720c -5.59  -4.22c   +64.7188
iter: 189 08:35:35  -871.240672c -5.40  -4.30c   +64.7835
iter: 190 08:38:24  -871.242931c -6.11  -4.25c   +64.7167
iter: 191 08:41:14  -871.241749c -6.46  -4.39c   +64.7450
iter: 192 08:44:03  -871.243151c -6.35  -4.38c   +64.7025
iter: 193 08:46:53  -871.240006c -5.67  -4.50c   +64.7859
iter: 194 08:49:41  -871.239182c -6.21  -4.38c   +64.8052
iter: 195 08:52:30  -871.237649c -5.92  -4.29c   +64.8217
iter: 196 08:55:19  -871.233383c -5.05  -4.15c   +64.8548
iter: 197 08:58:06  -871.231390c -5.20  -3.88    +64.8477
iter: 198 09:00:55  -871.232449c -5.99  -3.76    +64.8087
iter: 199 09:03:45  -871.233231c -6.39  -3.75    +64.7891
iter: 200 09:06:35  -871.233773c -6.44  -3.78    +64.7638
iter: 201 09:09:24  -871.234676c -6.42  -3.78    +64.7435
iter: 202 09:12:13  -871.235548c -5.43  -3.82    +64.7191
iter: 203 09:15:02  -871.235233c -5.79  -3.77    +64.7052
iter: 204 09:17:51  -871.238051c -5.47  -3.84    +64.6591
iter: 205 09:20:40  -871.236196c -6.03  -3.64    +64.6649
iter: 206 09:23:29  -871.238178c -5.98  -4.11c   +64.6266
iter: 207 09:26:19  -871.239021c -6.15  -4.09c   +64.6203
iter: 208 09:29:08  -871.240449c -6.03  -4.17c   +64.5953
iter: 209 09:31:58  -871.243698c -5.48  -4.27c   +64.5399
iter: 210 09:34:48  -871.243204c -6.66  -4.23c   +64.5429
iter: 211 09:37:38  -871.243576c -6.53  -4.30c   +64.5154
iter: 212 09:40:27  -871.244603c -6.40  -4.27c   +64.5221
iter: 213 09:43:17  -871.248377c -5.43  -4.26c   +64.4847
iter: 214 09:46:07  -871.243760c -5.43  -3.98    +64.5126
iter: 215 09:48:57  -871.244983c -6.52  -4.42c   +64.4798
iter: 216 09:51:47  -871.240705c -5.31  -4.31c   +64.6148
iter: 217 09:54:36  -871.225658c -3.96  -4.33c   +65.1995
iter: 218 09:57:25  -871.233790c -4.81  -3.63    +64.8673
iter: 219 10:00:14  -871.238843c -4.87  -3.92    +64.6900
iter: 220 10:03:04  -871.236313c -5.99  -4.22c   +64.7801
iter: 221 10:05:53  -871.234288c -5.53  -4.06c   +64.8656
iter: 222 10:08:43  -871.233378c -5.74  -3.90    +64.9056
iter: 223 10:11:32  -871.234840c -6.20  -3.88    +64.8572
iter: 224 10:14:22  -871.235889c -6.07  -3.92    +64.8217
iter: 225 10:17:11  -871.235921c -6.30  -3.96    +64.8327
iter: 226 10:19:59  -871.236927c -5.84  -3.85    +64.7877
iter: 227 10:22:49  -871.236672c -6.51  -3.96    +64.8237
iter: 228 10:25:37  -871.238672c -5.84  -4.07c   +64.8048
iter: 229 10:28:20  -871.237723c -6.14  -3.85    +64.8069
iter: 230 10:31:11  -871.239256c -6.00  -3.99    +64.7719
iter: 231 10:33:42  -871.240869c -5.90  -4.29c   +64.7475
iter: 232 10:36:12  -871.241418c -6.28  -4.25c   +64.7301
iter: 233 10:38:42  -871.242940c -5.93  -4.41c   +64.6983
iter: 234 10:41:12  -871.245339c -5.58  -4.45c   +64.6394
iter: 235 10:43:42  -871.239868c -5.15  -4.30c   +64.7740
iter: 236 10:46:12  -871.220897c -3.81  -4.41c   +65.2910
iter: 237 10:48:42  -871.254518c -3.57  -3.60    +64.4591
iter: 238 10:51:13  -871.232417c -4.15  -3.89    +64.9487
iter: 239 10:53:42  -871.214457c -3.75  -3.96    +65.4106
iter: 240 10:56:12  -871.252807c -3.41  -3.47    +64.5197
iter: 241 10:58:41  -871.264754c -4.02  -3.92    +64.3390
iter: 242 11:01:12  -871.243228c -4.21  -3.67    +64.7059
iter: 243 11:03:42  -871.219817c -3.56  -4.56c   +65.2733
iter: 244 11:06:11  -871.260939c -3.42  -3.54    +64.4045
iter: 245 11:08:41  -871.242888c -4.58  -3.73    +64.7003
iter: 246 11:11:10  -871.229105c -4.04  -4.62c   +65.0072
iter: 247 11:13:39  -871.235919c -5.03  -3.76    +64.8336
iter: 248 11:16:09  -871.260656c -3.79  -4.10c   +64.3706
iter: 249 11:18:38  -871.224730c -3.53  -3.75    +65.1083
iter: 250 11:21:07  -871.225575c -4.71  -3.62    +65.0775
iter: 251 11:23:36  -871.227244c -5.52  -3.62    +64.9957
iter: 252 11:26:06  -871.231191c -5.18  -3.64    +64.8209
iter: 253 11:28:36  -871.232039c -5.96  -3.68    +64.8005
iter: 254 11:31:05  -871.229664c -5.58  -3.69    +64.8540
iter: 255 11:34:04  -871.233936c -5.17  -3.66    +64.7978
iter: 256 11:37:13  -871.229481c -5.48  -3.50    +64.8562
iter: 257 11:39:43  -871.230626c -5.94  -3.71    +64.8306
iter: 258 11:42:14  -871.230105c -6.13  -3.79    +64.8326
iter: 259 11:44:44  -871.232638c -5.82  -3.80    +64.7995
iter: 260 11:47:13  -871.234367c -5.74  -3.91    +64.7637
iter: 261 11:49:44  -871.235073c -5.82  -3.89    +64.7454
iter: 262 11:52:14  -871.237160c -5.75  -3.99    +64.6980
iter: 263 11:54:43  -871.237069c -6.25  -3.98    +64.6882
iter: 264 11:57:13  -871.238833c -6.00  -4.16c   +64.6520
iter: 265 11:59:44  -871.239278c -6.27  -4.13c   +64.6307
iter: 266 12:02:14  -871.240699c -6.13  -4.22c   +64.5956
iter: 267 12:04:43  -871.241750c -6.31  -4.29c   +64.5741
iter: 268 12:07:13  -871.232528c -4.75  -4.17c   +64.7733
iter: 269 12:09:43  -871.220838c -4.22  -4.09c   +65.1025
iter: 270 12:12:12  -871.232040c -4.59  -3.64    +64.7909
iter: 271 12:14:42  -871.227432c -5.48  -4.12c   +64.9183
iter: 272 12:17:12  -871.224189c -5.21  -3.89    +65.0319
iter: 273 12:19:42  -871.228380c -5.31  -3.79    +64.8970
iter: 274 12:22:12  -871.225737c -5.66  -4.02c   +64.9898
iter: 275 12:24:40  -871.227889c -6.16  -3.87    +64.9598
iter: 276 12:27:10  -871.228745c -5.91  -3.82    +64.9291
iter: 277 12:29:55  -871.228574c -6.81  -4.03c   +64.9364
iter: 278 12:33:11  -871.230666c -5.79  -3.98    +64.9062
iter: 279 12:35:41  -871.229152c -6.17  -3.80    +64.9174
iter: 280 12:38:11  -871.230679c -6.00  -4.10c   +64.8939
iter: 281 12:40:41  -871.229925c -6.10  -3.91    +64.9089
iter: 282 12:43:10  -871.231840c -5.94  -3.94    +64.8738
iter: 283 12:45:41  -871.233831c -5.81  -4.46c   +64.8404
iter: 284 12:48:10  -871.239572c -5.08  -4.32c   +64.7346
iter: 285 12:50:40  -871.233988c -5.36  -4.05c   +64.8400
iter: 286 12:53:10  -871.221717c -4.40  -4.33c   +65.0918
iter: 287 12:55:40  -871.237957c -4.38  -3.87    +64.7647
iter: 288 12:58:09  -871.249144c -4.43  -4.19c   +64.5648
iter: 289 13:00:39  -871.216626c -3.73  -3.74    +65.2128
iter: 290 13:03:09  -871.223277c -5.31  -3.69    +65.0654
iter: 291 13:05:39  -871.231237c -4.80  -3.91    +64.8941
iter: 292 13:08:09  -871.247177c -4.19  -4.44c   +64.5934
iter: 293 13:10:38  -871.200897c -3.38  -3.80    +65.5408
iter: 294 13:13:07  -871.291325c -2.97  -3.39    +63.9624
iter: 295 13:15:37  -871.228502c -3.55  -3.29    +64.9182
iter: 296 13:18:07  -871.227902c -4.78  -4.16c   +64.9476
iter: 297 13:20:36  -871.230550c -5.97  -4.15c   +64.8954
iter: 298 13:23:05  -871.239367c -4.76  -4.31c   +64.7248
iter: 299 13:25:39  -871.239382c -5.87  -4.12c   +64.7262
iter: 300 13:28:39  -871.240885c -5.84  -4.12c   +64.6754
iter: 301 13:30:24  -871.242744c -5.80  -4.00    +64.6550
iter: 302 13:32:09  -871.242611c -6.64  -3.95    +64.6525
iter: 303 13:33:54  -871.244736c -5.82  -3.94    +64.6220
iter: 304 13:35:39  -871.244232c -6.64  -3.81    +64.6262
iter: 305 13:37:24  -871.246890c -5.60  -3.88    +64.5923
iter: 306 13:39:09  -871.244540c -5.96  -3.59    +64.6038
iter: 307 13:40:54  -871.245870c -5.97  -3.80    +64.5465
iter: 308 13:42:39  -871.246540c -5.50  -3.84    +64.5431
iter: 309 13:44:24  -871.246522c -5.79  -3.64    +64.5066
iter: 310 13:46:09  -871.247421c -5.95  -3.91    +64.4610
iter: 311 13:47:54  -871.249223c -5.94  -3.95    +64.4223
iter: 312 13:49:39  -871.248765c -6.13  -3.86    +64.4046
iter: 313 13:51:24  -871.250017c -6.01  -3.87    +64.3467
iter: 314 13:53:09  -871.250386c -6.56  -3.91    +64.3471
iter: 315 13:54:54  -871.251829c -6.02  -3.84    +64.2660
iter: 316 13:56:39  -871.250498c -5.66  -3.81    +64.3927
iter: 317 13:58:24  -871.252871c -5.66  -3.80    +64.2828
iter: 318 14:00:09  -871.252722c -6.10  -3.83    +64.2759
iter: 319 14:01:54  -871.253700c -6.01  -3.85    +64.2207
iter: 320 14:03:39  -871.254544c -5.72  -3.98    +64.1722
iter: 321 14:05:24  -871.255785c -5.98  -3.81    +64.1403
iter: 322 14:07:09  -871.256748c -5.98  -3.94    +64.0944
iter: 323 14:08:53  -871.257555c -5.98  -4.03c   +64.0612
iter: 324 14:10:38  -871.258452c -6.09  -3.90    +64.0274
iter: 325 14:12:23  -871.259710c -5.99  -4.13c   +63.9770
iter: 326 14:14:08  -871.259610c -6.68  -4.17c   +63.9804
iter: 327 14:15:53  -871.261150c -6.01  -4.22c   +63.9153
iter: 328 14:17:37  -871.257549c -5.59  -4.18c   +64.0444
iter: 329 14:19:22  -871.242665c -3.91  -4.32c   +64.8405
iter: 330 14:21:07  -871.242842c -4.97  -3.69    +64.8403
iter: 331 14:22:52  -871.243363c -5.38  -3.68    +64.8026
iter: 332 14:24:37  -871.244305c -5.70  -3.65    +64.7660
iter: 333 14:26:22  -871.241238c -4.95  -3.64    +64.8736
iter: 334 14:28:07  -871.247181c -5.07  -3.67    +64.7837
iter: 335 14:29:52  -871.244592c -5.16  -3.40    +64.8265
iter: 336 14:31:37  -871.247722c -5.13  -3.49    +64.7871
iter: 337 14:33:23  -871.243100c -5.30  -3.43    +64.7836
iter: 338 14:35:08  -871.243065c -5.66  -3.61    +64.7603
iter: 339 14:36:54  -871.243927c -6.02  -3.83    +64.7314
iter: 340 14:38:39  -871.244794c -5.78  -3.90    +64.6986
iter: 341 14:40:25  -871.244620c -6.16  -3.88    +64.6944
iter: 342 14:42:09  -871.245793c -5.97  -3.99    +64.6642
iter: 343 14:43:54  -871.246294c -6.16  -4.01c   +64.6515
iter: 344 14:45:39  -871.246557c -6.06  -4.03c   +64.6236
iter: 345 14:47:24  -871.247169c -6.21  -4.15c   +64.6062
iter: 346 14:49:08  -871.247918c -6.32  -4.19c   +64.5820
iter: 347 14:50:53  -871.249115c -6.02  -4.38c   +64.5478
iter: 348 14:52:38  -871.246880c -5.86  -4.35c   +64.6185
iter: 349 14:54:23  -871.232354c -3.92  -4.47c   +65.1864
iter: 350 14:56:07  -871.246679c -4.12  -3.71    +64.6146
iter: 351 14:57:52  -871.244881c -5.99  -4.40c   +64.6749
iter: 352 14:59:37  -871.242432c -5.59  -4.38c   +64.7485
iter: 353 15:01:22  -871.239177c -5.02  -4.21c   +64.8431
iter: 354 15:03:06  -871.239256c -5.98  -3.96    +64.8163
iter: 355 15:04:51  -871.240511c -5.70  -3.96    +64.7114
iter: 356 15:06:36  -871.240953c -6.37  -3.92    +64.6978
iter: 357 15:08:21  -871.241526c -6.54  -3.99    +64.6706
iter: 358 15:10:05  -871.242768c -5.71  -3.96    +64.6671
iter: 359 15:11:50  -871.241817c -5.93  -3.89    +64.6345
iter: 360 15:13:35  -871.242773c -5.87  -4.04c   +64.5735
iter: 361 15:15:20  -871.242588c -5.83  -4.08c   +64.6423
iter: 362 15:17:04  -871.243336c -5.89  -3.98    +64.5848
iter: 363 15:18:49  -871.243796c -6.41  -4.04c   +64.5972
iter: 364 15:20:34  -871.244871c -6.06  -4.21c   +64.5546
iter: 365 15:22:19  -871.245690c -6.13  -4.31c   +64.5191
iter: 366 15:24:04  -871.246732c -6.08  -4.23c   +64.4796
iter: 367 15:25:49  -871.246272c -6.84  -4.38c   +64.4810
iter: 368 15:27:34  -871.246673c -6.34  -4.38c   +64.4232
iter: 369 15:29:19  -871.247492c -6.51  -4.43c   +64.4417
iter: 370 15:31:04  -871.248216c -6.26  -4.45c   +64.3912
iter: 371 15:32:49  -871.246718c -5.55  -4.43c   +64.5339
iter: 372 15:34:34  -871.246117c -5.55  -4.39c   +64.6131
iter: 373 15:36:18  -871.247632c -5.73  -4.18c   +64.4895
iter: 374 15:38:03  -871.245417c -5.22  -4.38c   +64.6680
iter: 375 15:39:48  -871.245535c -5.95  -4.04c   +64.6563
iter: 376 15:41:33  -871.246731c -5.74  -3.97    +64.5879
iter: 377 15:43:18  -871.246540c -6.24  -3.90    +64.5851
iter: 378 15:45:03  -871.247400c -6.10  -3.94    +64.5322
iter: 379 15:46:47  -871.247268c -6.38  -4.00c   +64.5200
iter: 380 15:48:32  -871.248282c -5.92  -3.96    +64.4825
iter: 381 15:50:17  -871.248162c -6.13  -3.86    +64.4619
iter: 382 15:52:02  -871.249108c -5.91  -4.18c   +64.4064
iter: 383 15:53:47  -871.247475c -5.78  -4.23c   +64.4887
iter: 384 15:55:32  -871.246317c -5.77  -4.10c   +64.5362
iter: 385 15:57:17  -871.248704c -5.60  -3.99    +64.4292
iter: 386 15:59:02  -871.247109c -6.15  -4.25c   +64.4740
iter: 387 16:00:46  -871.248320c -6.14  -4.13c   +64.4214
iter: 388 16:02:31  -871.248173c -7.21  -4.24c   +64.4278
iter: 389 16:04:16  -871.249060c -6.32  -4.39c   +64.3919
iter: 390 16:06:01  -871.248483c -6.72  -4.32c   +64.4086
iter: 391 16:07:46  -871.250047c -6.03  -4.32c   +64.3560
iter: 392 16:09:30  -871.250882c -6.13  -4.30c   +64.3223
iter: 393 16:11:15  -871.249947c -6.50  -4.17c   +64.3647
iter: 394 16:13:00  -871.245680c -4.95  -4.29c   +64.5801
iter: 395 16:14:45  -871.250694c -5.05  -4.00    +64.3367
iter: 396 16:16:30  -871.250078c -6.49  -4.31c   +64.3554
iter: 397 16:18:14  -871.251645c -5.90  -4.21c   +64.2961
iter: 398 16:19:59  -871.252104c -6.39  -4.31c   +64.2811
iter: 399 16:21:44  -871.251119c -6.33  -4.23c   +64.3160
iter: 400 16:23:29  -871.247567c -4.99  -4.38c   +64.4437
iter: 401 16:25:14  -871.251271c -5.27  -4.11c   +64.3004
iter: 402 16:26:58  -871.250763c -6.57  -4.43c   +64.3088
iter: 403 16:28:43  -871.252667c -5.73  -4.35c   +64.2510
iter: 404 16:30:28  -871.252973c -6.44  -4.22c   +64.2337
iter: 405 16:32:13  -871.254039c -6.14  -4.24c   +64.1965
iter: 406 16:33:58  -871.249564c -5.08  -4.21c   +64.3455
iter: 407 16:35:44  -871.244248c -4.58  -4.56c   +64.5454
iter: 408 16:37:29  -871.245789c -5.85  -4.04c   +64.4686
iter: 409 16:39:15  -871.247899c -5.63  -4.15c   +64.3716
iter: 410 16:41:00  -871.245364c -5.62  -4.28c   +64.4830
iter: 411 16:42:46  -871.249939c -5.14  -4.10c   +64.2935
iter: 412 16:44:31  -871.242789c -4.70  -4.23c   +64.5991
iter: 413 16:46:17  -871.240685c -5.20  -3.88    +64.6709
iter: 414 16:48:02  -871.240739c -6.04  -3.85    +64.6521
iter: 415 16:49:48  -871.241203c -6.08  -3.80    +64.6246
iter: 416 16:51:33  -871.241729c -6.21  -3.91    +64.5966
iter: 417 16:53:19  -871.242382c -5.94  -3.95    +64.5630
iter: 418 16:55:04  -871.242006c -6.40  -4.02c   +64.5735
iter: 419 16:56:50  -871.243460c -5.84  -4.01c   +64.5145
iter: 420 16:58:35  -871.243583c -6.20  -3.96    +64.5098
iter: 421 17:00:21  -871.244569c -6.00  -4.04c   +64.4751
iter: 422 17:02:06  -871.245180c -6.25  -4.30c   +64.4449
iter: 423 17:03:52  -871.247603c -5.61  -4.49c   +64.3647
iter: 424 17:05:37  -871.242405c -5.09  -4.32c   +64.5498
iter: 425 17:07:23  -871.231057c -4.11  -4.25c   +65.0335
iter: 426 17:09:08  -871.244748c -4.18  -3.70    +64.4556
iter: 427 17:10:54  -871.242167c -6.01  -4.53c   +64.5457
iter: 428 17:12:39  -871.240435c -5.76  -4.28c   +64.6237
iter: 429 17:14:25  -871.240431c -6.47  -4.19c   +64.6233
iter: 430 17:16:10  -871.241430c -5.52  -4.19c   +64.5941
iter: 431 17:17:56  -871.243778c -5.13  -4.15c   +64.5362
iter: 432 17:19:41  -871.243700c -6.09  -4.05c   +64.5405
iter: 433 17:21:27  -871.245575c -5.37  -3.91    +64.5115
iter: 434 17:23:12  -871.245032c -5.76  -3.79    +64.5065
iter: 435 17:24:58  -871.246106c -5.65  -3.91    +64.4855
iter: 436 17:26:43  -871.246225c -5.91  -3.91    +64.4706
iter: 437 17:28:29  -871.246866c -5.92  -3.95    +64.4580
iter: 438 17:30:14  -871.247829c -6.08  -4.05c   +64.4313
iter: 439 17:32:00  -871.249087c -6.08  -4.18c   +64.4106
iter: 440 17:33:46  -871.249139c -6.26  -4.01c   +64.3972
iter: 441 17:35:31  -871.250104c -6.10  -4.19c   +64.3649
iter: 442 17:37:17  -871.249599c -6.65  -4.16c   +64.3844
iter: 443 17:39:03  -871.250622c -6.23  -4.14c   +64.3591
iter: 444 17:40:48  -871.250582c -7.12  -4.19c   +64.3588
iter: 445 17:42:34  -871.251714c -6.13  -4.19c   +64.3133
iter: 446 17:44:19  -871.251668c -6.59  -4.04c   +64.3251
iter: 447 17:46:05  -871.252988c -6.01  -4.21c   +64.2980
iter: 448 17:47:50  -871.251546c -6.20  -4.15c   +64.3165
iter: 449 17:49:36  -871.249697c -5.54  -4.24c   +64.3310
iter: 450 17:51:22  -871.251669c -5.89  -4.10c   +64.2833
iter: 451 17:53:07  -871.248863c -5.64  -4.30c   +64.3138
iter: 452 17:54:53  -871.249849c -6.63  -4.21c   +64.2830
iter: 453 17:56:38  -871.250144c -6.84  -4.33c   +64.2745
iter: 454 17:58:24  -871.250181c -7.04  -4.39c   +64.2667
iter: 455 18:00:09  -871.251444c -6.17  -4.39c   +64.2432
iter: 456 18:01:55  -871.246892c -5.15  -4.47c   +64.3119
iter: 457 18:03:40  -871.239934c -4.53  -4.16c   +64.3848
iter: 458 18:05:26  -871.241120c -5.87  -3.75    +64.3409
iter: 459 18:07:11  -871.244125c -5.26  -3.81    +64.2425
iter: 460 18:08:57  -871.244890c -5.99  -4.00c   +64.2284
iter: 461 18:10:42  -871.237353c -4.54  -4.04c   +64.3779
iter: 462 18:12:28  -871.235915c -5.15  -3.68    +64.4182
iter: 463 18:14:13  -871.237703c -5.75  -3.60    +64.3803
iter: 464 18:15:59  -871.237338c -6.09  -3.71    +64.3768
iter: 465 18:17:44  -871.238730c -5.97  -3.69    +64.3688
iter: 466 18:19:29  -871.241379c -5.24  -3.64    +64.3707
iter: 467 18:21:15  -871.240160c -5.45  -3.49    +64.3839
iter: 468 18:23:00  -871.242150c -5.32  -3.58    +64.3796
iter: 469 18:24:46  -871.240501c -5.62  -3.59    +64.3824
iter: 470 18:26:31  -871.241529c -5.73  -3.78    +64.3906
iter: 471 18:28:17  -871.243698c -5.56  -4.09c   +64.3827
iter: 472 18:30:02  -871.245956c -5.54  -4.26c   +64.3683
iter: 473 18:31:48  -871.245624c -6.35  -4.21c   +64.3693
iter: 474 18:33:33  -871.246634c -6.16  -4.34c   +64.3429
iter: 475 18:35:18  -871.246390c -6.80  -4.38c   +64.3545
iter: 476 18:37:04  -871.247461c -6.22  -4.41c   +64.3393
iter: 477 18:38:48  -871.245510c -5.97  -4.43c   +64.3555
iter: 478 18:40:33  -871.233115c -4.12  -4.52c   +64.4551
iter: 479 18:42:18  -871.239254c -5.03  -3.66    +64.3942
iter: 480 18:44:03  -871.242571c -5.13  -3.95    +64.3588
iter: 481 18:45:47  -871.240136c -5.90  -4.15c   +64.3803
iter: 482 18:47:32  -871.239011c -6.09  -4.00    +64.3846
iter: 483 18:49:17  -871.240308c -6.27  -3.94    +64.3714
iter: 484 18:51:01  -871.240678c -6.51  -3.98    +64.3667
iter: 485 18:52:46  -871.240890c -6.42  -3.96    +64.3662
iter: 486 18:54:31  -871.242804c -5.66  -3.94    +64.3560
iter: 487 18:56:15  -871.242114c -5.96  -3.70    +64.3600
iter: 488 18:58:00  -871.243533c -5.73  -3.96    +64.3387
iter: 489 18:59:45  -871.242601c -6.16  -3.86    +64.3404
iter: 490 19:01:30  -871.243823c -6.04  -4.05c   +64.3407
iter: 491 19:03:14  -871.245600c -5.87  -4.58c   +64.3355
iter: 492 19:04:59  -871.247943c -5.56  -4.54c   +64.3222
iter: 493 19:06:44  -871.248883c -6.08  -4.29c   +64.3134
iter: 494 19:08:29  -871.247375c -6.25  -4.32c   +64.3385
iter: 495 19:10:13  -871.244514c -5.53  -4.41c   +64.3903
iter: 496 19:11:58  -871.239761c -4.94  -4.52c   +64.5035
iter: 497 19:13:43  -871.231561c -4.35  -4.14c   +64.7334
iter: 498 19:15:28  -871.233585c -5.61  -3.73    +64.6835
iter: 499 19:17:13  -871.241147c -4.55  -3.80    +64.5003
iter: 500 19:18:57  -871.242921c -5.30  -4.22c   +64.4744
iter: 501 19:20:42  -871.235147c -4.68  -4.39c   +64.6198
iter: 502 19:22:27  -871.228197c -4.42  -3.88    +64.7699
iter: 503 19:24:12  -871.242179c -4.15  -3.62    +64.4954
iter: 504 19:25:57  -871.212488c -3.52  -4.33c   +65.0273
iter: 505 19:27:41  -871.270530c -3.08  -3.35    +64.1430
iter: 506 19:29:26  -871.268169c -4.35  -3.59    +64.1599
iter: 507 19:31:11  -871.270932c -4.87  -3.64    +64.1196
iter: 508 19:32:56  -871.268585c -5.40  -3.60    +64.1548
iter: 509 19:34:41  -871.263589c -5.23  -3.63    +64.2321
iter: 510 19:36:26  -871.272801c -4.89  -3.66    +64.0938
iter: 511 19:38:10  -871.269109c -5.16  -3.54    +64.1690
iter: 512 19:39:55  -871.271595c -5.13  -3.48    +64.0903
iter: 513 19:41:40  -871.272661c -5.33  -3.54    +64.0802
iter: 514 19:43:25  -871.271320c -5.46  -3.46    +64.0044
iter: 515 19:45:10  -871.271979c -5.54  -3.69    +63.9470
iter: 516 19:46:54  -871.273644c -5.75  -3.68    +63.9246
iter: 517 19:48:39  -871.274461c -5.64  -3.64    +63.8509
iter: 518 19:50:24  -871.275264c -5.84  -3.68    +63.8067
iter: 519 19:52:09  -871.277089c -5.77  -3.76    +63.7501
iter: 520 19:53:54  -871.277098c -6.18  -3.72    +63.7236
iter: 521 19:55:39  -871.279583c -5.71  -3.80    +63.6409
iter: 522 19:57:23  -871.277958c -6.26  -3.67    +63.7038
iter: 523 19:59:08  -871.278832c -6.06  -3.72    +63.6649
iter: 524 20:00:53  -871.279924c -5.94  -3.68    +63.6095
iter: 525 20:02:38  -871.282031c -5.77  -3.69    +63.5464
iter: 526 20:04:23  -871.281931c -6.09  -3.67    +63.5188
iter: 527 20:06:08  -871.285331c -5.53  -3.72    +63.4439
iter: 528 20:07:53  -871.285174c -6.14  -3.63    +63.4263
iter: 529 20:09:38  -871.288199c -5.47  -3.74    +63.3312
iter: 530 20:11:22  -871.288351c -5.56  -3.66    +63.3267
iter: 531 20:13:07  -871.289048c -5.66  -3.83    +63.2703
iter: 532 20:14:52  -871.290447c -5.84  -3.96    +63.2234
iter: 533 20:16:37  -871.291824c -5.98  -4.07c   +63.1711
iter: 534 20:18:22  -871.301008c -4.69  -4.11c   +62.8483
iter: 535 20:20:07  -871.312534c -4.33  -3.88    +62.4407
iter: 536 20:21:52  -871.316168c -4.78  -3.60    +62.3390
iter: 537 20:23:37  -871.319026c -4.99  -3.52    +62.2893
iter: 538 20:25:22  -871.318509c -5.71  -3.47    +62.3196
iter: 539 20:27:07  -871.318311c -5.79  -3.49    +62.3320
iter: 540 20:28:51  -871.320026c -5.76  -3.52    +62.3308
iter: 541 20:30:36  -871.320995c -5.40  -3.45    +62.3344
iter: 542 20:32:21  -871.316192c -5.02  -3.38    +62.3474
iter: 543 20:34:06  -871.323348c -5.10  -3.59    +62.3330
iter: 544 20:35:50  -871.317665c -5.32  -3.37    +62.3309
iter: 545 20:37:36  -871.317272c -5.50  -3.61    +62.3597
iter: 546 20:39:21  -871.317371c -5.75  -3.66    +62.3744
iter: 547 20:41:06  -871.317731c -6.04  -3.70    +62.3754
iter: 548 20:42:52  -871.318218c -6.20  -3.83    +62.3870
iter: 549 20:44:37  -871.318504c -6.46  -3.89    +62.3992
iter: 550 20:46:22  -871.319169c -6.43  -3.88    +62.4103
iter: 551 20:48:07  -871.320295c -6.05  -3.92    +62.4246
iter: 552 20:49:51  -871.320995c -5.78  -3.86    +62.4424
iter: 553 20:51:36  -871.321422c -5.96  -3.86    +62.4688
iter: 554 20:53:21  -871.323126c -5.98  -4.00c   +62.4941
iter: 555 20:55:06  -871.323063c -6.56  -4.07c   +62.4942
iter: 556 20:56:51  -871.325143c -5.94  -4.13c   +62.5442
iter: 557 20:58:36  -871.320887c -5.55  -4.13c   +62.4611
iter: 558 21:00:20  -871.312793c -4.51  -4.22c   +62.2433
iter: 559 21:02:05  -871.311702c -4.99  -4.06c   +62.1773
iter: 560 21:03:50  -871.311960c -5.14  -3.98    +62.1335
iter: 561 21:05:35  -871.312315c -6.14  -3.91    +62.1484
iter: 562 21:07:20  -871.312245c -6.48  -3.90    +62.1588
iter: 563 21:09:05  -871.312699c -6.58  -3.94    +62.1655
iter: 564 21:10:50  -871.313635c -5.93  -3.86    +62.1635
iter: 565 21:12:35  -871.312079c -5.76  -3.68    +62.1751
iter: 566 21:14:20  -871.312320c -6.29  -3.91    +62.1660
iter: 567 21:16:05  -871.311811c -6.50  -3.94    +62.1645
iter: 568 21:17:49  -871.311876c -6.42  -4.04c   +62.1582
iter: 569 21:19:34  -871.311852c -6.14  -3.93    +62.1595
iter: 570 21:21:19  -871.312154c -6.07  -3.95    +62.1595
iter: 571 21:23:04  -871.311473c -6.39  -3.93    +62.1561
iter: 572 21:24:49  -871.311262c -6.68  -4.35c   +62.1555
iter: 573 21:26:34  -871.311523c -6.68  -4.21c   +62.1541
iter: 574 21:28:19  -871.311469c -7.03  -4.22c   +62.1545
iter: 575 21:30:04  -871.311337c -7.43c -4.39c   +62.1523

Converged after 575 iterations.

Dipole moment: (-10.694406, 7.478817, 8.384495) |e|*Ang

Total magnetic moment: (0.000000, 0.000000, 62.152283)
Local magnetic moments:
   0 Ni ( 0.000000,  0.000000,  0.270268)
   1 Cr ( 0.000000,  0.000000,  1.377428)
   2 Fe ( 0.000000,  0.000000, -0.235909)
   3 Cr ( 0.000000,  0.000000, -1.810767)
   4 Fe ( 0.000000,  0.000000,  2.216542)
   5 Co ( 0.000000,  0.000000,  1.238383)
   6 Co ( 0.000000,  0.000000,  0.844989)
   7 Cr ( 0.000000,  0.000000, -1.768313)
   8 Cr ( 0.000000,  0.000000, -1.122168)
   9 Co ( 0.000000,  0.000000,  1.005244)
  10 Cr ( 0.000000,  0.000000, -1.373650)
  11 Co ( 0.000000,  0.000000,  0.785862)
  12 Fe ( 0.000000,  0.000000,  2.108531)
  13 Cr ( 0.000000,  0.000000, -0.878292)
  14 Ni ( 0.000000,  0.000000,  0.269688)
  15 Co ( 0.000000,  0.000000,  1.191793)
  16 Ni ( 0.000000,  0.000000,  0.181617)
  17 Co ( 0.000000,  0.000000,  0.789400)
  18 Fe ( 0.000000,  0.000000,  2.244592)
  19 Cr ( 0.000000,  0.000000, -1.287556)
  20 Al ( 0.000000,  0.000000, -0.020935)
  21 Ni ( 0.000000,  0.000000,  0.266464)
  22 Ni ( 0.000000,  0.000000,  0.176120)
  23 Fe ( 0.000000,  0.000000,  2.121187)
  24 Cr ( 0.000000,  0.000000, -1.510826)
  25 Cr ( 0.000000,  0.000000,  0.663194)
  26 Co ( 0.000000,  0.000000,  0.582094)
  27 Co ( 0.000000,  0.000000,  0.726186)
  28 Cr ( 0.000000,  0.000000, -0.721910)
  29 Cr ( 0.000000,  0.000000,  0.435257)
  30 Cr ( 0.000000,  0.000000, -0.341444)
  31 Ni ( 0.000000,  0.000000,  0.213222)
  32 Ni ( 0.000000,  0.000000,  0.268674)
  33 Co ( 0.000000,  0.000000,  1.141956)
  34 Co ( 0.000000,  0.000000,  0.659643)
  35 Co ( 0.000000,  0.000000,  0.915579)
  36 Ni ( 0.000000,  0.000000,  0.184416)
  37 Fe ( 0.000000,  0.000000,  2.202251)
  38 Fe ( 0.000000,  0.000000,  2.123818)
  39 Co ( 0.000000,  0.000000,  1.421480)
  40 Ni ( 0.000000,  0.000000,  0.223854)
  41 Fe ( 0.000000,  0.000000,  2.193702)
  42 Co ( 0.000000,  0.000000,  0.711633)
  43 Al ( 0.000000,  0.000000, -0.033452)
  44 Ni ( 0.000000,  0.000000,  0.218720)
  45 Cr ( 0.000000,  0.000000,  0.560394)
  46 Co ( 0.000000,  0.000000,  1.032064)
  47 Fe ( 0.000000,  0.000000,  2.139339)
  48 Cr ( 0.000000,  0.000000, -1.464847)
  49 Co ( 0.000000,  0.000000,  1.157503)
  50 Ni ( 0.000000,  0.000000,  0.322103)
  51 Fe ( 0.000000,  0.000000,  2.227748)
  52 Ni ( 0.000000,  0.000000,  0.364219)
  53 Al ( 0.000000,  0.000000, -0.036115)
  54 Co ( 0.000000,  0.000000,  0.970234)
  55 Ni ( 0.000000,  0.000000,  0.141957)
  56 Ni ( 0.000000,  0.000000,  0.331497)
  57 Ni ( 0.000000,  0.000000,  0.307621)
  58 Ni ( 0.000000,  0.000000,  0.279086)
  59 Fe ( 0.000000,  0.000000,  2.247822)
  60 Fe ( 0.000000,  0.000000,  1.840139)
  61 Co ( 0.000000,  0.000000,  1.333711)
  62 Ni ( 0.000000,  0.000000,  0.347392)
  63 Cr ( 0.000000,  0.000000, -1.255431)
  64 Fe ( 0.000000,  0.000000,  1.571110)
  65 Co ( 0.000000,  0.000000,  1.014374)
  66 Cr ( 0.000000,  0.000000, -1.401936)
  67 Cr ( 0.000000,  0.000000, -0.846386)
  68 Fe ( 0.000000,  0.000000,  1.986351)
  69 Cr ( 0.000000,  0.000000,  0.982318)
  70 Cr ( 0.000000,  0.000000, -1.833807)
  71 Fe ( 0.000000,  0.000000,  1.841392)
  72 Co ( 0.000000,  0.000000,  1.232739)
  73 Ni ( 0.000000,  0.000000,  0.208224)
  74 Ni ( 0.000000,  0.000000,  0.246713)
  75 Cr ( 0.000000,  0.000000, -1.933682)
  76 Fe ( 0.000000,  0.000000,  2.180330)
  77 Ni ( 0.000000,  0.000000,  0.098844)
  78 Co ( 0.000000,  0.000000,  0.693313)
  79 Cr ( 0.000000,  0.000000, -1.437404)
  80 Cr ( 0.000000,  0.000000,  0.707256)
  81 Ni ( 0.000000,  0.000000,  0.044440)
  82 Fe ( 0.000000,  0.000000,  1.905747)
  83 Cr ( 0.000000,  0.000000, -0.920088)
  84 Fe ( 0.000000,  0.000000,  2.092239)
  85 Fe ( 0.000000,  0.000000,  1.991588)
  86 Fe ( 0.000000,  0.000000,  2.005217)
  87 Fe ( 0.000000,  0.000000,  2.386779)
  88 Ni ( 0.000000,  0.000000,  0.227134)
  89 Co ( 0.000000,  0.000000,  1.003710)
  90 Cr ( 0.000000,  0.000000,  1.217553)
  91 Fe ( 0.000000,  0.000000,  2.106568)
  92 Cr ( 0.000000,  0.000000, -0.280317)
  93 Ni ( 0.000000,  0.000000,  0.240227)
  94 Al ( 0.000000,  0.000000, -0.035862)
  95 Fe ( 0.000000,  0.000000,  2.049376)
  96 Fe ( 0.000000,  0.000000,  2.210304)
  97 Fe ( 0.000000,  0.000000,  2.266302)
  98 Co ( 0.000000,  0.000000,  1.126108)
  99 Cr ( 0.000000,  0.000000, -1.949848)
 100 Co ( 0.000000,  0.000000,  1.175719)
 101 Fe ( 0.000000,  0.000000,  2.229983)
 102 Co ( 0.000000,  0.000000,  1.213140)
 103 Ni ( 0.000000,  0.000000,  0.333784)
 104 Co ( 0.000000,  0.000000,  1.232864)
 105 Al ( 0.000000,  0.000000, -0.026981)
 106 Ni ( 0.000000,  0.000000,  0.325645)
 107 Ni ( 0.000000,  0.000000,  0.312002)

Energy contributions relative to reference atoms: (reference = -3699400.456887)

Kinetic:       +140.789320
Potential:     -191.744480
External:        +0.000000
XC:            -855.905979
Entropy (-ST):   -4.530140
Local:          +37.814872
--------------------------
Free energy:   -873.576407
Extrapolated:  -871.311337

Spin contamination: 29.035991 electrons
Showing only first 2 kpts
                      Up                     Down
 Kpt  Band  Eigenvalues  Occupancy  Eigenvalues  Occupancy
  0   508      9.65659    0.99256     10.50803    0.02604
  0   509      9.66616    0.99181     10.51979    0.02322
  0   510      9.67168    0.99135     10.52683    0.02168
  0   511      9.68059    0.99056     10.54731    0.01773

  1   508      9.65056    0.99299     10.50603    0.02656
  1   509      9.65519    0.99266     10.51704    0.02385
  1   510      9.66871    0.99160     10.53171    0.02067
  1   511      9.68828    0.98981     10.53499    0.02001


Fermi level: 10.14587

No gap

Forces in eV/Ang:
  0 Ni    0.02381    0.07693    0.45152
  1 Cr    0.07084   -0.51125   -0.05006
  2 Fe   -0.38655   -0.12556    0.30715
  3 Cr   -0.07522    0.00005    0.34131
  4 Fe    0.39590    0.43397   -0.16052
  5 Co   -0.12112    0.00270    0.09665
  6 Co    0.21608   -0.09877   -0.17217
  7 Cr   -0.92444   -0.64340    0.03853
  8 Cr   -0.15349    0.35253    0.22718
  9 Co    0.01090   -0.26537   -0.05390
 10 Cr    0.22519    0.29516    0.08535
 11 Co    0.32698   -0.55241    0.57011
 12 Fe    0.25739   -0.07906    0.54565
 13 Cr   -0.03353    0.17957   -0.15965
 14 Ni    0.07522   -0.34670    0.16035
 15 Co   -0.01786    0.18831    0.15111
 16 Ni   -0.01944   -0.17195    0.22863
 17 Co    0.18691    0.17003    0.10220
 18 Fe   -0.50944   -0.14612    0.23079
 19 Cr   -0.06449    0.60076    0.05753
 20 Al    0.45977   -0.24775    0.85844
 21 Ni   -0.03963    0.48940   -0.25288
 22 Ni    0.24827   -0.48829    0.20770
 23 Fe   -0.06194    1.30709    0.26177
 24 Cr   -0.01416   -0.10466    0.01974
 25 Cr    0.15930    0.30816   -0.45850
 26 Co   -0.07566   -0.08093   -0.40574
 27 Co   -0.02217   -0.03976    0.29115
 28 Cr   -0.67763   -0.15313   -0.21052
 29 Cr    0.13130    0.32658   -0.17573
 30 Cr    0.20757   -0.13519   -0.04546
 31 Ni    0.38589    0.15454   -0.09727
 32 Ni    0.16495    0.07827    0.40879
 33 Co    0.05315   -0.16488   -0.32735
 34 Co   -0.23716    0.23014   -0.32426
 35 Co   -0.24035   -0.31485    0.44840
 36 Ni    0.00901    0.15566   -0.24673
 37 Fe    0.04124   -0.11770   -0.01463
 38 Fe   -0.01651    0.01380   -0.23901
 39 Co    0.04599    0.04681   -0.25910
 40 Ni    0.05415    0.27351   -0.00933
 41 Fe   -0.14117    0.17644    0.04833
 42 Co   -0.06213   -0.46399   -0.03476
 43 Al   -0.21226   -0.05571   -0.61067
 44 Ni   -0.15295   -0.30898    0.08204
 45 Cr    0.51978   -0.28992    0.58318
 46 Co    0.10416   -0.15693    0.02727
 47 Fe   -0.17665    0.07816   -0.04089
 48 Cr    0.24543   -0.13317   -0.09528
 49 Co    0.11896   -0.10578   -0.00628
 50 Ni   -0.21110   -0.25591   -0.10980
 51 Fe   -0.30486    0.08816   -0.50418
 52 Ni    0.13833   -0.50031   -0.41542
 53 Al   -0.29995   -0.79153   -0.28015
 54 Co    0.28157   -0.35133   -0.03553
 55 Ni    0.06023    0.02629   -0.13638
 56 Ni   -0.30249   -0.08280   -0.05112
 57 Ni   -0.09221    0.05989    0.10245
 58 Ni    0.21324    0.06788    0.08484
 59 Fe   -0.00246   -0.02020   -0.10506
 60 Fe   -0.08005    0.07900   -0.00243
 61 Co   -0.18261    0.23005    0.10463
 62 Ni   -0.16379    0.22795    0.01071
 63 Cr   -0.01370   -0.09278    0.07343
 64 Fe    0.18720    0.05712   -0.31844
 65 Co    0.10078    0.17576    0.03227
 66 Cr    0.94186    0.77865    0.28225
 67 Cr    0.22140    0.63230   -0.11682
 68 Fe   -0.06510   -0.02832   -0.13755
 69 Cr   -0.36273    0.37743   -0.04157
 70 Cr   -0.20156    0.01836    0.08805
 71 Fe   -0.16314    0.13406   -0.11471
 72 Co   -0.12527    0.17806   -0.24525
 73 Ni   -0.05069   -0.29057   -0.02363
 74 Ni    0.10367   -0.01758    0.05824
 75 Cr   -0.22682   -0.24415   -0.04846
 76 Fe    0.61955    0.03697    0.33894
 77 Ni    0.38277   -0.55774   -0.18141
 78 Co   -0.20258    0.20877   -0.02698
 79 Cr   -0.08198   -0.26641    0.40130
 80 Cr   -0.41519    0.58716   -0.53831
 81 Ni   -0.31483   -0.60774   -0.08734
 82 Fe    0.19971    0.52567    0.38653
 83 Cr    0.01001   -0.59602   -0.99334
 84 Fe   -0.16016   -0.23959   -0.41843
 85 Fe    0.02786    0.65170    0.28128
 86 Fe    0.48705   -0.20057    0.05494
 87 Fe   -0.10857    0.03539    0.21300
 88 Ni    0.04591   -0.22923    0.15315
 89 Co   -0.08214    0.37169    0.10694
 90 Cr   -0.73445   -0.17669   -0.20494
 91 Fe    0.40104    0.38146    0.13072
 92 Cr   -0.27757    0.07347   -0.72915
 93 Ni    0.24715    0.57576    0.40797
 94 Al    0.48516    0.04858   -0.09845
 95 Fe   -0.28081    0.24171   -0.21313
 96 Fe   -0.10544    0.18271   -0.18351
 97 Fe    0.21303   -0.09706    0.32180
 98 Co    0.11457   -0.13288    0.28120
 99 Cr    0.03522    0.02749   -0.11470
100 Co    0.16209    0.33359    0.37030
101 Fe    0.35073    0.14174   -0.05179
102 Co   -0.13815   -0.28772    0.14411
103 Ni    0.21419    0.26614   -0.05453
104 Co   -0.15339   -0.24201   -0.52162
105 Al   -0.48837   -1.00140    0.38258
106 Ni   -0.00693   -0.34713    0.29959
107 Ni   -0.14725    0.19868   -0.38360

Timing:                              incl.     excl.
-----------------------------------------------------------
Forces:                             20.757    20.757   0.0% |
Hamiltonian:                         0.893     0.006   0.0% |
 Atomic:                             0.428     0.115   0.0% |
  XC Correction:                     0.313     0.313   0.0% |
 Calculate atomic Hamiltonians:      0.308     0.308   0.0% |
 Communicate:                        0.006     0.006   0.0% |
 Initialize Hamiltonian:             0.000     0.000   0.0% |
 Poisson:                            0.001     0.001   0.0% |
 XC 3D grid:                         0.143     0.143   0.0% |
LCAO initialization:               186.987     0.655   0.0% |
 LCAO eigensolver:                  28.731     0.035   0.0% |
  Calculate projections:             0.262     0.262   0.0% |
  DenseAtomicCorrection:             0.388     0.388   0.0% |
  Distribute overlap matrix:         2.267     2.267   0.0% |
  Orbital Layouts:                  17.269    17.269   0.0% |
  Potential matrix:                  7.291     7.291   0.0% |
  Sum over cells:                    1.218     1.218   0.0% |
 LCAO to grid:                     154.873   154.873   0.2% |
 Set positions (LCAO WFS):           2.728     1.920   0.0% |
  Basic WFS set positions:           0.004     0.004   0.0% |
  Basis functions set positions:     0.001     0.001   0.0% |
  P tci:                             0.300     0.300   0.0% |
  ST tci:                            0.222     0.222   0.0% |
  mktci:                             0.281     0.281   0.0% |
PWDescriptor:                        0.071     0.071   0.0% |
SCF-cycle:                       78558.324  2380.098   3.0% ||
 Davidson:                       75000.703 15491.200  19.7% |-------|
  Apply H:                         934.235   915.048   1.2% |
   HMM T:                           19.187    19.187   0.0% |
  Subspace diag:                  5391.857     0.579   0.0% |
   calc_h_matrix:                 2026.305  1202.285   1.5% ||
    Apply H:                       824.020   802.572   1.0% |
     HMM T:                         21.448    21.448   0.0% |
   diagonalize:                   1206.300  1206.300   1.5% ||
   rotate_psi:                    2158.673  2158.673   2.7% ||
  calc. matrices:                12512.783 11254.484  14.3% |-----|
   Apply H:                       1258.299  1219.768   1.5% ||
    HMM T:                          38.531    38.531   0.0% |
  diagonalize:                   35462.590 35462.590  45.0% |-----------------|
  rotate_psi:                     5208.039  5208.039   6.6% |--|
 Density:                          652.049     0.022   0.0% |
  Atomic density matrices:          17.474    17.474   0.0% |
  Mix:                             236.283   236.283   0.3% |
  Multipole moments:                 0.396     0.396   0.0% |
  Pseudo density:                  397.873   397.841   0.5% |
   Symmetrize density:               0.032     0.032   0.0% |
 Hamiltonian:                      514.446     2.821   0.0% |
  Atomic:                          258.296    89.578   0.1% |
   XC Correction:                  168.717   168.717   0.2% |
  Calculate atomic Hamiltonians:   185.662   185.662   0.2% |
  Communicate:                       3.176     3.176   0.0% |
  Poisson:                           0.548     0.548   0.0% |
  XC 3D grid:                       63.942    63.942   0.1% |
 Orthonormalize:                    11.028     0.002   0.0% |
  calc_s_matrix:                     1.412     1.412   0.0% |
  inverse-cholesky:                  1.048     1.048   0.0% |
  projections:                       6.310     6.310   0.0% |
  rotate_psi_s:                      2.256     2.256   0.0% |
Set symmetry:                        0.002     0.002   0.0% |
Other:                               3.424     3.424   0.0% |
-----------------------------------------------------------
Total:                                     78770.459 100.0%

Date: Sun Apr 16 21:30:26 2023
