
  ___ ___ ___ _ _ _  
 |   |   |_  | | | | 
 | | | | | . | | | | 
 |__ |  _|___|_____|  22.8.0
 |___|_|             

User:   c.zeng@d0028
Date:   Mon Apr 17 21:12:00 2023
Arch:   x86_64
Pid:    220192
CWD:    /home/c.zeng/projects/hea-corrosion/hea-mlp/data-curation/surface-md/dft-jobs/83
Python: 3.8.1
gpaw:   /home/c.zeng/usr/installs/gpaw/source/gpaw-22.8.0/gpaw
_gpaw:  /home/c.zeng/usr/installs/gpaw/source/gpaw-22.8.0/
        _gpaw.cpython-38-x86_64-linux-gnu.so
ase:    /home/c.zeng/.local/lib/python3.8/site-packages/ase-3.22.1-py3.8.egg/ase (version 3.22.1)
numpy:  /home/c.zeng/.local/lib/python3.8/site-packages/numpy (version 1.24.2)
scipy:  /home/c.zeng/.local/lib/python3.8/site-packages/scipy (version 1.10.1)
libxc:  4.2.3
units:  Angstrom and eV
cores: 30
OpenMP: False
OMP_NUM_THREADS: 1

Input parameters:
  convergence: {energy: 0.0001}
  kpts: [2 2 1]
  maxiter: 666
  mode: {ecut: 350.0,
         name: pw}
  occupations: {fixmagmom: False,
                name: fermi-dirac,
                width: 0.1}
  poissonsolver: {dipolelayer: xy}
  spinpol: True
  symmetry: {point_group: False}
  xc: PBE

System changes: positions, numbers, cell, pbc, initial_charges, initial_magmoms 

Initialize ...

species:
  Co:
    name: Cobalt
    id: 339d20d5b0b93d2de9531a1bee871d91
    Z: 27.0
    valence: 9
    core: 18
    charge: 0.0
    file: /home/c.zeng/usr/data/gpaw-setups-0.9.20000/Co.PBE.gz
    compensation charges: {type: gauss,
                           rc: 0.32,
                           lmax: 2}
    cutoffs: {filter: 1.87,
              core: 2.55}
    valence states:
      #              energy  rcut
      - 4s(2.00)    -5.469   1.005
      - 4p(0.00)    -1.277   1.058
      - 3d(7.00)    -8.205   1.005
      -  s          21.742   1.005
      -  p          25.934   1.058
      -  d          19.007   1.005
  
    # Using partial waves for Co as LCAO basis

  Fe:
    name: Iron
    id: 37abbd8d6c3c35915a9b583b742da910
    Z: 26.0
    valence: 8
    core: 18
    charge: 0.0
    file: /home/c.zeng/usr/data/gpaw-setups-0.9.20000/Fe.PBE.gz
    compensation charges: {type: gauss,
                           rc: 0.33,
                           lmax: 2}
    cutoffs: {filter: 2.06,
              core: 2.67}
    valence states:
      #              energy  rcut
      - 4s(2.00)    -5.291   1.164
      - 4p(0.00)    -1.326   1.058
      - 3d(6.00)    -7.505   1.058
      -  s          21.920   1.164
      -  p          25.885   1.058
      -  d          19.706   1.058
  
    # Using partial waves for Fe as LCAO basis

  Al:
    name: Aluminium
    id: 0292cae29f5d6237e50f6abdd43a7bdd
    Z: 13.0
    valence: 3
    core: 10
    charge: 0.0
    file: /home/c.zeng/usr/data/gpaw-setups-0.9.20000/Al.PBE.gz
    compensation charges: {type: gauss,
                           rc: 0.34,
                           lmax: 2}
    cutoffs: {filter: 1.91,
              core: 2.36}
    valence states:
      #              energy  rcut
      - 3s(2.00)    -7.753   1.085
      - 3p(1.00)    -2.712   1.085
      -  s          19.459   1.085
      -  p          24.499   1.085
      -  d           0.000   1.085
  
    # Using partial waves for Al as LCAO basis

  Cr:
    name: Chromium
    id: 33f258bda2ca9f93018e70263a35547b
    Z: 24.0
    valence: 6
    core: 18
    charge: 0.0
    file: /home/c.zeng/usr/data/gpaw-setups-0.9.20000/Cr.PBE.gz
    compensation charges: {type: gauss,
                           rc: 0.35,
                           lmax: 2}
    cutoffs: {filter: 2.14,
              core: 3.04}
    valence states:
      #              energy  rcut
      - 4s(1.00)    -4.007   1.164
      - 4p(0.00)    -0.989   1.217
      - 3d(5.00)    -2.913   1.111
      -  s          23.205   1.164
      -  p          26.223   1.217
      -  d          24.299   1.111
  
    # Using partial waves for Cr as LCAO basis

  Ni:
    name: Nickel
    id: 0d9f38a9d6e76a2886f07bb4381f212b
    Z: 28.0
    valence: 16
    core: 12
    charge: 0.0
    file: /home/c.zeng/usr/data/gpaw-setups-0.9.20000/Ni.PBE.gz
    compensation charges: {type: gauss,
                           rc: 0.36,
                           lmax: 2}
    cutoffs: {filter: 2.14,
              core: 1.98}
    valence states:
      #              energy  rcut
      - 4s(2.00)    -5.642   1.164
      - 3p(6.00)   -71.394   1.207
      - 4p(0.00)    -1.226   1.207
      - 3d(8.00)    -8.875   1.138
      -  s          21.570   1.164
      -  d          18.337   1.138
  
    # Using partial waves for Ni as LCAO basis

Reference energy: -3726899.091688  # eV

Spin-polarized calculation.
Magnetic moment: 140.000000

Convergence criteria:
 Maximum [total energy] change in last 3 cyles: 0.0001 eV / electron
 Maximum integral of absolute [dens]ity change: 0.0001 electrons / valence electron
 Maximum integral of absolute [eigenst]ate change: 4e-08 eV^2 / valence electron
 Maximum number of scf [iter]ations: 666
 (Square brackets indicate name in SCF output, whereas a 'c' in
 the SCF output indicates the quantity has converged.)

Symmetries present (total): 1

  ( 1  0  0)
  ( 0  1  0)
  ( 0  0  1)

4 k-points: 2 x 2 x 1 Monkhorst-Pack grid
2 k-points in the irreducible part of the Brillouin zone
       k-points in crystal coordinates                weights
   0:     0.25000000   -0.25000000    0.00000000          2/4
   1:     0.25000000    0.25000000    0.00000000          2/4

Wave functions: Plane wave expansion
  Cutoff energy: 350.000 eV
  Number of coefficients (min, max): 60935, 60955
  Pulay-stress correction: 0.000000 eV/Ang^3 (de/decut=0.000000)
  Using FFTW library
  ScaLapack parameters: grid=1x1, blocksize=None
  Wavefunction extrapolation:
    Improved wavefunction reuse through dual PAW basis 

Occupation numbers: Fermi-Dirac:
  width: 0.1000  # eV
 

Eigensolver
   Davidson(niter=2) 

Densities:
  Coarse grid: 56*56*128 grid
  Fine grid: 112*112*256 grid
  Total Charge: 0.000000 

Density mixing:
  Method: difference
  Backend: pulay
  Linear mixing parameter: 0.05
  old densities: 5
  Damping of long wavelength oscillations: 50 

Hamiltonian:
  XC and Coulomb potentials evaluated on a 112*112*256 grid
  Using the PBE Exchange-Correlation functional
  External potential:
    NoExternalPotential
 

XC parameters: PBE with 2 nearest neighbor stencil

Memory estimate:
  Process memory now: 367.93 MiB
  Calculator: 2131.41 MiB
    Density: 19.02 MiB
      Arrays: 7.39 MiB
      Localized functions: 8.68 MiB
      Mixer: 2.95 MiB
    Hamiltonian: 5.75 MiB
      Arrays: 5.49 MiB
      XC: 0.00 MiB
      Poisson: 0.00 MiB
      vbar: 0.26 MiB
    Wavefunctions: 2106.64 MiB
      Arrays psit_nG: 1335.62 MiB
      Eigensolver: 751.15 MiB
      Projections: 3.10 MiB
      Projectors: 1.18 MiB
      PW-descriptor: 15.59 MiB

Total number of cores used: 30
Parallelization over k-points: 2
Domain decomposition: 1 x 3 x 5

Number of atoms: 125
Number of atomic orbitals: 1075
Number of bands in calculation: 718
Number of valence electrons: 1050
Bands to converge: occupied

... initialized

Initializing position-dependent things.

Density initialized from atomic densities
Creating initial wave functions:
  718 bands from LCAO basis set

                                                                   
                                                                   
                                                                   
                                                                   
                                                                   
                                 Cr           Cr                   
                          Cr                     Al Al             
                      Fe    Ni     Ni    FCr   Fe                  
                        Ni     Al    Fe   Al                       
                    Al    Fe  CoAl  NiNi     Ni Al    Cr           
         Cr    Fe        Co Al Fe    Al    Ni Ni  Co               
                     CNi   Fe    Cr    Co                          
                 Fe       CrCo  Ni Fe Co  AlCo     Cr              
                      CCr   FeFeAlCr    Al     Fe         Al       
            Co   CNi   CFe   Co     NAl    Al                      
             Cr       Fe Co  NiCo  Ni Cr Ni    Al                  
                  FCr    Cr  NFe   CNi     Cr                      
        Co    Cr    Co    NNi   CNi    CrAl     Al    Ni           
                    Fe   Al Al Co Co Cr     Ni   Fe                
               Ni   FeNi   Co    Co    AAl    Fe                   
                CAl    Fe   CoCr   Co                              
           Fe         Al            Co   Fe                        
                 Co     Fe    Co                                   
                                                                   
                                                                   
                                                                   
                                                                   
                                                                   

Positions:
   0 Co    12.568358    1.223488   10.667110    ( 0.0000,  0.0000,  2.1000)
   1 Fe     2.439640    1.275380   10.714961    ( 0.0000,  0.0000,  2.0000)
   2 Co     4.919096    1.382390   10.387458    ( 0.0000,  0.0000,  2.1000)
   3 Fe     7.446988    1.431949   10.300637    ( 0.0000,  0.0000,  2.0000)
   4 Co    10.051744    1.497920   10.399763    ( 0.0000,  0.0000,  2.1000)
   5 Fe    13.825080    3.745150   10.225471    ( 0.0000,  0.0000,  2.0000)
   6 Co     3.720392    3.523305   10.629012    ( 0.0000,  0.0000,  2.1000)
   7 Al     6.129746    3.721613   10.142962    ( 0.0000,  0.0000,  0.0000)
   8 Co     8.848245    3.521330   10.737216    ( 0.0000,  0.0000,  2.1000)
   9 Co    11.373265    3.521418   10.644572    ( 0.0000,  0.0000,  2.1000)
  10 Fe    15.216276    5.901621   10.589206    ( 0.0000,  0.0000,  2.0000)
  11 Fe     4.912145    5.832280   10.395167    ( 0.0000,  0.0000,  2.0000)
  12 Co     7.790241    5.787700   10.481779    ( 0.0000,  0.0000,  2.1000)
  13 Co    10.089111    5.652559   10.429172    ( 0.0000,  0.0000,  2.1000)
  14 Al    12.707991    5.943099   10.254477    ( 0.0000,  0.0000,  0.0000)
  15 Fe    16.292917    7.990507   10.278562    ( 0.0000,  0.0000,  2.0000)
  16 Al     6.278744    7.815422   10.135390    ( 0.0000,  0.0000,  0.0000)
  17 Co     8.828693    7.825288   10.690160    ( 0.0000,  0.0000,  2.1000)
  18 Cr    11.227771    7.845505   10.203186    ( 0.0000,  0.0000,  0.0000)
  19 Ni    13.938631    7.910475   10.523512    ( 0.0000,  0.0000,  1.5000)
  20 Ni    17.550893   10.306185   10.307489    ( 0.0000,  0.0000,  1.5000)
  21 Ni     7.494259   10.053935   10.563359    ( 0.0000,  0.0000,  1.5000)
  22 Cr     9.978425    9.941550   10.602657    ( 0.0000,  0.0000,  0.0000)
  23 Al    12.525827    9.979925   10.056299    ( 0.0000,  0.0000,  0.0000)
  24 Al    15.234573   10.300499    9.849672    ( 0.0000,  0.0000,  0.0000)
  25 Al    18.988252   10.880777   12.592865    ( 0.0000,  0.0000,  0.0000)
  26 Al     8.728474   10.690836   12.658214    ( 0.0000,  0.0000,  0.0000)
  27 Al     5.182881   -0.095039   12.441996    ( 0.0000,  0.0000,  0.0000)
  28 Fe     7.729483   -0.205409   12.138331    ( 0.0000,  0.0000,  2.0000)
  29 Cr    10.236061    0.181313   12.492162    ( 0.0000,  0.0000,  0.0000)
  30 Al    13.833951    2.372656   12.475205    ( 0.0000,  0.0000,  0.0000)
  31 Ni     3.880287    1.976164   12.650588    ( 0.0000,  0.0000,  1.5000)
  32 Ni     6.446704    2.283963   12.306114    ( 0.0000,  0.0000,  1.5000)
  33 Al     9.046037    2.206493   12.850129    ( 0.0000,  0.0000,  0.0000)
  34 Co    11.279392    2.249177   12.603439    ( 0.0000,  0.0000,  2.1000)
  35 Al     2.701303    4.504808   12.691922    ( 0.0000,  0.0000,  0.0000)
  36 Fe     5.202544    4.362275   12.293502    ( 0.0000,  0.0000,  2.0000)
  37 Ni     7.695451    4.473057   12.537647    ( 0.0000,  0.0000,  1.5000)
  38 Co    10.239830    4.386314   12.667316    ( 0.0000,  0.0000,  2.1000)
  39 Cr    12.708063    4.535819   12.584834    ( 0.0000,  0.0000,  0.0000)
  40 Fe     4.037979    6.542055   12.517409    ( 0.0000,  0.0000,  2.0000)
  41 Cr     6.552254    6.591379   12.369288    ( 0.0000,  0.0000,  0.0000)
  42 Fe     8.892092    6.450357   12.680977    ( 0.0000,  0.0000,  2.0000)
  43 Ni    11.375012    6.491010   12.344106    ( 0.0000,  0.0000,  1.5000)
  44 Cr    14.021492    6.615026   12.522631    ( 0.0000,  0.0000,  0.0000)
  45 Fe     5.147541    8.745991   12.204552    ( 0.0000,  0.0000,  2.0000)
  46 Ni     7.719722    8.546964   12.582233    ( 0.0000,  0.0000,  1.5000)
  47 Ni    10.094963    8.635967   12.632005    ( 0.0000,  0.0000,  1.5000)
  48 Ni    12.599083    8.670317   12.528466    ( 0.0000,  0.0000,  1.5000)
  49 Al    15.277771    8.768428   12.489431    ( 0.0000,  0.0000,  0.0000)
  50 Co     1.387013    0.649162   14.704166    ( 0.0000,  0.0000,  2.1000)
  51 Cr     3.810350    0.814361   14.602534    ( 0.0000,  0.0000,  0.0000)
  52 Co     6.189347    0.929622   14.596831    ( 0.0000,  0.0000,  2.1000)
  53 Ni     9.024665    0.469745   14.730375    ( 0.0000,  0.0000,  1.5000)
  54 Ni    11.366257    0.747084   14.691145    ( 0.0000,  0.0000,  1.5000)
  55 Cr     2.602218    3.025178   14.773905    ( 0.0000,  0.0000,  0.0000)
  56 Cr     5.166336    3.159698   14.387431    ( 0.0000,  0.0000,  0.0000)
  57 Co     7.610533    2.912825   14.752464    ( 0.0000,  0.0000,  2.1000)
  58 Co    10.125073    2.943694   14.946112    ( 0.0000,  0.0000,  2.1000)
  59 Cr    12.793313    3.003298   14.837559    ( 0.0000,  0.0000,  0.0000)
  60 Cr     3.970940    5.316776   14.738126    ( 0.0000,  0.0000,  0.0000)
  61 Co     6.408392    5.099487   14.474535    ( 0.0000,  0.0000,  2.1000)
  62 Co     8.825855    4.911418   14.781404    ( 0.0000,  0.0000,  2.1000)
  63 Ni    11.414111    5.019470   14.602495    ( 0.0000,  0.0000,  1.5000)
  64 Al    14.381345    5.361126   15.067235    ( 0.0000,  0.0000,  0.0000)
  65 Cr     5.284946    7.255728   14.522934    ( 0.0000,  0.0000,  0.0000)
  66 Fe     7.725001    7.210176   14.685227    ( 0.0000,  0.0000,  2.0000)
  67 Cr    10.230842    7.314947   14.576504    ( 0.0000,  0.0000,  0.0000)
  68 Al    12.533258    7.222387   14.499083    ( 0.0000,  0.0000,  0.0000)
  69 Fe    15.253245    7.598484   14.753465    ( 0.0000,  0.0000,  2.0000)
  70 Cr     6.466299    9.456038   14.683074    ( 0.0000,  0.0000,  0.0000)
  71 Ni     8.883628    9.536519   14.725387    ( 0.0000,  0.0000,  1.5000)
  72 Co    11.218728    9.526936   14.731919    ( 0.0000,  0.0000,  2.1000)
  73 Co    13.719314    9.712547   14.661167    ( 0.0000,  0.0000,  2.1000)
  74 Cr    16.668698    9.406307   14.494406    ( 0.0000,  0.0000,  0.0000)
  75 Al    12.774498    1.499674   16.830558    ( 0.0000,  0.0000,  0.0000)
  76 Co     2.843365    1.511285   16.829639    ( 0.0000,  0.0000,  2.1000)
  77 Ni     5.117760    1.630589   16.571944    ( 0.0000,  0.0000,  1.5000)
  78 Fe     7.652405    1.427647   16.691405    ( 0.0000,  0.0000,  2.0000)
  79 Fe    10.073563    1.598116   17.058556    ( 0.0000,  0.0000,  2.0000)
  80 Al    14.163734    3.787540   17.240031    ( 0.0000,  0.0000,  0.0000)
  81 Cr     4.085111    4.016151   17.076473    ( 0.0000,  0.0000,  0.0000)
  82 Cr     6.376264    3.834446   16.575716    ( 0.0000,  0.0000,  0.0000)
  83 Co     8.768821    3.683569   17.114846    ( 0.0000,  0.0000,  2.1000)
  84 Fe    11.637773    3.640448   17.122506    ( 0.0000,  0.0000,  2.0000)
  85 Ni    15.376215    6.158419   17.330316    ( 0.0000,  0.0000,  1.5000)
  86 Cr     5.143144    6.147737   16.861653    ( 0.0000,  0.0000,  0.0000)
  87 Fe     7.700144    5.787773   16.774553    ( 0.0000,  0.0000,  2.0000)
  88 Ni    10.302786    5.654301   16.604235    ( 0.0000,  0.0000,  1.5000)
  89 Co    12.772545    5.837213   16.883121    ( 0.0000,  0.0000,  2.1000)
  90 Co    16.550764    7.974936   16.460136    ( 0.0000,  0.0000,  2.1000)
  91 Co     6.367474    8.192772   16.551173    ( 0.0000,  0.0000,  2.1000)
  92 Fe     8.837786    8.028300   16.712970    ( 0.0000,  0.0000,  2.0000)
  93 Al    11.369842    7.854852   16.881508    ( 0.0000,  0.0000,  0.0000)
  94 Ni    13.700308    7.986309   16.728576    ( 0.0000,  0.0000,  1.5000)
  95 Cr    17.723319   10.296884   16.555115    ( 0.0000,  0.0000,  0.0000)
  96 Co     7.736718   10.244282   16.787680    ( 0.0000,  0.0000,  2.1000)
  97 Ni    10.227752   10.491178   16.608901    ( 0.0000,  0.0000,  1.5000)
  98 Al    12.656993   10.546019   16.775564    ( 0.0000,  0.0000,  0.0000)
  99 Al    15.142131   10.087139   16.600696    ( 0.0000,  0.0000,  0.0000)
 100 Cr     6.233476   10.876284   18.657862    ( 0.0000,  0.0000,  0.0000)
 101 Cr     8.949332   11.092799   19.063618    ( 0.0000,  0.0000,  0.0000)
 102 Fe     5.113784    0.238223   18.726641    ( 0.0000,  0.0000,  2.0000)
 103 Cr    13.998948   11.143757   19.421007    ( 0.0000,  0.0000,  0.0000)
 104 Al    16.557912   10.810324   18.947600    ( 0.0000,  0.0000,  0.0000)
 105 Cr     1.080325    2.217853   19.051385    ( 0.0000,  0.0000,  0.0000)
 106 Fe     3.779735    2.310599   18.994998    ( 0.0000,  0.0000,  2.0000)
 107 Ni     6.392042    2.265449   18.705018    ( 0.0000,  0.0000,  1.5000)
 108 Al     8.850897    2.550822   19.524796    ( 0.0000,  0.0000,  0.0000)
 109 Cr    11.110970    2.062908   19.068563    ( 0.0000,  0.0000,  0.0000)
 110 Ni    15.164273    4.773109   19.353291    ( 0.0000,  0.0000,  1.5000)
 111 Al     5.196426    4.552685   19.362227    ( 0.0000,  0.0000,  0.0000)
 112 Fe     7.714880    4.745687   18.929519    ( 0.0000,  0.0000,  2.0000)
 113 Al    10.201889    4.530248   18.848425    ( 0.0000,  0.0000,  0.0000)
 114 Ni    12.645679    4.400105   19.150298    ( 0.0000,  0.0000,  1.5000)
 115 Al    16.291901    7.156032   20.285093    ( 0.0000,  0.0000,  0.0000)
 116 Ni     6.420371    6.791888   18.740200    ( 0.0000,  0.0000,  1.5000)
 117 Al     9.092417    6.806202   18.968995    ( 0.0000,  0.0000,  0.0000)
 118 Fe    11.593332    6.712800   18.859621    ( 0.0000,  0.0000,  2.0000)
 119 Cr    13.752864    6.663403   19.325284    ( 0.0000,  0.0000,  0.0000)
 120 Fe     5.034896    8.689441   18.469231    ( 0.0000,  0.0000,  2.0000)
 121 Ni     7.494793    8.833227   18.757493    ( 0.0000,  0.0000,  1.5000)
 122 Ni    10.216666    9.158106   18.517174    ( 0.0000,  0.0000,  1.5000)
 123 Fe    12.627454    8.991763   18.874869    ( 0.0000,  0.0000,  2.0000)
 124 Fe    15.141806    8.627630   18.508130    ( 0.0000,  0.0000,  2.0000)

Unit cell:
           periodic     x           y           z      points  spacing
  1. axis:    yes   12.688900    0.000000    0.000000    56     0.1962
  2. axis:    yes    6.352870   11.003500    0.000000    56     0.1965
  3. axis:    no     0.000000    0.000000   29.353100   128     0.2293

  Lengths:  12.688900  12.705746  29.353100
  Angles:   90.000000  90.000000  60.000014

Effective grid spacing dv^(1/3) = 0.2169

     iter     time        total  log10-change:  magmom
                         energy  eigst   dens
iter:   1 21:19:55 -1094.175621                  +140.3334
iter:   2 21:22:39  -972.463418  -0.06  -1.10    +74.4031
iter:   3 21:25:24 -1426.760083  -0.12  -1.10    +70.2832
iter:   4 21:28:08 -1139.330740  +0.01  -0.86    +60.7323
iter:   5 21:30:52  -955.899494  -1.00  -0.97    +46.9840
iter:   6 21:33:40  -921.829496  -1.56  -1.18    +43.2013
iter:   7 21:36:27  -910.410728  -1.71  -1.24    +43.5908
iter:   8 21:39:13  -905.842934  -1.50  -1.29    +47.2315
iter:   9 21:42:01  -890.528614  -1.15  -1.33    +47.1391
iter:  10 21:44:49  -912.948676  -1.49  -1.40    +48.7690
iter:  11 21:47:37  -985.494949  -1.20  -1.32    +52.1571
iter:  12 21:50:25  -888.140154  -1.53  -1.16    +49.3588
iter:  13 21:53:13  -898.248196  -1.64  -1.53    +49.8339
iter:  14 21:56:01  -888.329341  -1.90  -1.47    +52.6349
iter:  15 21:58:49  -883.194066  -2.21  -1.56    +56.1554
iter:  16 22:01:37  -885.808548  -2.03  -1.69    +58.9303
iter:  17 22:04:25  -879.898824  -2.28  -1.66    +59.0668
iter:  18 22:07:14  -883.953862  -2.27  -1.85    +60.4257
iter:  19 22:10:01  -881.396303  -2.41  -1.76    +62.1650
iter:  20 22:12:48  -885.583581  -2.25  -1.95    +64.1278
iter:  21 22:15:35  -885.874690  -2.35  -1.84    +64.0706
iter:  22 22:18:22  -882.900133  -2.70  -1.80    +64.6690
iter:  23 22:21:10  -883.037177  -2.86  -2.03    +66.6465
iter:  24 22:23:57  -884.683402  -2.93  -2.08    +67.7583
iter:  25 22:26:45  -884.055577  -3.37  -1.95    +67.9430
iter:  26 22:29:32  -884.973325  -2.89  -2.04    +69.0097
iter:  27 22:32:20  -886.408358  -2.47  -2.02    +68.9852
iter:  28 22:35:07  -884.879848  -2.66  -1.97    +69.0541
iter:  29 22:37:54  -884.393538  -2.90  -2.13    +68.9085
iter:  30 22:40:41  -887.085135  -2.66  -2.30    +68.7606
iter:  31 22:43:29  -884.278760  -3.00  -1.95    +68.8273
iter:  32 22:46:17  -884.282936  -3.45  -2.41    +68.9715
iter:  33 22:49:04  -884.586201  -3.55  -2.47    +69.0016
iter:  34 22:51:50  -884.319467  -3.78  -2.34    +68.8706
iter:  35 22:54:46  -884.400502  -3.97  -2.52    +68.7576
iter:  36 22:58:33  -884.454159  -3.87  -2.51    +68.6410
iter:  37 23:01:21  -884.621340  -3.81  -2.54    +68.5625
iter:  38 23:04:09  -884.505550  -3.70  -2.43    +68.3740
iter:  39 23:06:56  -884.698047  -3.62  -2.70    +68.0878
iter:  40 23:09:44  -884.591833  -3.76  -2.52    +67.9018
iter:  41 23:12:32  -884.606353  -3.95  -2.75    +67.7776
iter:  42 23:15:20  -884.686016c -4.05  -2.90    +67.6268
iter:  43 23:18:07  -884.765228  -4.05  -2.87    +67.3795
iter:  44 23:20:54  -884.775023c -4.40  -2.82    +67.2770
iter:  45 23:24:44  -884.864286c -4.10  -2.89    +67.0082
iter:  46 23:27:38  -885.016518  -3.14  -2.83    +66.3590
iter:  47 23:30:27  -885.005947  -4.29  -2.75    +66.8246
iter:  48 23:33:14  -885.035586c -4.22  -2.81    +66.9753
iter:  49 23:36:02  -885.340816  -3.98  -2.75    +67.0285
iter:  50 23:38:49  -885.063013  -4.07  -2.42    +67.2794
iter:  51 23:41:37  -885.132240  -3.74  -2.75    +67.4618
iter:  52 23:44:25  -885.059918c -4.08  -2.60    +67.3893
iter:  53 23:47:48  -885.120192c -3.78  -2.73    +67.3858
iter:  54 23:51:09  -885.068468c -4.08  -2.64    +67.3318
iter:  55 23:53:57  -886.054158  -3.30  -2.76    +67.3059
iter:  56 23:56:44  -885.077940  -3.64  -2.19    +67.4258
iter:  57 23:59:32  -885.084824  -3.96  -2.81    +67.4124
iter:  58 00:02:19  -885.097340c -4.10  -2.86    +67.4989
iter:  59 00:05:07  -885.095785c -4.27  -2.84    +67.5794
iter:  60 00:07:54  -885.107531c -4.37  -2.97    +67.7672
iter:  61 00:10:41  -885.152448c -4.32  -2.98    +67.7892
iter:  62 00:13:29  -885.123730c -4.81  -2.80    +67.7759
iter:  63 00:16:17  -885.143650c -4.50  -3.05    +67.8201
iter:  64 00:19:05  -885.160763c -4.72  -3.07    +67.8457
iter:  65 00:21:51  -885.173122c -4.44  -3.04    +67.8501
iter:  66 00:24:39  -885.178958c -4.57  -3.09    +67.9285
iter:  67 00:27:27  -885.242139c -4.32  -3.18    +67.9542
iter:  68 00:30:55  -885.197310c -4.59  -2.82    +67.9508
iter:  69 00:34:15  -885.210877c -4.65  -3.22    +67.9895
iter:  70 00:37:04  -885.218740c -4.78  -3.35    +68.0352
iter:  71 00:39:53  -885.227612c -4.87  -3.28    +68.0952
iter:  72 00:42:42  -885.241355c -4.82  -3.40    +68.0999
iter:  73 00:45:31  -885.293584c -3.99  -3.35    +68.1764
iter:  74 00:48:19  -885.282818c -4.79  -3.07    +68.1798
iter:  75 00:51:08  -885.288651c -4.58  -3.05    +68.2592
iter:  76 00:53:56  -885.305160c -4.55  -3.32    +68.3459
iter:  77 00:56:45  -885.367690c -3.66  -3.26    +68.6206
iter:  78 00:59:33  -885.356139c -4.90  -2.97    +68.5924
iter:  79 01:02:21  -885.388620c -4.40  -3.00    +68.7212
iter:  80 01:05:09  -885.383471c -4.74  -2.89    +68.7746
iter:  81 01:07:57  -885.373636c -4.67  -2.91    +68.8400
iter:  82 01:10:45  -885.400758c -4.15  -2.99    +68.8661
iter:  83 01:13:34  -885.373925c -4.53  -2.89    +68.8550
iter:  84 01:16:22  -885.398151c -4.11  -2.99    +68.8410
iter:  85 01:19:10  -885.374588c -4.86  -2.86    +68.7460
iter:  86 01:22:27  -885.445258c -4.26  -2.99    +68.6277
iter:  87 01:25:57  -885.368866c -4.65  -2.70    +68.6011
iter:  88 01:28:45  -885.371885c -4.64  -3.14    +68.5496
iter:  89 01:31:34  -885.378398c -4.63  -3.11    +68.5200
iter:  90 01:34:22  -885.378496c -4.46  -3.13    +68.5054
iter:  91 01:37:09  -885.373903c -4.57  -3.15    +68.5644
iter:  92 01:39:57  -885.418943c -4.61  -3.16    +68.5601
iter:  93 01:42:45  -885.371924c -4.77  -2.84    +68.4921
iter:  94 01:45:33  -885.374290c -5.06  -3.30    +68.5280
iter:  95 01:48:21  -885.370503c -5.39  -3.29    +68.5597
iter:  96 01:51:10  -885.372839c -5.52  -3.42    +68.5897
iter:  97 01:53:58  -885.377366c -5.15  -3.46    +68.6000
iter:  98 01:56:46  -885.388726c -5.12  -3.37    +68.6083
iter:  99 01:59:33  -885.377756c -5.07  -3.06    +68.7024
iter: 100 02:02:21  -885.378024c -5.24  -3.38    +68.7004
iter: 101 02:05:08  -885.379795c -5.26  -3.36    +68.6990
iter: 102 02:07:56  -885.377980c -5.61  -3.49    +68.7182
iter: 103 02:10:45  -885.378855c -5.90  -3.59    +68.7578
iter: 104 02:13:33  -885.381110c -5.43  -3.62    +68.8218
iter: 105 02:16:20  -885.387325c -5.09  -3.63    +68.9246
iter: 106 02:19:08  -885.382388c -5.94  -3.30    +68.8855
iter: 107 02:23:04  -885.383874c -6.09  -3.56    +68.9210
iter: 108 02:25:55  -885.385586c -5.91  -3.53    +68.9542
iter: 109 02:28:43  -885.386667c -5.69  -3.48    +68.9507
iter: 110 02:31:32  -885.389551c -5.19  -3.47    +68.9874
iter: 111 02:34:20  -885.387551c -5.68  -3.40    +69.0282
iter: 112 02:37:07  -885.388645c -5.89  -3.47    +69.0664
iter: 113 02:39:56  -885.390865c -5.48  -3.49    +69.0943
iter: 114 02:42:44  -885.392583c -5.66  -3.40    +69.0905
iter: 115 02:45:33  -885.396112c -5.23  -3.48    +69.1696
iter: 116 02:48:22  -885.407727c -5.00  -3.32    +69.1925
iter: 117 02:51:10  -885.391550c -4.86  -3.11    +69.2246
iter: 118 02:53:58  -885.391372c -5.50  -3.41    +69.2308
iter: 119 02:56:46  -885.391934c -5.70  -3.51    +69.2417
iter: 120 02:59:35  -885.398606c -5.40  -3.51    +69.2609
iter: 121 03:02:22  -885.397733c -5.07  -3.24    +69.2731
iter: 122 03:05:10  -885.395501c -5.15  -3.29    +69.3032
iter: 123 03:07:59  -885.391688c -5.42  -3.44    +69.2726
iter: 124 03:11:07  -885.392141c -5.99  -3.64    +69.2850
iter: 125 03:14:45  -885.392461c -6.11  -3.83    +69.3134
iter: 126 03:17:33  -885.392078c -6.46  -3.74    +69.3255
iter: 127 03:20:21  -885.392223c -6.54  -3.91    +69.3428
iter: 128 03:23:09  -885.392651c -6.10  -3.88    +69.3705
iter: 129 03:25:57  -885.394081c -5.87  -3.87    +69.3903
iter: 130 03:28:45  -885.392939c -6.47  -3.63    +69.3799
iter: 131 03:31:34  -885.393102c -6.44  -3.93    +69.3978
iter: 132 03:34:22  -885.394160c -6.03  -3.90    +69.4030
iter: 133 03:37:10  -885.393924c -5.96  -3.82    +69.4049
iter: 134 03:39:58  -885.393126c -6.26  -3.77    +69.4115
iter: 135 03:42:47  -885.394269c -6.34  -4.21c   +69.4195
iter: 136 03:45:35  -885.393463c -6.69  -3.82    +69.4203
iter: 137 03:48:23  -885.393570c -6.90  -4.25c   +69.4234
iter: 138 03:51:11  -885.393568c -7.23  -4.42c   +69.4258
iter: 139 03:53:58  -885.393864c -6.85  -4.40c   +69.4314
iter: 140 03:56:46  -885.393790c -7.52c -4.32c   +69.4306

Converged after 140 iterations.

Dipole moment: (77.519847, 35.065246, 0.181708) |e|*Ang

Total magnetic moment: (0.000000, 0.000000, 69.430605)
Local magnetic moments:
   0 Co ( 0.000000,  0.000000,  1.298537)
   1 Fe ( 0.000000,  0.000000,  2.492421)
   2 Co ( 0.000000,  0.000000,  1.374923)
   3 Fe ( 0.000000,  0.000000,  2.664797)
   4 Co ( 0.000000,  0.000000,  1.512570)
   5 Fe ( 0.000000,  0.000000,  2.794261)
   6 Co ( 0.000000,  0.000000,  1.370547)
   7 Al ( 0.000000,  0.000000, -0.065862)
   8 Co ( 0.000000,  0.000000,  1.520732)
   9 Co ( 0.000000,  0.000000,  1.528673)
  10 Fe ( 0.000000,  0.000000,  1.917084)
  11 Fe ( 0.000000,  0.000000,  2.199611)
  12 Co ( 0.000000,  0.000000,  1.331462)
  13 Co ( 0.000000,  0.000000,  1.567006)
  14 Al ( 0.000000,  0.000000, -0.037318)
  15 Fe ( 0.000000,  0.000000,  2.459161)
  16 Al ( 0.000000,  0.000000, -0.046213)
  17 Co ( 0.000000,  0.000000,  0.979096)
  18 Cr ( 0.000000,  0.000000, -2.620971)
  19 Ni ( 0.000000,  0.000000,  0.085610)
  20 Ni ( 0.000000,  0.000000,  0.375583)
  21 Ni ( 0.000000,  0.000000,  0.208518)
  22 Cr ( 0.000000,  0.000000, -2.495817)
  23 Al ( 0.000000,  0.000000,  0.005084)
  24 Al ( 0.000000,  0.000000, -0.051430)
  25 Al ( 0.000000,  0.000000, -0.022980)
  26 Al ( 0.000000,  0.000000, -0.009210)
  27 Al ( 0.000000,  0.000000, -0.007875)
  28 Fe ( 0.000000,  0.000000,  2.249486)
  29 Cr ( 0.000000,  0.000000,  1.170866)
  30 Al ( 0.000000,  0.000000, -0.041416)
  31 Ni ( 0.000000,  0.000000,  0.139817)
  32 Ni ( 0.000000,  0.000000,  0.418844)
  33 Al ( 0.000000,  0.000000, -0.042672)
  34 Co ( 0.000000,  0.000000,  0.944787)
  35 Al ( 0.000000,  0.000000, -0.016718)
  36 Fe ( 0.000000,  0.000000,  2.053276)
  37 Ni ( 0.000000,  0.000000,  0.469840)
  38 Co ( 0.000000,  0.000000,  1.337726)
  39 Cr ( 0.000000,  0.000000,  1.323559)
  40 Fe ( 0.000000,  0.000000,  1.970588)
  41 Cr ( 0.000000,  0.000000, -1.853636)
  42 Fe ( 0.000000,  0.000000,  2.110672)
  43 Ni ( 0.000000,  0.000000,  0.132475)
  44 Cr ( 0.000000,  0.000000, -1.832235)
  45 Fe ( 0.000000,  0.000000,  2.032207)
  46 Ni ( 0.000000,  0.000000,  0.088144)
  47 Ni ( 0.000000,  0.000000, -0.115373)
  48 Ni ( 0.000000,  0.000000,  0.068814)
  49 Al ( 0.000000,  0.000000, -0.043346)
  50 Co ( 0.000000,  0.000000, -0.326276)
  51 Cr ( 0.000000,  0.000000, -0.981779)
  52 Co ( 0.000000,  0.000000,  1.147293)
  53 Ni ( 0.000000,  0.000000,  0.368052)
  54 Ni ( 0.000000,  0.000000,  0.050030)
  55 Cr ( 0.000000,  0.000000, -1.623088)
  56 Cr ( 0.000000,  0.000000,  0.689814)
  57 Co ( 0.000000,  0.000000,  1.242983)
  58 Co ( 0.000000,  0.000000,  1.492322)
  59 Cr ( 0.000000,  0.000000,  1.915196)
  60 Cr ( 0.000000,  0.000000, -0.201129)
  61 Co ( 0.000000,  0.000000,  0.700671)
  62 Co ( 0.000000,  0.000000,  1.588013)
  63 Ni ( 0.000000,  0.000000,  0.273632)
  64 Al ( 0.000000,  0.000000, -0.005249)
  65 Cr ( 0.000000,  0.000000, -0.388394)
  66 Fe ( 0.000000,  0.000000,  1.912149)
  67 Cr ( 0.000000,  0.000000, -1.950864)
  68 Al ( 0.000000,  0.000000, -0.012929)
  69 Fe ( 0.000000,  0.000000,  1.741239)
  70 Cr ( 0.000000,  0.000000, -0.064044)
  71 Ni ( 0.000000,  0.000000,  0.250910)
  72 Co ( 0.000000,  0.000000,  0.693031)
  73 Co ( 0.000000,  0.000000,  1.435135)
  74 Cr ( 0.000000,  0.000000,  0.832806)
  75 Al ( 0.000000,  0.000000, -0.010692)
  76 Co ( 0.000000,  0.000000,  1.112071)
  77 Ni ( 0.000000,  0.000000,  0.320384)
  78 Fe ( 0.000000,  0.000000,  2.311620)
  79 Fe ( 0.000000,  0.000000,  2.200516)
  80 Al ( 0.000000,  0.000000, -0.015656)
  81 Cr ( 0.000000,  0.000000,  1.466370)
  82 Cr ( 0.000000,  0.000000, -1.618107)
  83 Co ( 0.000000,  0.000000,  1.329890)
  84 Fe ( 0.000000,  0.000000,  2.094079)
  85 Ni ( 0.000000,  0.000000,  0.234908)
  86 Cr ( 0.000000,  0.000000, -0.925942)
  87 Fe ( 0.000000,  0.000000,  2.147386)
  88 Ni ( 0.000000,  0.000000,  0.305114)
  89 Co ( 0.000000,  0.000000,  1.228429)
  90 Co ( 0.000000,  0.000000,  0.925414)
  91 Co ( 0.000000,  0.000000,  0.642574)
  92 Fe ( 0.000000,  0.000000,  2.400867)
  93 Al ( 0.000000,  0.000000, -0.037367)
  94 Ni ( 0.000000,  0.000000,  0.396933)
  95 Cr ( 0.000000,  0.000000, -1.482766)
  96 Co ( 0.000000,  0.000000,  1.140225)
  97 Ni ( 0.000000,  0.000000,  0.368867)
  98 Al ( 0.000000,  0.000000, -0.041754)
  99 Al ( 0.000000,  0.000000, -0.022183)
 100 Cr ( 0.000000,  0.000000,  1.893790)
 101 Cr ( 0.000000,  0.000000,  2.758740)
 102 Fe ( 0.000000,  0.000000,  2.421075)
 103 Cr ( 0.000000,  0.000000, -3.361142)
 104 Al ( 0.000000,  0.000000, -0.015909)
 105 Cr ( 0.000000,  0.000000, -2.889607)
 106 Fe ( 0.000000,  0.000000,  2.640825)
 107 Ni ( 0.000000,  0.000000,  0.305388)
 108 Al ( 0.000000,  0.000000, -0.002991)
 109 Cr ( 0.000000,  0.000000, -2.356802)
 110 Ni ( 0.000000,  0.000000,  0.093753)
 111 Al ( 0.000000,  0.000000, -0.023368)
 112 Fe ( 0.000000,  0.000000,  2.241282)
 113 Al ( 0.000000,  0.000000, -0.020945)
 114 Ni ( 0.000000,  0.000000,  0.247406)
 115 Al ( 0.000000,  0.000000, -0.004220)
 116 Ni ( 0.000000,  0.000000,  0.289628)
 117 Al ( 0.000000,  0.000000, -0.050341)
 118 Fe ( 0.000000,  0.000000,  2.044339)
 119 Cr ( 0.000000,  0.000000, -2.541578)
 120 Fe ( 0.000000,  0.000000,  2.219239)
 121 Ni ( 0.000000,  0.000000,  0.290076)
 122 Ni ( 0.000000,  0.000000,  0.355058)
 123 Fe ( 0.000000,  0.000000,  2.604520)
 124 Fe ( 0.000000,  0.000000,  2.146293)

Energy contributions relative to reference atoms: (reference = -3726899.091688)

Kinetic:       +391.491471
Potential:     -365.237853
External:        +0.000000
XC:            -944.360462
Entropy (-ST):   -4.804143
Local:          +35.115126
--------------------------
Free energy:   -887.795861
Extrapolated:  -885.393790

Dipole-layer corrected work functions: 4.747227, 4.511733 eV

Spin contamination: 37.478428 electrons
Showing all kpts
                      Up                     Down
 Kpt  Band  Eigenvalues  Occupancy  Eigenvalues  Occupancy
  0   523      0.02012    0.99686      0.95514    0.02684
  0   524      0.03103    0.99650      0.95987    0.02563
  0   525      0.05227    0.99567      0.97616    0.02186
  0   526      0.05851    0.99539      0.98349    0.02035

  1   523      0.00039    0.99742      0.94725    0.02898
  1   524      0.01675    0.99696      0.95753    0.02622
  1   525      0.02326    0.99676      0.96755    0.02378
  1   526      0.04025    0.99616      0.98785    0.01950


Fermi level: 0.59607

No gap

Forces in eV/Ang:
  0 Co    0.07846    0.97284   -0.40832
  1 Fe    0.17538   -0.00006   -0.98602
  2 Co    0.08629   -0.24125    0.61125
  3 Fe    0.23619   -0.27453    0.19286
  4 Co    0.03444   -0.35313    0.80373
  5 Fe    0.77347   -1.07899    1.01907
  6 Co   -0.52828    0.02926   -0.44051
  7 Al    1.24502   -0.68686   -0.46180
  8 Co   -0.26816    0.16308   -0.68041
  9 Co    0.27462    0.59158   -0.17661
 10 Fe    0.08819   -0.66281    0.00319
 11 Fe   -0.11080   -0.16776    0.00123
 12 Co   -1.11880   -0.86590   -0.26105
 13 Co    0.29929   -0.20617    0.64627
 14 Al   -0.23533   -1.40274   -0.32893
 15 Fe    1.15218   -0.02279    0.01985
 16 Al    0.58086    1.18203   -0.55947
 17 Co    0.28912    0.05101   -0.64047
 18 Cr   -0.64188   -0.09254    0.77384
 19 Ni   -0.32816    1.61690   -0.39442
 20 Ni    0.61869   -0.67126    0.22141
 21 Ni   -0.37552    0.02082    0.30922
 22 Cr   -0.39576    1.33646   -1.36717
 23 Al    0.53271    0.94799    0.04622
 24 Al   -0.16512   -0.06282    0.32117
 25 Al   -0.47932    0.31145    0.38421
 26 Al    1.20665    0.97946    0.32220
 27 Al    0.35874    0.11199    0.71430
 28 Fe   -0.40189    1.46451    0.74659
 29 Cr   -0.54757   -1.96891   -0.70693
 30 Al    0.38890   -1.03253    0.56610
 31 Ni   -0.37189    0.81043   -0.96569
 32 Ni    0.12388   -0.62091    0.60598
 33 Al   -2.60140    0.43695   -0.16796
 34 Co    1.88775   -0.27310    0.34822
 35 Al    0.07883   -1.04544   -0.52424
 36 Fe   -0.21133    0.57784    1.24273
 37 Ni   -0.22754   -1.23918    0.45601
 38 Co   -0.45776   -0.01457   -0.30407
 39 Cr    0.43876    0.66761    0.10893
 40 Fe   -0.58948    1.09863    0.36814
 41 Cr   -1.09243   -0.80329    0.56992
 42 Fe    0.93749   -0.13750   -0.18852
 43 Ni    0.27950    0.44755    0.35751
 44 Cr   -0.32700   -0.78828    0.05107
 45 Fe    0.06141   -0.46429    0.51254
 46 Ni   -1.02162    1.14902    0.58493
 47 Ni    0.78148    0.56219   -0.36910
 48 Ni    0.08941    0.42825   -0.30869
 49 Al    0.19045    0.19769   -0.06281
 50 Co   -0.73618    0.90312   -0.05410
 51 Cr   -0.29149   -0.27421    1.39231
 52 Co    1.20999   -0.50978   -1.00947
 53 Ni   -0.85476    1.44085   -0.53073
 54 Ni    1.06350    0.71926   -0.35684
 55 Cr   -0.01762   -0.60292    0.72236
 56 Cr   -0.66969   -0.48655    0.65819
 57 Co   -0.17351   -0.50479   -0.16812
 58 Co    0.48793   -0.26886    0.41410
 59 Cr    0.20851    0.19394   -0.49648
 60 Cr    1.95419   -0.05340    0.36261
 61 Co    0.05589    0.68610    0.37072
 62 Co    0.60359    0.71899   -0.37994
 63 Ni    0.45702    0.22997    0.46507
 64 Al   -2.45852   -0.30632    0.09128
 65 Cr   -0.19085    0.58230    0.02839
 66 Fe   -0.17605    0.21560   -0.10171
 67 Cr   -2.87190   -0.43352    0.59970
 68 Al    1.98883    0.54047    0.52272
 69 Fe   -1.09709   -0.60099   -1.37655
 70 Cr   -0.27700    0.18187   -0.20429
 71 Ni    0.02353   -0.77109    0.12095
 72 Co    1.84371   -0.33308   -0.65371
 73 Co   -0.25669   -0.57315   -1.01174
 74 Cr    0.68252    0.59361   -0.43311
 75 Al    0.38306   -0.79163   -0.98563
 76 Co   -2.03555    1.09882    0.43694
 77 Ni    0.13913    0.77410    0.53601
 78 Fe    0.56531    1.43124    0.20703
 79 Fe    0.21496   -0.68297   -0.79016
 80 Al    0.61939    0.69431   -0.73473
 81 Cr    0.06101   -0.71213   -0.90085
 82 Cr   -0.68840   -0.32739    0.60299
 83 Co    0.40748   -0.74340   -0.91907
 84 Fe   -0.55847    0.10723   -1.39121
 85 Ni   -0.34979   -0.42055   -0.13926
 86 Cr    0.21664   -1.05421    0.31594
 87 Fe   -0.39217    1.12479   -0.25979
 88 Ni   -0.73413    0.52065    0.62738
 89 Co   -0.35940   -0.85211    0.39270
 90 Co    0.68395    1.06638    1.06534
 91 Co    0.46046   -0.51785    0.36286
 92 Fe    0.16573    0.47494   -0.27273
 93 Al   -0.57302    1.20056   -1.34180
 94 Ni    0.86862    0.58488   -0.33461
 95 Cr    0.34560   -0.59453    0.29309
 96 Co   -0.02477    0.58649   -0.05091
 97 Ni   -0.33025   -0.93881    0.32138
 98 Al   -0.83272   -1.78437   -0.58162
 99 Al    0.53248    0.03424    0.24451
100 Cr    0.98090    0.20688    0.39406
101 Cr   -1.05585   -0.16377   -0.48635
102 Fe   -0.12587    0.30155    0.37247
103 Cr   -0.62034   -0.50983   -0.98812
104 Al   -1.44633   -0.91783    0.56242
105 Cr    1.07118   -0.71612    1.24157
106 Fe    0.08579    0.49958   -0.83984
107 Ni    0.17824    1.07997    0.07602
108 Al   -2.28591   -0.63479   -0.09931
109 Cr    2.09013    0.43477   -0.44736
110 Ni    0.82862   -0.78264   -0.30867
111 Al   -0.16816    0.31773   -0.39713
112 Fe   -0.80238   -0.75188   -0.01921
113 Al    0.78802    0.68820    0.98188
114 Ni    0.07281    0.12990   -0.10445
115 Al    0.23945   -0.60237   -1.48707
116 Ni    0.09538   -1.01918    0.57029
117 Al   -0.66118    1.11619   -0.12415
118 Fe   -0.24343   -0.33531    0.68958
119 Cr    0.39894    0.43318   -0.70908
120 Fe   -0.81353   -0.22541    0.67266
121 Ni    0.81133    0.47286   -0.17591
122 Ni   -0.35451   -1.43213    1.09117
123 Fe    0.32310   -0.03455   -0.01162
124 Fe    0.53546   -0.09326    1.31080

Timing:                              incl.     excl.
-----------------------------------------------------------
Forces:                             47.386    47.386   0.2% |
Hamiltonian:                         2.256     0.014   0.0% |
 Atomic:                             0.446     0.003   0.0% |
  XC Correction:                     0.443     0.443   0.0% |
 Calculate atomic Hamiltonians:      1.129     1.129   0.0% |
 Communicate:                        0.068     0.068   0.0% |
 Initialize Hamiltonian:             0.001     0.001   0.0% |
 Poisson:                            0.141     0.141   0.0% |
 XC 3D grid:                         0.457     0.457   0.0% |
LCAO initialization:               289.895     0.641   0.0% |
 LCAO eigensolver:                  17.266     0.031   0.0% |
  Calculate projections:             0.000     0.000   0.0% |
  DenseAtomicCorrection:             0.000     0.000   0.0% |
  Distribute overlap matrix:         8.767     8.767   0.0% |
  Orbital Layouts:                   8.411     8.411   0.0% |
  Potential matrix:                  0.004     0.004   0.0% |
  Sum over cells:                    0.053     0.053   0.0% |
 LCAO to grid:                     269.686   269.686   1.1% |
 Set positions (LCAO WFS):           2.302     1.939   0.0% |
  Basic WFS set positions:           0.004     0.004   0.0% |
  Basis functions set positions:     0.001     0.001   0.0% |
  P tci:                             0.001     0.001   0.0% |
  ST tci:                            0.140     0.140   0.0% |
  mktci:                             0.218     0.218   0.0% |
PWDescriptor:                        0.158     0.158   0.0% |
SCF-cycle:                       23988.762     1.895   0.0% |
 Davidson:                       23034.685  7013.005  28.8% |-----------|
  Apply H:                         471.374   460.665   1.9% ||
   HMM T:                           10.709    10.709   0.0% |
  Subspace diag:                  2184.476     0.140   0.0% |
   calc_h_matrix:                  987.565   540.178   2.2% ||
    Apply H:                       447.387   433.643   1.8% ||
     HMM T:                         13.744    13.744   0.1% |
   diagonalize:                    184.739   184.739   0.8% |
   rotate_psi:                    1012.032  1012.032   4.2% |-|
  calc. matrices:                 5045.559  4215.570  17.3% |------|
   Apply H:                        829.989   800.011   3.3% ||
    HMM T:                          29.977    29.977   0.1% |
  diagonalize:                    6149.635  6149.635  25.3% |---------|
  rotate_psi:                     2170.637  2170.637   8.9% |---|
 Density:                          564.110     0.009   0.0% |
  Atomic density matrices:           4.075     4.075   0.0% |
  Mix:                             301.877   301.877   1.2% |
  Multipole moments:                 0.133     0.133   0.0% |
  Pseudo density:                  258.016   258.004   1.1% |
   Symmetrize density:               0.012     0.012   0.0% |
 Hamiltonian:                      370.106     3.214   0.0% |
  Atomic:                           60.953     0.300   0.0% |
   XC Correction:                   60.653    60.653   0.2% |
  Calculate atomic Hamiltonians:   216.609   216.609   0.9% |
  Communicate:                      10.865    10.865   0.0% |
  Poisson:                           8.811     8.811   0.0% |
  XC 3D grid:                       69.654    69.654   0.3% |
 Orthonormalize:                    17.966     0.002   0.0% |
  calc_s_matrix:                     2.209     2.209   0.0% |
  inverse-cholesky:                  0.725     0.725   0.0% |
  projections:                      11.360    11.360   0.0% |
  rotate_psi_s:                      3.670     3.670   0.0% |
Set symmetry:                        0.001     0.001   0.0% |
Other:                               9.418     9.418   0.0% |
-----------------------------------------------------------
Total:                                     24337.876 100.0%

Date: Tue Apr 18 03:57:38 2023
