
  ___ ___ ___ _ _ _  
 |   |   |_  | | | | 
 | | | | | . | | | | 
 |__ |  _|___|_____|  22.8.0
 |___|_|             

User:   c.zeng@d0136
Date:   Sat Apr  8 00:28:20 2023
Arch:   x86_64
Pid:    54580
CWD:    /home/c.zeng/projects/hea-corrosion/hea-mlp/data-curation/volume/dft-jobs/110
Python: 3.8.1
gpaw:   /home/c.zeng/usr/installs/gpaw/source/gpaw-22.8.0/gpaw
_gpaw:  /home/c.zeng/usr/installs/gpaw/source/gpaw-22.8.0/
        _gpaw.cpython-38-x86_64-linux-gnu.so
ase:    /home/c.zeng/.local/lib/python3.8/site-packages/ase-3.22.1-py3.8.egg/ase (version 3.22.1)
numpy:  /shared/centos7/python/3.8.1/lib/python3.8/site-packages/numpy (version 1.17.4)
scipy:  /shared/centos7/python/3.8.1/lib/python3.8/site-packages/scipy (version 1.4.1)
libxc:  4.2.3
units:  Angstrom and eV
cores: 64
OpenMP: False
OMP_NUM_THREADS: 1

Input parameters:
  convergence: {energy: 0.0001}
  kpts: [2 2 2]
  maxiter: 666
  mode: {ecut: 350.0,
         name: pw}
  occupations: {fixmagmom: False,
                name: fermi-dirac,
                width: 0.1}
  spinpol: True
  xc: PBE

System changes: positions, numbers, cell, pbc, initial_charges, initial_magmoms 

Initialize ...

species:
  Fe:
    name: Iron
    id: 37abbd8d6c3c35915a9b583b742da910
    Z: 26.0
    valence: 8
    core: 18
    charge: 0.0
    file: /home/c.zeng/usr/data/gpaw-setups-0.9.20000/Fe.PBE.gz
    compensation charges: {type: gauss,
                           rc: 0.33,
                           lmax: 2}
    cutoffs: {filter: 2.06,
              core: 2.67}
    valence states:
      #              energy  rcut
      - 4s(2.00)    -5.291   1.164
      - 4p(0.00)    -1.326   1.058
      - 3d(6.00)    -7.505   1.058
      -  s          21.920   1.164
      -  p          25.885   1.058
      -  d          19.706   1.058
  
    # Using partial waves for Fe as LCAO basis

  Cr:
    name: Chromium
    id: 33f258bda2ca9f93018e70263a35547b
    Z: 24.0
    valence: 6
    core: 18
    charge: 0.0
    file: /home/c.zeng/usr/data/gpaw-setups-0.9.20000/Cr.PBE.gz
    compensation charges: {type: gauss,
                           rc: 0.35,
                           lmax: 2}
    cutoffs: {filter: 2.14,
              core: 3.04}
    valence states:
      #              energy  rcut
      - 4s(1.00)    -4.007   1.164
      - 4p(0.00)    -0.989   1.217
      - 3d(5.00)    -2.913   1.111
      -  s          23.205   1.164
      -  p          26.223   1.217
      -  d          24.299   1.111
  
    # Using partial waves for Cr as LCAO basis

  Ni:
    name: Nickel
    id: 0d9f38a9d6e76a2886f07bb4381f212b
    Z: 28.0
    valence: 16
    core: 12
    charge: 0.0
    file: /home/c.zeng/usr/data/gpaw-setups-0.9.20000/Ni.PBE.gz
    compensation charges: {type: gauss,
                           rc: 0.36,
                           lmax: 2}
    cutoffs: {filter: 2.14,
              core: 1.98}
    valence states:
      #              energy  rcut
      - 4s(2.00)    -5.642   1.164
      - 3p(6.00)   -71.394   1.207
      - 4p(0.00)    -1.226   1.207
      - 3d(8.00)    -8.875   1.138
      -  s          21.570   1.164
      -  d          18.337   1.138
  
    # Using partial waves for Ni as LCAO basis

  Al:
    name: Aluminium
    id: 0292cae29f5d6237e50f6abdd43a7bdd
    Z: 13.0
    valence: 3
    core: 10
    charge: 0.0
    file: /home/c.zeng/usr/data/gpaw-setups-0.9.20000/Al.PBE.gz
    compensation charges: {type: gauss,
                           rc: 0.34,
                           lmax: 2}
    cutoffs: {filter: 1.91,
              core: 2.36}
    valence states:
      #              energy  rcut
      - 3s(2.00)    -7.753   1.085
      - 3p(1.00)    -2.712   1.085
      -  s          19.459   1.085
      -  p          24.499   1.085
      -  d           0.000   1.085
  
    # Using partial waves for Al as LCAO basis

  Co:
    name: Cobalt
    id: 339d20d5b0b93d2de9531a1bee871d91
    Z: 27.0
    valence: 9
    core: 18
    charge: 0.0
    file: /home/c.zeng/usr/data/gpaw-setups-0.9.20000/Co.PBE.gz
    compensation charges: {type: gauss,
                           rc: 0.32,
                           lmax: 2}
    cutoffs: {filter: 1.87,
              core: 2.55}
    valence states:
      #              energy  rcut
      - 4s(2.00)    -5.469   1.005
      - 4p(0.00)    -1.277   1.058
      - 3d(7.00)    -8.205   1.005
      -  s          21.742   1.005
      -  p          25.934   1.058
      -  d          19.007   1.005
  
    # Using partial waves for Co as LCAO basis

Reference energy: -3382523.201499  # eV

Spin-polarized calculation.
Magnetic moment: 128.800000

Convergence criteria:
 Maximum [total energy] change in last 3 cyles: 0.0001 eV / electron
 Maximum integral of absolute [dens]ity change: 0.0001 electrons / valence electron
 Maximum integral of absolute [eigenst]ate change: 4e-08 eV^2 / valence electron
 Maximum number of scf [iter]ations: 666
 (Square brackets indicate name in SCF output, whereas a 'c' in
 the SCF output indicates the quantity has converged.)

Symmetries present (total): 1

  ( 1  0  0)
  ( 0  1  0)
  ( 0  0  1)

8 k-points: 2 x 2 x 2 Monkhorst-Pack grid
4 k-points in the irreducible part of the Brillouin zone
       k-points in crystal coordinates                weights
   0:     0.25000000   -0.25000000   -0.25000000          2/8
   1:     0.25000000   -0.25000000    0.25000000          2/8
   2:     0.25000000    0.25000000   -0.25000000          2/8
   3:     0.25000000    0.25000000    0.25000000          2/8

Wave functions: Plane wave expansion
  Cutoff energy: 350.000 eV
  Number of coefficients (min, max): 18865, 18865
  Pulay-stress correction: 0.000000 eV/Ang^3 (de/decut=0.000000)
  Using FFTW library
  ScaLapack parameters: grid=1x1, blocksize=None
  Wavefunction extrapolation:
    Improved wavefunction reuse through dual PAW basis 

Occupation numbers: Fermi-Dirac:
  width: 0.1000  # eV
 

Eigensolver
   Davidson(niter=2) 

Densities:
  Coarse grid: 48*48*48 grid
  Fine grid: 96*96*96 grid
  Total Charge: 0.000000 

Density mixing:
  Method: difference
  Backend: pulay
  Linear mixing parameter: 0.05
  old densities: 5
  Damping of long wavelength oscillations: 50 

Hamiltonian:
  XC and Coulomb potentials evaluated on a 96*96*96 grid
  Using the PBE Exchange-Correlation functional
  External potential:
    NoExternalPotential
 

XC parameters: PBE with 2 nearest neighbor stencil

Memory estimate:
  Process memory now: 170.65 MiB
  Calculator: 639.69 MiB
    Density: 5.10 MiB
      Arrays: 1.85 MiB
      Localized functions: 2.51 MiB
      Mixer: 0.74 MiB
    Hamiltonian: 1.45 MiB
      Arrays: 1.37 MiB
      XC: 0.00 MiB
      Poisson: 0.00 MiB
      vbar: 0.08 MiB
    Wavefunctions: 633.14 MiB
      Arrays psit_nG: 373.64 MiB
      Eigensolver: 252.55 MiB
      Projections: 2.31 MiB
      Projectors: 0.34 MiB
      PW-descriptor: 4.30 MiB

Total number of cores used: 64
Parallelization over k-points: 4
Domain decomposition: 4 x 2 x 2

Number of atoms: 108
Number of atomic orbitals: 961
Number of bands in calculation: 649
Number of valence electrons: 945
Bands to converge: occupied

... initialized

Initializing position-dependent things.

Density initialized from atomic densities
Creating initial wave functions:
  649 bands from LCAO basis set

        .--------------------------.  
       /|                     Ni   |  
      / |            Cr Ni     NiNi|  
     /  |       Al       Ni       Fe  
    /   |Cr       Fer     CAlo     |  
   /i   | Coi        Co      Fe    |  
  /  FeCr   CFe       Cr           |  
 *      Co     CrNi   FeAlFeFe   Ni|  
 |      |CrFe   CrCoAl   FeCrCo   Co  
 | NiCo | AlNi   FeAlAl     Cr     |  
 |     Co  NiFe Fe  Ni NiNi  CrCr  |  
 |      CoFe   AlFe   NiAlCoFe  Fe |  
 |Co    |AlAl   CrFeCo   CrCo     Cr  
 |      .-CrAl-----FeNi-CoAlCoNi---.  
 |     /   Al Cr    Fe FeNi    Cr /   
 |    Cr       CNio       Co     /    
 |   /  Fe         Cr       Ni  /     
 |  /      Fe       Co       Cr/      
 | / Ni     Co       Cr Ni    /       
 |/             Al       Co  /        
 *--------Al----------------*         

Positions:
   0 Fe    10.764125   10.861293   10.805319    ( 0.0000,  0.0000,  2.0000)
   1 Cr    10.786210    1.792524    1.813624    ( 0.0000,  0.0000,  0.0000)
   2 Ni     1.744135    0.036563    1.851258    ( 0.0000,  0.0000,  1.5000)
   3 Cr     1.736571    1.831142   10.798816    ( 0.0000,  0.0000,  0.0000)
   4 Al     3.575136    0.057333    0.061789    ( 0.0000,  0.0000,  0.0000)
   5 Fe     3.594278    1.817617    1.845609    ( 0.0000,  0.0000,  2.0000)
   6 Ni     5.429835   10.817005    1.865065    ( 0.0000,  0.0000,  1.5000)
   7 Al     5.429608    1.929436    0.057166    ( 0.0000,  0.0000,  0.0000)
   8 Al     7.316919   10.723364    0.087384    ( 0.0000,  0.0000,  0.0000)
   9 Co     7.263163    1.825797    1.869425    ( 0.0000,  0.0000,  2.1000)
  10 Ni     9.063554    0.025243    1.863474    ( 0.0000,  0.0000,  1.5000)
  11 Co     9.049206    1.829725    0.033093    ( 0.0000,  0.0000,  2.1000)
  12 Ni     0.004795    3.558981   10.794790    ( 0.0000,  0.0000,  1.5000)
  13 Cr    10.759700    5.390687    1.778154    ( 0.0000,  0.0000,  0.0000)
  14 Fe     1.733574    3.561849    1.761123    ( 0.0000,  0.0000,  2.0000)
  15 Cr     1.776888    5.391812   10.795505    ( 0.0000,  0.0000,  0.0000)
  16 Co     3.565452    3.619349   10.832619    ( 0.0000,  0.0000,  2.1000)
  17 Cr     3.633221    5.394625    1.719551    ( 0.0000,  0.0000,  0.0000)
  18 Co     5.471635    3.659114    1.836055    ( 0.0000,  0.0000,  2.1000)
  19 Fe     5.440223    5.373038   -0.002758    ( 0.0000,  0.0000,  2.0000)
  20 Cr     7.258997    3.609080    0.031301    ( 0.0000,  0.0000,  0.0000)
  21 Fe     7.268963    5.378351    1.785285    ( 0.0000,  0.0000,  2.0000)
  22 Co     9.030735    3.577647    1.833739    ( 0.0000,  0.0000,  2.1000)
  23 Al     9.040430    5.372259   10.801088    ( 0.0000,  0.0000,  0.0000)
  24 Ni    10.791663    7.196206   10.792464    ( 0.0000,  0.0000,  1.5000)
  25 Cr    10.758401    9.040387    1.848228    ( 0.0000,  0.0000,  0.0000)
  26 Cr     1.690465    7.202493    1.786010    ( 0.0000,  0.0000,  0.0000)
  27 Al     1.652658    8.981069    0.027218    ( 0.0000,  0.0000,  0.0000)
  28 Cr     3.631252    7.164437    0.034640    ( 0.0000,  0.0000,  0.0000)
  29 Cr     3.625452    9.063738    1.801646    ( 0.0000,  0.0000,  0.0000)
  30 Fe     5.490884    7.187095    1.746342    ( 0.0000,  0.0000,  2.0000)
  31 Fe     5.426957    8.989163    0.009875    ( 0.0000,  0.0000,  2.0000)
  32 Ni     7.229144    7.237064   -0.008713    ( 0.0000,  0.0000,  1.5000)
  33 Cr     7.249226    8.995850    1.810702    ( 0.0000,  0.0000,  0.0000)
  34 Co     9.052084    7.204289    1.764196    ( 0.0000,  0.0000,  2.1000)
  35 Ni     9.092553    8.989650   10.808749    ( 0.0000,  0.0000,  1.5000)
  36 Ni    -0.000983   10.826235    3.639800    ( 0.0000,  0.0000,  1.5000)
  37 Co    10.822772    1.771759    5.422055    ( 0.0000,  0.0000,  2.1000)
  38 Co     1.754263   10.802051    5.428861    ( 0.0000,  0.0000,  2.1000)
  39 Cr     1.741873    1.774248    3.610801    ( 0.0000,  0.0000,  0.0000)
  40 Fe     3.591172   10.794087    3.612110    ( 0.0000,  0.0000,  2.0000)
  41 Al     3.593077    1.736712    5.455133    ( 0.0000,  0.0000,  0.0000)
  42 Fe     5.437139   10.794531    5.400771    ( 0.0000,  0.0000,  2.0000)
  43 Ni     5.451920    1.783240    3.601387    ( 0.0000,  0.0000,  1.5000)
  44 Cr     7.226233    0.007770    3.626209    ( 0.0000,  0.0000,  0.0000)
  45 Co     7.236058    1.766512    5.381381    ( 0.0000,  0.0000,  2.1000)
  46 Co     9.034587   10.848850    5.403855    ( 0.0000,  0.0000,  2.1000)
  47 Ni     9.031568    1.804957    3.616752    ( 0.0000,  0.0000,  1.5000)
  48 Ni    10.773896    3.543984    3.617888    ( 0.0000,  0.0000,  1.5000)
  49 Cr    10.772197    5.358420    5.454939    ( 0.0000,  0.0000,  0.0000)
  50 Co     1.757541    3.575688    5.428937    ( 0.0000,  0.0000,  2.1000)
  51 Al     1.621755    5.387008    3.572550    ( 0.0000,  0.0000,  0.0000)
  52 Al     3.634292    3.633210    3.540792    ( 0.0000,  0.0000,  0.0000)
  53 Fe     3.550606    5.398012    5.404753    ( 0.0000,  0.0000,  2.0000)
  54 Fe     5.402189    3.610898    5.370171    ( 0.0000,  0.0000,  2.0000)
  55 Fe     5.460241    5.433611    3.575613    ( 0.0000,  0.0000,  2.0000)
  56 Ni     7.250168    3.615194    3.623190    ( 0.0000,  0.0000,  1.5000)
  57 Ni     7.248707    5.410726    5.362099    ( 0.0000,  0.0000,  1.5000)
  58 Co     9.058230    3.565247    5.380093    ( 0.0000,  0.0000,  2.1000)
  59 Co     9.074082    5.365323    3.589041    ( 0.0000,  0.0000,  2.1000)
  60 Fe    10.732064    7.267729    3.615172    ( 0.0000,  0.0000,  2.0000)
  61 Co    10.775779    9.094782    5.426643    ( 0.0000,  0.0000,  2.1000)
  62 Al     1.686775    7.280216    5.496879    ( 0.0000,  0.0000,  0.0000)
  63 Ni     1.734256    9.054843    3.595576    ( 0.0000,  0.0000,  1.5000)
  64 Al     3.592936    7.268162    3.470178    ( 0.0000,  0.0000,  0.0000)
  65 Cr     3.586595    9.093548    5.438968    ( 0.0000,  0.0000,  0.0000)
  66 Al     5.382993    7.229295    5.440602    ( 0.0000,  0.0000,  0.0000)
  67 Ni     5.438210    9.045051    3.590036    ( 0.0000,  0.0000,  1.5000)
  68 Al     7.326095    7.204776    3.545683    ( 0.0000,  0.0000,  0.0000)
  69 Fe     7.279632    9.072189    5.413117    ( 0.0000,  0.0000,  2.0000)
  70 Cr     9.092152    7.237465    5.437020    ( 0.0000,  0.0000,  0.0000)
  71 Cr     9.065675    9.066713    3.636164    ( 0.0000,  0.0000,  0.0000)
  72 Fe    10.809734   10.839544    7.207870    ( 0.0000,  0.0000,  2.0000)
  73 Co    10.806044    1.798562    8.996910    ( 0.0000,  0.0000,  2.1000)
  74 Co     1.743377    0.025240    8.997235    ( 0.0000,  0.0000,  2.1000)
  75 Co     1.767485    1.793054    7.239315    ( 0.0000,  0.0000,  2.1000)
  76 Fe     3.586833    0.005577    7.224967    ( 0.0000,  0.0000,  2.0000)
  77 Fe     3.553441    1.854818    8.998555    ( 0.0000,  0.0000,  2.0000)
  78 Cr     5.409449   10.815999    8.971439    ( 0.0000,  0.0000,  0.0000)
  79 Fe     5.421060    1.784268    7.188339    ( 0.0000,  0.0000,  2.0000)
  80 Co     7.245915   10.799746    7.160228    ( 0.0000,  0.0000,  2.1000)
  81 Al     7.320966    1.765094    8.948792    ( 0.0000,  0.0000,  0.0000)
  82 Ni     9.091114   10.807126    8.993599    ( 0.0000,  0.0000,  1.5000)
  83 Ni     9.075727    1.781649    7.163095    ( 0.0000,  0.0000,  1.5000)
  84 Ni    10.826451    3.561578    7.207611    ( 0.0000,  0.0000,  1.5000)
  85 Fe     0.036843    5.383134    8.996196    ( 0.0000,  0.0000,  2.0000)
  86 Co     1.771316    3.603562    9.016896    ( 0.0000,  0.0000,  2.1000)
  87 Cr     1.802079    5.346625    7.250752    ( 0.0000,  0.0000,  0.0000)
  88 Ni     3.593261    3.620085    7.230691    ( 0.0000,  0.0000,  1.5000)
  89 Fe     3.560226    5.391974    9.052279    ( 0.0000,  0.0000,  2.0000)
  90 Ni     5.376869    3.650242    8.987215    ( 0.0000,  0.0000,  1.5000)
  91 Co     5.354308    5.395577    7.215694    ( 0.0000,  0.0000,  2.1000)
  92 Al     7.220942    3.645372    7.098789    ( 0.0000,  0.0000,  0.0000)
  93 Cr     7.211063    5.388263    9.040171    ( 0.0000,  0.0000,  0.0000)
  94 Fe     9.095041    3.598108    8.980604    ( 0.0000,  0.0000,  2.0000)
  95 Cr     9.078205    5.402416    7.227759    ( 0.0000,  0.0000,  0.0000)
  96 Ni    10.763422    7.244693    7.260296    ( 0.0000,  0.0000,  1.5000)
  97 Fe    10.795083    9.034576    8.977574    ( 0.0000,  0.0000,  2.0000)
  98 Co     1.740055    7.178947    8.984672    ( 0.0000,  0.0000,  2.1000)
  99 Ni     1.734440    9.080207    7.236718    ( 0.0000,  0.0000,  1.5000)
 100 Cr     3.580493    7.154298    7.248307    ( 0.0000,  0.0000,  0.0000)
 101 Al     3.612846    8.970909    8.958119    ( 0.0000,  0.0000,  0.0000)
 102 Cr     5.410943    7.155867    9.067070    ( 0.0000,  0.0000,  0.0000)
 103 Co     5.466419    9.064062    7.220963    ( 0.0000,  0.0000,  2.1000)
 104 Al     7.307181    7.271549    7.289749    ( 0.0000,  0.0000,  0.0000)
 105 Ni     7.271073    9.044694    9.027879    ( 0.0000,  0.0000,  1.5000)
 106 Co     9.081732    7.219805    9.041155    ( 0.0000,  0.0000,  2.1000)
 107 Fe     9.063673    9.083020    7.213887    ( 0.0000,  0.0000,  2.0000)

Unit cell:
           periodic     x           y           z      points  spacing
  1. axis:    yes   10.820500    0.000000    0.000000    48     0.2254
  2. axis:    yes    0.000000   10.820500    0.000000    48     0.2254
  3. axis:    yes    0.000000    0.000000   10.820500    48     0.2254

  Lengths:  10.820500  10.820500  10.820500
  Angles:   90.000000  90.000000  90.000000

Effective grid spacing dv^(1/3) = 0.2254

     iter     time        total  log10-change:  magmom
                         energy  eigst   dens
iter:   1 00:30:52  -996.853048                  +129.0863
iter:   2 00:32:04  -888.900817  -0.19  -1.18    +70.8549
iter:   3 00:33:16  -876.062816  -0.82  -1.19    +61.2234
iter:   4 00:34:31  -851.788972  -1.23  -1.26    +57.0190
iter:   5 00:35:44  -843.645040  -1.55  -1.30    +54.8555
iter:   6 00:36:58  -844.609383  -1.33  -1.35    +55.5245
iter:   7 00:38:12  -834.908166  -1.30  -1.39    +54.2148
iter:   8 00:39:26  -828.008076  -1.64  -1.53    +54.1039
iter:   9 00:40:41  -827.449818  -1.86  -1.66    +55.6111
iter:  10 00:41:55  -824.997931  -2.41  -1.72    +56.4658
iter:  11 00:43:08  -825.451627  -2.49  -1.80    +59.0763
iter:  12 00:44:20  -827.060333  -2.41  -1.86    +60.4108
iter:  13 00:45:33  -826.482201  -2.43  -1.86    +61.1727
iter:  14 00:46:48  -826.752935  -2.49  -1.93    +62.4901
iter:  15 00:48:06  -826.575201  -2.66  -1.96    +62.9156
iter:  16 00:49:20  -826.208466  -2.90  -2.02    +63.1053
iter:  17 00:50:33  -826.742580  -2.93  -2.08    +64.0799
iter:  18 00:51:46  -826.207681  -3.06  -2.06    +64.1028
iter:  19 00:52:59  -826.315223  -3.03  -2.19    +64.2778
iter:  20 00:54:11  -826.502843  -3.00  -2.24    +64.4882
iter:  21 00:55:25  -826.239856  -3.21  -2.25    +64.7858
iter:  22 00:56:37  -826.301764  -3.36  -2.37    +64.9360
iter:  23 00:57:51  -826.233188c -3.52  -2.39    +65.0266
iter:  24 00:59:04  -826.275465c -3.63  -2.49    +65.1940
iter:  25 01:00:20  -826.324619c -3.68  -2.51    +65.2339
iter:  26 01:01:34  -826.345141c -3.81  -2.55    +65.3655
iter:  27 01:02:49  -826.354576c -3.96  -2.54    +65.3786
iter:  28 01:04:02  -826.394432c -3.93  -2.60    +65.3029
iter:  29 01:05:16  -826.417440c -4.19  -2.63    +65.3922
iter:  30 01:06:29  -826.450952c -4.03  -2.67    +65.3460
iter:  31 01:07:42  -826.477724c -4.10  -2.70    +65.3246
iter:  32 01:08:54  -826.496883c -4.28  -2.74    +65.4500
iter:  33 01:10:06  -826.509399c -4.23  -2.75    +65.4298
iter:  34 01:11:21  -826.526079c -4.43  -2.80    +65.3524
iter:  35 01:12:37  -826.550913c -4.38  -2.85    +65.4095
iter:  36 01:13:50  -826.559960c -4.50  -2.86    +65.3649
iter:  37 01:15:03  -826.586100c -4.42  -2.91    +65.3060
iter:  38 01:16:16  -826.599095c -4.44  -2.95    +65.3409
iter:  39 01:17:30  -826.605533c -4.62  -2.95    +65.2884
iter:  40 01:18:45  -826.616353c -4.56  -3.00    +65.2393
iter:  41 01:19:59  -826.624153c -4.83  -3.06    +65.2428
iter:  42 01:21:15  -826.632141c -4.77  -3.09    +65.2130
iter:  43 01:22:27  -826.649950c -4.62  -3.13    +65.2055
iter:  44 01:23:42  -826.658958c -4.59  -3.14    +65.2008
iter:  45 01:24:57  -826.660372c -4.95  -3.18    +65.1792
iter:  46 01:26:12  -826.663289c -5.11  -3.21    +65.1729
iter:  47 01:27:27  -826.668534c -5.10  -3.26    +65.1383
iter:  48 01:28:40  -826.666829c -5.17  -3.28    +65.1441
iter:  49 01:29:52  -826.669321c -5.31  -3.32    +65.1299
iter:  50 01:31:10  -826.671044c -5.37  -3.37    +65.1164
iter:  51 01:32:24  -826.671426c -5.58  -3.37    +65.1097
iter:  52 01:33:37  -826.672827c -5.53  -3.41    +65.1105
iter:  53 01:34:51  -826.674974c -5.45  -3.46    +65.0880
iter:  54 01:36:03  -826.675208c -5.66  -3.49    +65.0826
iter:  55 01:37:16  -826.676885c -5.73  -3.52    +65.0724
iter:  56 01:38:30  -826.678564c -5.64  -3.55    +65.0593
iter:  57 01:39:44  -826.679425c -5.73  -3.57    +65.0497
iter:  58 01:40:56  -826.680503c -5.66  -3.58    +65.0380
iter:  59 01:42:09  -826.681304c -5.78  -3.67    +65.0216
iter:  60 01:43:22  -826.682490c -5.94  -3.75    +65.0006
iter:  61 01:44:37  -826.683245c -6.11  -3.77    +64.9894
iter:  62 01:45:51  -826.685600c -5.67  -3.81    +64.9417
iter:  63 01:47:05  -826.685694c -6.08  -3.80    +64.9490
iter:  64 01:48:18  -826.686863c -5.90  -3.84    +64.9316
iter:  65 01:49:32  -826.687726c -6.04  -3.86    +64.8978
iter:  66 01:50:44  -826.689223c -5.81  -3.97    +64.8578
iter:  67 01:51:57  -826.690578c -5.92  -3.96    +64.8301
iter:  68 01:53:11  -826.692742c -5.66  -3.96    +64.7917
iter:  69 01:54:24  -826.703833c -4.35  -3.89    +64.5965
iter:  70 01:55:37  -826.705934c -4.94  -3.65    +64.5503
iter:  71 01:56:50  -826.706826c -5.40  -3.58    +64.5594
iter:  72 01:58:03  -826.708380c -5.76  -3.58    +64.5465
iter:  73 01:59:16  -826.709099c -6.06  -3.51    +64.5471
iter:  74 02:00:29  -826.708027c -5.76  -3.50    +64.5380
iter:  75 02:01:43  -826.710859c -5.11  -3.51    +64.5251
iter:  76 02:02:55  -826.708359c -5.18  -3.35    +64.4920
iter:  77 02:04:09  -826.710418c -4.88  -3.46    +64.4759
iter:  78 02:05:23  -826.706405c -5.18  -3.32    +64.4868
iter:  79 02:06:37  -826.704085c -5.66  -3.51    +64.4339
iter:  80 02:07:50  -826.704100c -5.81  -3.75    +64.4164
iter:  81 02:09:02  -826.704386c -5.94  -3.68    +64.4112
iter:  82 02:10:17  -826.704052c -6.13  -3.71    +64.4214
iter:  83 02:11:31  -826.704992c -5.93  -3.78    +64.4089
iter:  84 02:12:44  -826.704461c -6.05  -3.76    +64.4047
iter:  85 02:14:01  -826.704013c -6.00  -3.81    +64.4132
iter:  86 02:15:14  -826.704512c -6.19  -3.83    +64.4068
iter:  87 02:16:29  -826.704263c -6.29  -3.89    +64.4055
iter:  88 02:17:42  -826.704447c -6.38  -3.92    +64.4002
iter:  89 02:18:55  -826.704158c -6.53  -3.94    +64.4054
iter:  90 02:20:11  -826.704321c -6.65  -4.00c   +64.4078
iter:  91 02:21:26  -826.704606c -6.77  -4.03c   +64.4071
iter:  92 02:22:39  -826.704485c -6.94  -4.03c   +64.4099
iter:  93 02:23:53  -826.704668c -6.87  -4.07c   +64.4113
iter:  94 02:25:07  -826.704671c -6.61  -4.07c   +64.4141
iter:  95 02:26:20  -826.704844c -6.75  -4.04c   +64.4090
iter:  96 02:27:35  -826.704956c -6.42  -4.15c   +64.4079
iter:  97 02:28:48  -826.704789c -6.37  -4.04c   +64.4110
iter:  98 02:30:01  -826.705073c -6.52  -4.11c   +64.4072
iter:  99 02:31:14  -826.705036c -6.59  -4.24c   +64.4056
iter: 100 02:32:23  -826.705286c -6.78  -4.23c   +64.4043
iter: 101 02:33:40  -826.705252c -6.86  -4.30c   +64.4096
iter: 102 02:34:56  -826.705391c -6.88  -4.40c   +64.4087
iter: 103 02:36:08  -826.705206c -6.97  -4.40c   +64.4076
iter: 104 02:37:26  -826.705688c -6.50  -4.23c   +64.4088
iter: 105 02:38:40  -826.705643c -6.84  -4.27c   +64.4085
iter: 106 02:39:55  -826.705955c -6.78  -4.30c   +64.4085
iter: 107 02:41:10  -826.705888c -6.88  -4.29c   +64.4114
iter: 108 02:42:24  -826.706053c -6.82  -4.35c   +64.4075
iter: 109 02:43:37  -826.705908c -6.99  -4.27c   +64.4093
iter: 110 02:44:50  -826.706248c -6.65  -4.25c   +64.4025
iter: 111 02:46:07  -826.706215c -6.92  -4.29c   +64.4008
iter: 112 02:47:19  -826.706532c -6.80  -4.31c   +64.3988
iter: 113 02:48:37  -826.706461c -7.20  -4.26c   +64.3977
iter: 114 02:49:51  -826.706626c -6.66  -4.38c   +64.3887
iter: 115 02:51:08  -826.705921c -5.74  -4.31c   +64.4147
iter: 116 02:52:24  -826.706523c -6.04  -4.25c   +64.3996
iter: 117 02:53:39  -826.706488c -7.12  -4.37c   +64.4033
iter: 118 02:54:54  -826.706771c -6.80  -4.35c   +64.4018
iter: 119 02:56:08  -826.706990c -6.84  -4.39c   +64.4053
iter: 120 02:57:21  -826.707078c -6.82  -4.24c   +64.4027
iter: 121 02:58:34  -826.707165c -6.84  -4.33c   +64.4020
iter: 122 02:59:48  -826.707294c -7.06  -4.26c   +64.4022
iter: 123 03:01:01  -826.707509c -6.79  -4.35c   +64.4023
iter: 124 03:02:18  -826.707122c -6.68  -4.28c   +64.3934
iter: 125 03:03:31  -826.708022c -6.00  -4.22c   +64.4099
iter: 126 03:04:46  -826.707798c -6.96  -4.14c   +64.4111
iter: 127 03:06:00  -826.708091c -6.82  -4.24c   +64.4087
iter: 128 03:07:14  -826.708322c -6.40  -4.25c   +64.4114
iter: 129 03:08:30  -826.708237c -6.79  -4.04c   +64.4053
iter: 130 03:09:45  -826.708422c -6.58  -4.26c   +64.4043
iter: 131 03:10:59  -826.708587c -6.48  -4.31c   +64.3954
iter: 132 03:12:12  -826.708519c -6.93  -4.20c   +64.3933
iter: 133 03:13:28  -826.708686c -6.89  -4.44c   +64.3917
iter: 134 03:14:45  -826.708954c -6.35  -4.46c   +64.3879
iter: 135 03:16:00  -826.708960c -7.27  -4.43c   +64.3903
iter: 136 03:17:17  -826.709038c -7.03  -4.47c   +64.3856
iter: 137 03:18:33  -826.709169c -7.25  -4.46c   +64.3882
iter: 138 03:19:48  -826.709322c -6.70  -4.53c   +64.3893
iter: 139 03:21:00  -826.709326c -7.32  -4.45c   +64.3877
iter: 140 03:22:12  -826.709481c -6.96  -4.58c   +64.3862
iter: 141 03:23:27  -826.709634c -6.82  -4.67c   +64.3863
iter: 142 03:24:39  -826.709765c -6.82  -4.71c   +64.3879
iter: 143 03:25:54  -826.710055c -6.19  -4.77c   +64.3802
iter: 144 03:27:07  -826.710352c -6.13  -4.78c   +64.3809
iter: 145 03:28:22  -826.711106c -5.47  -4.69c   +64.3876
iter: 146 03:29:37  -826.711310c -6.11  -4.27c   +64.3967
iter: 147 03:30:52  -826.711952c -5.67  -4.23c   +64.4273
iter: 148 03:32:07  -826.712274c -5.93  -4.14c   +64.4387
iter: 149 03:33:24  -826.714114c -4.71  -4.06c   +64.5188
iter: 150 03:34:37  -826.714617c -5.16  -3.76    +64.5491
iter: 151 03:35:53  -826.714620c -5.91  -3.70    +64.5541
iter: 152 03:37:06  -826.714731c -6.29  -3.70    +64.5580
iter: 153 03:38:24  -826.714912c -6.54  -3.69    +64.5629
iter: 154 03:39:40  -826.714211c -6.14  -3.67    +64.5596
iter: 155 03:40:54  -826.713301c -5.95  -3.75    +64.5676
iter: 156 03:42:07  -826.713158c -6.29  -3.87    +64.5578
iter: 157 03:43:22  -826.712411c -6.06  -3.88    +64.5415
iter: 158 03:44:35  -826.712822c -6.34  -3.94    +64.5341
iter: 159 03:45:50  -826.712288c -6.63  -3.97    +64.5049
iter: 160 03:47:06  -826.712279c -6.46  -4.10c   +64.4780
iter: 161 03:48:23  -826.712689c -6.44  -4.10c   +64.4675
iter: 162 03:49:42  -826.712559c -6.49  -4.11c   +64.4644
iter: 163 03:50:55  -826.712660c -6.90  -4.14c   +64.4669
iter: 164 03:52:13  -826.712076c -6.52  -4.19c   +64.4638
iter: 165 03:53:26  -826.712252c -6.88  -4.18c   +64.4593
iter: 166 03:54:42  -826.712178c -7.03  -4.37c   +64.4599
iter: 167 03:55:51  -826.712169c -7.12  -4.38c   +64.4550
iter: 168 03:57:09  -826.712121c -6.99  -4.39c   +64.4496
iter: 169 03:58:27  -826.712179c -7.24  -4.56c   +64.4491
iter: 170 03:59:47  -826.712172c -7.33  -4.67c   +64.4473
iter: 171 04:01:04  -826.712152c -7.42c -4.62c   +64.4455

Converged after 171 iterations.

Dipole moment: (27.497910, -2.553240, -8.734832) |e|*Ang

Total magnetic moment: (0.000000, 0.000000, 64.445509)
Local magnetic moments:
   0 Fe ( 0.000000,  0.000000,  2.155585)
   1 Cr ( 0.000000,  0.000000,  1.394369)
   2 Ni ( 0.000000,  0.000000, -0.007097)
   3 Cr ( 0.000000,  0.000000, -1.886918)
   4 Al ( 0.000000,  0.000000, -0.013347)
   5 Fe ( 0.000000,  0.000000,  2.196846)
   6 Ni ( 0.000000,  0.000000,  0.173748)
   7 Al ( 0.000000,  0.000000, -0.017746)
   8 Al ( 0.000000,  0.000000, -0.015148)
   9 Co ( 0.000000,  0.000000,  1.415265)
  10 Ni ( 0.000000,  0.000000,  0.208088)
  11 Co ( 0.000000,  0.000000,  1.111850)
  12 Ni ( 0.000000,  0.000000,  0.250890)
  13 Cr ( 0.000000,  0.000000,  1.319330)
  14 Fe ( 0.000000,  0.000000,  1.443761)
  15 Cr ( 0.000000,  0.000000, -1.589207)
  16 Co ( 0.000000,  0.000000,  0.746364)
  17 Cr ( 0.000000,  0.000000,  0.406875)
  18 Co ( 0.000000,  0.000000,  1.056859)
  19 Fe ( 0.000000,  0.000000,  1.840484)
  20 Cr ( 0.000000,  0.000000, -1.987792)
  21 Fe ( 0.000000,  0.000000,  2.342440)
  22 Co ( 0.000000,  0.000000,  1.044242)
  23 Al ( 0.000000,  0.000000, -0.028784)
  24 Ni ( 0.000000,  0.000000,  0.180051)
  25 Cr ( 0.000000,  0.000000,  0.832325)
  26 Cr ( 0.000000,  0.000000, -1.094949)
  27 Al ( 0.000000,  0.000000, -0.019501)
  28 Cr ( 0.000000,  0.000000, -0.253859)
  29 Cr ( 0.000000,  0.000000, -1.808078)
  30 Fe ( 0.000000,  0.000000,  1.735922)
  31 Fe ( 0.000000,  0.000000,  1.608425)
  32 Ni ( 0.000000,  0.000000,  0.260446)
  33 Cr ( 0.000000,  0.000000,  1.569272)
  34 Co ( 0.000000,  0.000000,  0.825020)
  35 Ni ( 0.000000,  0.000000,  0.338290)
  36 Ni ( 0.000000,  0.000000,  0.179345)
  37 Co ( 0.000000,  0.000000,  1.560537)
  38 Co ( 0.000000,  0.000000,  1.262555)
  39 Cr ( 0.000000,  0.000000, -1.893918)
  40 Fe ( 0.000000,  0.000000,  2.189094)
  41 Al ( 0.000000,  0.000000, -0.039415)
  42 Fe ( 0.000000,  0.000000,  2.242431)
  43 Ni ( 0.000000,  0.000000,  0.395279)
  44 Cr ( 0.000000,  0.000000, -1.696817)
  45 Co ( 0.000000,  0.000000,  1.497483)
  46 Co ( 0.000000,  0.000000,  1.300645)
  47 Ni ( 0.000000,  0.000000,  0.420314)
  48 Ni ( 0.000000,  0.000000,  0.294348)
  49 Cr ( 0.000000,  0.000000,  1.533967)
  50 Co ( 0.000000,  0.000000,  0.979300)
  51 Al ( 0.000000,  0.000000, -0.025986)
  52 Al ( 0.000000,  0.000000, -0.039181)
  53 Fe ( 0.000000,  0.000000,  2.072690)
  54 Fe ( 0.000000,  0.000000,  2.384567)
  55 Fe ( 0.000000,  0.000000,  2.215816)
  56 Ni ( 0.000000,  0.000000,  0.552687)
  57 Ni ( 0.000000,  0.000000,  0.181780)
  58 Co ( 0.000000,  0.000000,  1.209711)
  59 Co ( 0.000000,  0.000000,  0.853363)
  60 Fe ( 0.000000,  0.000000,  1.404445)
  61 Co ( 0.000000,  0.000000,  1.237064)
  62 Al ( 0.000000,  0.000000, -0.015423)
  63 Ni ( 0.000000,  0.000000, -0.020972)
  64 Al ( 0.000000,  0.000000, -0.011367)
  65 Cr ( 0.000000,  0.000000, -1.926139)
  66 Al ( 0.000000,  0.000000, -0.022844)
  67 Ni ( 0.000000,  0.000000,  0.064019)
  68 Al ( 0.000000,  0.000000, -0.033029)
  69 Fe ( 0.000000,  0.000000,  2.013819)
  70 Cr ( 0.000000,  0.000000, -0.879642)
  71 Cr ( 0.000000,  0.000000, -1.181987)
  72 Fe ( 0.000000,  0.000000,  2.450634)
  73 Co ( 0.000000,  0.000000,  1.502301)
  74 Co ( 0.000000,  0.000000,  1.067851)
  75 Co ( 0.000000,  0.000000,  1.581221)
  76 Fe ( 0.000000,  0.000000,  2.283809)
  77 Fe ( 0.000000,  0.000000,  2.363276)
  78 Cr ( 0.000000,  0.000000, -1.982493)
  79 Fe ( 0.000000,  0.000000,  2.284037)
  80 Co ( 0.000000,  0.000000,  1.309429)
  81 Al ( 0.000000,  0.000000, -0.018221)
  82 Ni ( 0.000000,  0.000000,  0.403909)
  83 Ni ( 0.000000,  0.000000,  0.509237)
  84 Ni ( 0.000000,  0.000000,  0.369571)
  85 Fe ( 0.000000,  0.000000,  2.187842)
  86 Co ( 0.000000,  0.000000,  1.212186)
  87 Cr ( 0.000000,  0.000000, -1.780943)
  88 Ni ( 0.000000,  0.000000,  0.435601)
  89 Fe ( 0.000000,  0.000000,  2.122791)
  90 Ni ( 0.000000,  0.000000,  0.195891)
  91 Co ( 0.000000,  0.000000,  0.832987)
  92 Al ( 0.000000,  0.000000, -0.041942)
  93 Cr ( 0.000000,  0.000000,  1.697818)
  94 Fe ( 0.000000,  0.000000,  2.122645)
  95 Cr ( 0.000000,  0.000000, -1.434665)
  96 Ni ( 0.000000,  0.000000,  0.226157)
  97 Fe ( 0.000000,  0.000000,  2.424414)
  98 Co ( 0.000000,  0.000000,  0.514966)
  99 Ni ( 0.000000,  0.000000,  0.379187)
 100 Cr ( 0.000000,  0.000000,  1.535436)
 101 Al ( 0.000000,  0.000000, -0.010677)
 102 Cr ( 0.000000,  0.000000, -1.487736)
 103 Co ( 0.000000,  0.000000,  0.771840)
 104 Al ( 0.000000,  0.000000, -0.019845)
 105 Ni ( 0.000000,  0.000000,  0.272624)
 106 Co ( 0.000000,  0.000000,  1.121184)
 107 Fe ( 0.000000,  0.000000,  2.192801)

Energy contributions relative to reference atoms: (reference = -3382523.201499)

Kinetic:       +221.326469
Potential:     -230.837380
External:        +0.000000
XC:            -848.427926
Entropy (-ST):   -4.177181
Local:          +33.315274
--------------------------
Free energy:   -828.800743
Extrapolated:  -826.712152

Spin contamination: 28.114119 electrons
Showing only first 2 kpts
                      Up                     Down
 Kpt  Band  Eigenvalues  Occupancy  Eigenvalues  Occupancy
  0   470      9.11988    0.99660     10.08065    0.01935
  0   471      9.13034    0.99623     10.09052    0.01756
  0   472      9.13551    0.99603     10.10235    0.01563
  0   473      9.15103    0.99537     10.11339    0.01402

  1   470      9.11914    0.99663     10.08591    0.01837
  1   471      9.13930    0.99588     10.09892    0.01617
  1   472      9.16217    0.99483     10.09996    0.01600
  1   473      9.17168    0.99431     10.12281    0.01277


Fermi level: 9.68807

No gap

Forces in eV/Ang:
  0 Fe   -0.01632    0.16066   -0.20628
  1 Cr    0.05440    0.21541    0.01539
  2 Ni    0.13756   -0.35493   -0.40695
  3 Cr   -0.18048    0.39549    0.18755
  4 Al    0.09987   -0.16859   -0.19314
  5 Fe   -0.27076    0.34095    0.01413
  6 Ni    0.00813    0.40359   -0.42166
  7 Al   -0.43807   -0.15329    0.13031
  8 Al    0.28736    0.65187   -0.38514
  9 Co    0.09632    0.25935   -0.16164
 10 Ni   -0.16894   -0.03860   -0.26272
 11 Co   -0.17824    0.01253   -0.00272
 12 Ni   -0.09224    0.13262    0.05031
 13 Cr    0.05274   -0.08289    0.17674
 14 Fe    0.52653    0.07437   -0.04157
 15 Cr   -0.18417   -0.36837   -0.26736
 16 Co   -0.15755    0.26029    0.09874
 17 Cr   -0.26406    0.23767   -0.75854
 18 Co    0.01805   -0.28639    0.11254
 19 Fe   -0.35062   -0.08283    0.33111
 20 Cr    0.28722    0.42993    0.06263
 21 Fe    0.01129   -0.15035   -0.01892
 22 Co   -0.12197   -0.17089   -0.11611
 23 Al    0.25434    0.67797   -0.11324
 24 Ni    0.01457   -0.10218    0.03854
 25 Cr   -0.45232   -0.31972    0.24599
 26 Cr   -0.25688    0.07616    0.17136
 27 Al    0.24201    0.28196   -0.55896
 28 Cr   -0.19097   -0.08619    0.45535
 29 Cr    0.32924    0.00416    0.10832
 30 Fe   -0.36197    0.18366   -0.00861
 31 Fe   -0.31383    0.04937   -0.06964
 32 Ni    0.15254    0.05519   -0.18366
 33 Cr    0.09081   -0.20280    0.30770
 34 Co    0.24740    0.26572    0.14223
 35 Ni   -0.14161    0.00729    0.28504
 36 Ni   -0.10134    0.06691   -0.01115
 37 Co    0.20371    0.36251   -0.07258
 38 Co    0.13008   -0.10871   -0.07801
 39 Cr   -0.41524    0.18482   -0.42610
 40 Fe   -0.01885   -0.22293   -0.29689
 41 Al   -0.13965    0.45654    0.05461
 42 Fe    0.17335   -0.14574   -0.00985
 43 Ni   -0.21020    0.28485   -0.01239
 44 Cr   -0.14153    0.12434    0.03964
 45 Co   -0.21329    0.01161    0.18554
 46 Co   -0.16814   -0.08049   -0.26632
 47 Ni   -0.13440   -0.13999    0.06765
 48 Ni    0.33206    0.19880    0.02271
 49 Cr   -0.72531   -0.31446    0.30781
 50 Co    0.27457   -0.14334   -0.17313
 51 Al    0.57195   -0.59300    0.29206
 52 Al    0.00618   -0.15715    0.32641
 53 Fe   -0.00133   -0.03739   -0.44121
 54 Fe    0.13458    0.18312    0.06644
 55 Fe   -0.24932   -0.21537   -0.15127
 56 Ni    0.03512   -0.21102   -0.09346
 57 Ni   -0.00603    0.39693    0.16317
 58 Co    0.04816    0.19882    0.04775
 59 Co    0.02494    0.00610    0.16740
 60 Fe   -0.15596   -0.14972   -0.10422
 61 Co   -0.29920   -0.03056   -0.12772
 62 Al   -0.29778    0.42400   -0.17651
 63 Ni    0.33137   -0.32797    0.12219
 64 Al    0.33675   -0.23350    0.67617
 65 Cr   -0.01951    0.67087    0.38922
 66 Al    0.43679   -0.19172    0.00403
 67 Ni   -0.05975   -0.55783    0.20113
 68 Al   -0.24234   -0.35474    0.37851
 69 Fe    0.06785    0.07882    0.06058
 70 Cr    0.52338   -0.14485    0.06382
 71 Cr    0.68659    0.09861   -0.25008
 72 Fe    0.30370    0.37360   -0.07632
 73 Co    0.12419   -0.02506    0.19759
 74 Co    0.26241   -0.12750    0.26014
 75 Co   -0.05771    0.18080    0.00696
 76 Fe   -0.22966   -0.48147    0.16019
 77 Fe   -0.03264   -0.12679    0.01108
 78 Cr    0.26123   -0.22249   -0.23391
 79 Fe    0.12908   -0.01905    0.07964
 80 Co   -0.08782   -0.07960    0.04294
 81 Al    0.31003   -0.04715    0.03456
 82 Ni   -0.30236    0.31432    0.19854
 83 Ni   -0.47270    0.18693    0.19417
 84 Ni    0.03544   -0.06054   -0.11338
 85 Fe    0.02831    0.22886   -0.32755
 86 Co    0.01345   -0.19844    0.02175
 87 Cr   -0.28250    0.02158    0.20776
 88 Ni    0.03570   -0.08243   -0.12747
 89 Fe    0.10813   -0.44880    0.21815
 90 Ni    0.28598   -0.37063    0.05626
 91 Co   -0.08017   -0.01999   -0.18847
 92 Al   -0.10568   -0.07579   -0.02921
 93 Cr   -0.19259    0.11534   -0.29346
 94 Fe    0.07268   -0.47328   -0.09777
 95 Cr    0.62969    0.02276    0.03304
 96 Ni    0.18376   -0.19759   -0.05358
 97 Fe    0.11759   -0.24140    0.01462
 98 Co    0.27692    0.03638    0.28663
 99 Ni    0.41609   -0.26986    0.04668
100 Cr    0.04148    0.06451   -0.03209
101 Al   -0.60708    0.12868   -0.01813
102 Cr    0.30220    0.16856    0.16807
103 Co    0.05643   -0.00531    0.07374
104 Al   -0.50233   -0.03008   -0.11244
105 Ni   -0.19289   -0.06941   -0.05936
106 Co   -0.28115    0.01468   -0.06368
107 Fe   -0.05411   -0.18756   -0.19149

Timing:                              incl.     excl.
-----------------------------------------------------------
Forces:                             19.388    19.388   0.2% |
Hamiltonian:                         1.321     0.005   0.0% |
 Atomic:                             0.184     0.093   0.0% |
  XC Correction:                     0.091     0.091   0.0% |
 Calculate atomic Hamiltonians:      0.958     0.958   0.0% |
 Communicate:                        0.005     0.005   0.0% |
 Initialize Hamiltonian:             0.000     0.000   0.0% |
 Poisson:                            0.000     0.000   0.0% |
 XC 3D grid:                         0.168     0.168   0.0% |
LCAO initialization:                67.173     1.122   0.0% |
 LCAO eigensolver:                   9.023     0.026   0.0% |
  Calculate projections:             0.159     0.159   0.0% |
  DenseAtomicCorrection:             0.125     0.125   0.0% |
  Distribute overlap matrix:         1.647     1.647   0.0% |
  Orbital Layouts:                   3.442     3.442   0.0% |
  Potential matrix:                  1.801     1.801   0.0% |
  Sum over cells:                    1.823     1.823   0.0% |
 LCAO to grid:                      54.956    54.956   0.4% |
 Set positions (LCAO WFS):           2.073     1.245   0.0% |
  Basic WFS set positions:           0.004     0.004   0.0% |
  Basis functions set positions:     0.001     0.001   0.0% |
  P tci:                             0.220     0.220   0.0% |
  ST tci:                            0.230     0.230   0.0% |
  mktci:                             0.373     0.373   0.0% |
PWDescriptor:                        0.084     0.084   0.0% |
SCF-cycle:                       12692.674   235.419   1.8% ||
 Davidson:                       11997.809  2918.274  22.8% |--------|
  Apply H:                         110.771   102.033   0.8% |
   HMM T:                            8.738     8.738   0.1% |
  Subspace diag:                   955.836     0.135   0.0% |
   calc_h_matrix:                  408.753   281.523   2.2% ||
    Apply H:                       127.229   123.756   1.0% |
     HMM T:                          3.474     3.474   0.0% |
   diagonalize:                    155.409   155.409   1.2% |
   rotate_psi:                     391.540   391.540   3.1% ||
  calc. matrices:                 2289.709  2067.267  16.2% |-----|
   Apply H:                        222.442   204.512   1.6% ||
    HMM T:                          17.930    17.930   0.1% |
  diagonalize:                    4883.117  4883.117  38.2% |--------------|
  rotate_psi:                      840.103   840.103   6.6% |--|
 Density:                          225.478     0.007   0.0% |
  Atomic density matrices:           3.025     3.025   0.0% |
  Mix:                             184.093   184.093   1.4% ||
  Multipole moments:                 0.108     0.108   0.0% |
  Pseudo density:                   38.244    38.234   0.3% |
   Symmetrize density:               0.010     0.010   0.0% |
 Hamiltonian:                      226.716     2.053   0.0% |
  Atomic:                           39.347    24.213   0.2% |
   XC Correction:                   15.134    15.134   0.1% |
  Calculate atomic Hamiltonians:   162.848   162.848   1.3% ||
  Communicate:                       1.554     1.554   0.0% |
  Poisson:                           0.092     0.092   0.0% |
  XC 3D grid:                       20.823    20.823   0.2% |
 Orthonormalize:                     7.252     0.001   0.0% |
  calc_s_matrix:                     0.997     0.997   0.0% |
  inverse-cholesky:                  0.472     0.472   0.0% |
  projections:                       4.661     4.661   0.0% |
  rotate_psi_s:                      1.122     1.122   0.0% |
Set symmetry:                        0.001     0.001   0.0% |
Other:                               4.472     4.472   0.0% |
-----------------------------------------------------------
Total:                                     12785.115 100.0%

Date: Sat Apr  8 04:01:25 2023
