
  ___ ___ ___ _ _ _  
 |   |   |_  | | | | 
 | | | | | . | | | | 
 |__ |  _|___|_____|  22.8.0
 |___|_|             

User:   c.zeng@d0055
Date:   Mon Apr 17 04:24:29 2023
Arch:   x86_64
Pid:    57519
CWD:    /home/c.zeng/projects/hea-corrosion/hea-mlp/data-curation/surface-md/dft-jobs/10
Python: 3.8.1
gpaw:   /home/c.zeng/usr/installs/gpaw/source/gpaw-22.8.0/gpaw
_gpaw:  /home/c.zeng/usr/installs/gpaw/source/gpaw-22.8.0/
        _gpaw.cpython-38-x86_64-linux-gnu.so
ase:    /home/c.zeng/.local/lib/python3.8/site-packages/ase-3.22.1-py3.8.egg/ase (version 3.22.1)
numpy:  /home/c.zeng/.local/lib/python3.8/site-packages/numpy (version 1.24.2)
scipy:  /home/c.zeng/.local/lib/python3.8/site-packages/scipy (version 1.10.1)
libxc:  4.2.3
units:  Angstrom and eV
cores: 30
OpenMP: False
OMP_NUM_THREADS: 1

Input parameters:
  convergence: {energy: 0.0001}
  kpts: [2 2 1]
  maxiter: 666
  mode: {ecut: 350.0,
         name: pw}
  occupations: {fixmagmom: False,
                name: fermi-dirac,
                width: 0.1}
  poissonsolver: {dipolelayer: xy}
  spinpol: True
  symmetry: {point_group: False}
  xc: PBE

System changes: positions, numbers, cell, pbc, initial_charges, initial_magmoms 

Initialize ...

species:
  Cr:
    name: Chromium
    id: 33f258bda2ca9f93018e70263a35547b
    Z: 24.0
    valence: 6
    core: 18
    charge: 0.0
    file: /home/c.zeng/usr/data/gpaw-setups-0.9.20000/Cr.PBE.gz
    compensation charges: {type: gauss,
                           rc: 0.35,
                           lmax: 2}
    cutoffs: {filter: 2.14,
              core: 3.04}
    valence states:
      #              energy  rcut
      - 4s(1.00)    -4.007   1.164
      - 4p(0.00)    -0.989   1.217
      - 3d(5.00)    -2.913   1.111
      -  s          23.205   1.164
      -  p          26.223   1.217
      -  d          24.299   1.111
  
    # Using partial waves for Cr as LCAO basis

  Fe:
    name: Iron
    id: 37abbd8d6c3c35915a9b583b742da910
    Z: 26.0
    valence: 8
    core: 18
    charge: 0.0
    file: /home/c.zeng/usr/data/gpaw-setups-0.9.20000/Fe.PBE.gz
    compensation charges: {type: gauss,
                           rc: 0.33,
                           lmax: 2}
    cutoffs: {filter: 2.06,
              core: 2.67}
    valence states:
      #              energy  rcut
      - 4s(2.00)    -5.291   1.164
      - 4p(0.00)    -1.326   1.058
      - 3d(6.00)    -7.505   1.058
      -  s          21.920   1.164
      -  p          25.885   1.058
      -  d          19.706   1.058
  
    # Using partial waves for Fe as LCAO basis

  Ni:
    name: Nickel
    id: 0d9f38a9d6e76a2886f07bb4381f212b
    Z: 28.0
    valence: 16
    core: 12
    charge: 0.0
    file: /home/c.zeng/usr/data/gpaw-setups-0.9.20000/Ni.PBE.gz
    compensation charges: {type: gauss,
                           rc: 0.36,
                           lmax: 2}
    cutoffs: {filter: 2.14,
              core: 1.98}
    valence states:
      #              energy  rcut
      - 4s(2.00)    -5.642   1.164
      - 3p(6.00)   -71.394   1.207
      - 4p(0.00)    -1.226   1.207
      - 3d(8.00)    -8.875   1.138
      -  s          21.570   1.164
      -  d          18.337   1.138
  
    # Using partial waves for Ni as LCAO basis

  Co:
    name: Cobalt
    id: 339d20d5b0b93d2de9531a1bee871d91
    Z: 27.0
    valence: 9
    core: 18
    charge: 0.0
    file: /home/c.zeng/usr/data/gpaw-setups-0.9.20000/Co.PBE.gz
    compensation charges: {type: gauss,
                           rc: 0.32,
                           lmax: 2}
    cutoffs: {filter: 1.87,
              core: 2.55}
    valence states:
      #              energy  rcut
      - 4s(2.00)    -5.469   1.005
      - 4p(0.00)    -1.277   1.058
      - 3d(7.00)    -8.205   1.005
      -  s          21.742   1.005
      -  p          25.934   1.058
      -  d          19.007   1.005
  
    # Using partial waves for Co as LCAO basis

Reference energy: -4451268.207082  # eV

Spin-polarized calculation.
Magnetic moment: 175.600000

Convergence criteria:
 Maximum [total energy] change in last 3 cyles: 0.0001 eV / electron
 Maximum integral of absolute [dens]ity change: 0.0001 electrons / valence electron
 Maximum integral of absolute [eigenst]ate change: 4e-08 eV^2 / valence electron
 Maximum number of scf [iter]ations: 666
 (Square brackets indicate name in SCF output, whereas a 'c' in
 the SCF output indicates the quantity has converged.)

Symmetries present (total): 1

  ( 1  0  0)
  ( 0  1  0)
  ( 0  0  1)

4 k-points: 2 x 2 x 1 Monkhorst-Pack grid
2 k-points in the irreducible part of the Brillouin zone
       k-points in crystal coordinates                weights
   0:     0.25000000   -0.25000000    0.00000000          2/4
   1:     0.25000000    0.25000000    0.00000000          2/4

Wave functions: Plane wave expansion
  Cutoff energy: 350.000 eV
  Number of coefficients (min, max): 58495, 58567
  Pulay-stress correction: 0.000000 eV/Ang^3 (de/decut=0.000000)
  Using FFTW library
  ScaLapack parameters: grid=1x1, blocksize=None
  Wavefunction extrapolation:
    Improved wavefunction reuse through dual PAW basis 

Occupation numbers: Fermi-Dirac:
  width: 0.1000  # eV
 

Eigensolver
   Davidson(niter=2) 

Densities:
  Coarse grid: 54*54*128 grid
  Fine grid: 108*108*256 grid
  Total Charge: 0.000000 

Density mixing:
  Method: difference
  Backend: pulay
  Linear mixing parameter: 0.05
  old densities: 5
  Damping of long wavelength oscillations: 50 

Hamiltonian:
  XC and Coulomb potentials evaluated on a 108*108*256 grid
  Using the PBE Exchange-Correlation functional
  External potential:
    NoExternalPotential
 

XC parameters: PBE with 2 nearest neighbor stencil

Memory estimate:
  Process memory now: 369.61 MiB
  Calculator: 2405.48 MiB
    Density: 16.73 MiB
      Arrays: 6.75 MiB
      Localized functions: 7.29 MiB
      Mixer: 2.70 MiB
    Hamiltonian: 5.22 MiB
      Arrays: 5.01 MiB
      XC: 0.00 MiB
      Poisson: 0.00 MiB
      vbar: 0.21 MiB
    Wavefunctions: 2383.52 MiB
      Arrays psit_nG: 1501.35 MiB
      Eigensolver: 862.84 MiB
      Projections: 3.85 MiB
      Projectors: 0.98 MiB
      PW-descriptor: 14.51 MiB

Total number of cores used: 30
Parallelization over k-points: 2
Domain decomposition: 1 x 3 x 5

Number of atoms: 125
Number of atomic orbitals: 1218
Number of bands in calculation: 840
Number of valence electrons: 1217
Bands to converge: occupied

... initialized

Initializing position-dependent things.

Density initialized from atomic densities
Creating initial wave functions:
  840 bands from LCAO basis set

                                                                   
                                                                   
                                                                   
                                                                   
                                                                   
                                           Ni          Co          
                                     Co      Cr   Cr               
                          Ni    Ni     Co     Cr                   
                Co  Cr Ni  Ni           Co   Co    Fe              
                             Ni  CCr   Fe     Fe     Fe  Co        
                  Ni    Fe  Co     Ni    FCr                       
           Co          Ni Fe  Ni    Cr        CoNi   Fe            
                  Fe     Ni Cr    NiFe   Fe                        
        Co         CNi Fe Fe   Co    Fe     Co  Cr   Fe            
                          Cr   CCo  Cr Fe Fe    Fe    Cr           
              Ni    Co    Co   Ni    Fe     Co                     
               Fe  Fe    Ni  NiCoCo Co Cr  Ni    Fe   Cr           
           Co        Cr   NCFe    Cr CNi   NiCo    Cr              
               NFe    Fe        NFe     Cr                         
          Fe          Cr    CCr   Fe  Fe      Cr                   
                 Co    CCr         CCo   Fe     Ni                 
             Co  FCo    Co   Cr    Cr    Cr                        
             Fe               Ni     Cr                            
                  Ni                                               
                                                                   
                                                                   
                                                                   
                                                                   
                                                                   

Positions:
   0 Cr    11.770739    1.333680   10.532302    ( 0.0000,  0.0000,  0.0000)
   1 Fe     2.081570    1.489226   10.212895    ( 0.0000,  0.0000,  2.0000)
   2 Ni     4.506416    1.266284    9.656210    ( 0.0000,  0.0000,  1.5000)
   3 Co     6.707758    1.176965   10.955044    ( 0.0000,  0.0000,  2.1000)
   4 Ni     9.263088    1.495929   10.336975    ( 0.0000,  0.0000,  1.5000)
   5 Cr    13.117214    3.365490    9.985388    ( 0.0000,  0.0000,  0.0000)
   6 Fe     3.378791    3.452869    9.922544    ( 0.0000,  0.0000,  2.0000)
   7 Cr     5.640710    3.184535   10.954936    ( 0.0000,  0.0000,  0.0000)
   8 Cr     8.032220    3.298945   10.328981    ( 0.0000,  0.0000,  0.0000)
   9 Cr    10.391415    3.520820    9.885528    ( 0.0000,  0.0000,  0.0000)
  10 Ni    15.097718    5.792931    9.871841    ( 0.0000,  0.0000,  1.5000)
  11 Cr     4.805542    5.309651   11.029184    ( 0.0000,  0.0000,  0.0000)
  12 Cr     7.205822    5.461081   10.388647    ( 0.0000,  0.0000,  0.0000)
  13 Cr     9.871287    5.709969    9.935206    ( 0.0000,  0.0000,  0.0000)
  14 Fe    12.502661    5.956894    9.409465    ( 0.0000,  0.0000,  2.0000)
  15 Cr    16.036162    7.534329   10.878189    ( 0.0000,  0.0000,  0.0000)
  16 Ni     6.019010    7.493322   10.999762    ( 0.0000,  0.0000,  1.5000)
  17 Ni     8.248783    7.822023    9.965449    ( 0.0000,  0.0000,  1.5000)
  18 Fe    10.827931    7.989168    9.667482    ( 0.0000,  0.0000,  2.0000)
  19 Cr    13.816604    8.077099    9.632801    ( 0.0000,  0.0000,  0.0000)
  20 Cr    16.565842    9.790540   10.582494    ( 0.0000,  0.0000,  0.0000)
  21 Ni     6.734020    9.554213   10.599306    ( 0.0000,  0.0000,  1.5000)
  22 Cr     9.503408   10.056507   10.033741    ( 0.0000,  0.0000,  0.0000)
  23 Ni    12.064669   10.007224    9.671198    ( 0.0000,  0.0000,  1.5000)
  24 Fe    14.413137   10.057612   11.036219    ( 0.0000,  0.0000,  2.0000)
  25 Co    12.104386   -0.212102   12.666609    ( 0.0000,  0.0000,  2.1000)
  26 Co     2.557620   -0.080406   12.105115    ( 0.0000,  0.0000,  2.1000)
  27 Co     4.850571   -0.087773   11.934733    ( 0.0000,  0.0000,  2.1000)
  28 Cr     7.038695   -0.166540   13.074340    ( 0.0000,  0.0000,  0.0000)
  29 Fe    15.815465   10.621853   12.839831    ( 0.0000,  0.0000,  2.0000)
  30 Fe     0.766569    2.287240   12.073498    ( 0.0000,  0.0000,  2.0000)
  31 Co     3.574839    1.950777   11.925192    ( 0.0000,  0.0000,  2.1000)
  32 Fe     5.614739    1.833881   13.218692    ( 0.0000,  0.0000,  2.0000)
  33 Cr     8.436594    2.092785   12.535499    ( 0.0000,  0.0000,  0.0000)
  34 Fe    10.726981    2.109005   12.400490    ( 0.0000,  0.0000,  2.0000)
  35 Ni     2.251973    4.388459   11.781918    ( 0.0000,  0.0000,  1.5000)
  36 Ni     4.627598    4.024102   13.216741    ( 0.0000,  0.0000,  1.5000)
  37 Cr     7.201670    4.167339   12.670111    ( 0.0000,  0.0000,  0.0000)
  38 Fe     9.461552    4.149001   12.072743    ( 0.0000,  0.0000,  2.0000)
  39 Cr    12.307857    4.365275   11.908501    ( 0.0000,  0.0000,  0.0000)
  40 Fe     3.239437    6.368138   12.879086    ( 0.0000,  0.0000,  2.0000)
  41 Ni     5.880404    6.314552   12.989126    ( 0.0000,  0.0000,  1.5000)
  42 Co     8.403718    6.285892   12.295479    ( 0.0000,  0.0000,  2.1000)
  43 Ni    10.854313    6.454094   11.920697    ( 0.0000,  0.0000,  1.5000)
  44 Co    13.684035    6.586752   11.661366    ( 0.0000,  0.0000,  2.1000)
  45 Cr    16.942501    8.360195   12.859954    ( 0.0000,  0.0000,  0.0000)
  46 Ni     7.560699    8.460601   12.668302    ( 0.0000,  0.0000,  1.5000)
  47 Co     9.647121    8.458222   11.887091    ( 0.0000,  0.0000,  2.1000)
  48 Ni    12.319255    8.550394   11.707126    ( 0.0000,  0.0000,  1.5000)
  49 Fe    14.461370    8.402760   13.143813    ( 0.0000,  0.0000,  2.0000)
  50 Co     1.468077    1.036135   14.281411    ( 0.0000,  0.0000,  2.1000)
  51 Fe     3.814313    0.734554   14.187403    ( 0.0000,  0.0000,  2.0000)
  52 Cr     5.894513    0.541102   15.243567    ( 0.0000,  0.0000,  0.0000)
  53 Fe     8.567589    0.738666   15.007561    ( 0.0000,  0.0000,  2.0000)
  54 Cr    10.857105    0.674790   14.662827    ( 0.0000,  0.0000,  0.0000)
  55 Fe     2.504915    3.177874   14.148501    ( 0.0000,  0.0000,  2.0000)
  56 Co     4.515505    2.859361   15.378250    ( 0.0000,  0.0000,  2.1000)
  57 Co     7.081468    2.647239   15.229806    ( 0.0000,  0.0000,  2.1000)
  58 Co     9.883633    2.905493   14.705061    ( 0.0000,  0.0000,  2.1000)
  59 Cr    12.526865    2.974969   14.275859    ( 0.0000,  0.0000,  0.0000)
  60 Co     3.593882    5.180050   15.361039    ( 0.0000,  0.0000,  2.1000)
  61 Cr     6.368062    5.315607   15.137162    ( 0.0000,  0.0000,  0.0000)
  62 Co     8.695285    5.091187   14.756153    ( 0.0000,  0.0000,  2.1000)
  63 Fe    11.162699    5.140344   14.070246    ( 0.0000,  0.0000,  2.0000)
  64 Co    13.589681    5.219441   14.129350    ( 0.0000,  0.0000,  2.1000)
  65 Fe     4.867551    7.051587   15.014412    ( 0.0000,  0.0000,  2.0000)
  66 Ni     7.832148    7.220745   14.705985    ( 0.0000,  0.0000,  1.5000)
  67 Cr     9.996079    7.166095   14.003394    ( 0.0000,  0.0000,  0.0000)
  68 Fe    12.568480    7.248030   14.131537    ( 0.0000,  0.0000,  2.0000)
  69 Cr    14.780454    7.000933   15.048267    ( 0.0000,  0.0000,  0.0000)
  70 Cr     6.164433    9.176966   14.678571    ( 0.0000,  0.0000,  0.0000)
  71 Ni     8.764089    9.532155   14.319085    ( 0.0000,  0.0000,  1.5000)
  72 Ni    11.516667    9.452479   13.944616    ( 0.0000,  0.0000,  1.5000)
  73 Co    13.696299    9.217308   15.425499    ( 0.0000,  0.0000,  2.1000)
  74 Fe    16.235901    9.249232   15.027998    ( 0.0000,  0.0000,  2.0000)
  75 Fe    12.853331    1.474785   16.709372    ( 0.0000,  0.0000,  2.0000)
  76 Ni     2.724587    1.720389   16.292187    ( 0.0000,  0.0000,  1.5000)
  77 Ni     5.258463    1.501840   17.582900    ( 0.0000,  0.0000,  1.5000)
  78 Fe     7.581019    1.196124   17.529267    ( 0.0000,  0.0000,  2.0000)
  79 Co    10.117839    1.456091   16.721772    ( 0.0000,  0.0000,  2.1000)
  80 Co    14.030912    3.811944   16.322174    ( 0.0000,  0.0000,  2.1000)
  81 Fe     3.764271    3.455940   17.523487    ( 0.0000,  0.0000,  2.0000)
  82 Ni     6.569504    3.499944   17.482589    ( 0.0000,  0.0000,  1.5000)
  83 Co     8.874246    3.684248   16.885681    ( 0.0000,  0.0000,  2.1000)
  84 Fe    11.556601    3.610846   16.511631    ( 0.0000,  0.0000,  2.0000)
  85 Ni    15.190227    5.887777   17.291823    ( 0.0000,  0.0000,  1.5000)
  86 Ni     5.197703    5.738053   17.309812    ( 0.0000,  0.0000,  1.5000)
  87 Co     7.786767    6.054361   16.917503    ( 0.0000,  0.0000,  2.1000)
  88 Fe    10.235723    5.731497   16.398279    ( 0.0000,  0.0000,  2.0000)
  89 Fe    12.556879    5.789865   16.179432    ( 0.0000,  0.0000,  2.0000)
  90 Fe    16.500299    7.936496   17.179200    ( 0.0000,  0.0000,  2.0000)
  91 Co     6.466327    8.200769   16.590529    ( 0.0000,  0.0000,  2.1000)
  92 Ni     9.271123    7.976495   16.466703    ( 0.0000,  0.0000,  1.5000)
  93 Fe    11.729158    8.167937   16.355397    ( 0.0000,  0.0000,  2.0000)
  94 Fe    13.840360    7.835558   17.639160    ( 0.0000,  0.0000,  2.0000)
  95 Co    17.750390   10.134164   16.709239    ( 0.0000,  0.0000,  2.1000)
  96 Co     7.913770   10.127648   16.518203    ( 0.0000,  0.0000,  2.1000)
  97 Fe    10.413249   10.491829   16.519991    ( 0.0000,  0.0000,  2.0000)
  98 Co    12.794906    9.985423   17.533846    ( 0.0000,  0.0000,  2.1000)
  99 Fe    15.435864   10.178062   17.325206    ( 0.0000,  0.0000,  2.0000)
 100 Co     0.367686    0.231706   18.673554    ( 0.0000,  0.0000,  2.1000)
 101 Co     9.250761   11.259822   18.440878    ( 0.0000,  0.0000,  2.1000)
 102 Ni    11.786712   10.812296   19.436309    ( 0.0000,  0.0000,  1.5000)
 103 Fe     7.973938    0.332734   19.759467    ( 0.0000,  0.0000,  2.0000)
 104 Co    16.655492   10.782638   19.134153    ( 0.0000,  0.0000,  2.1000)
 105 Co     1.375941    2.311897   18.720530    ( 0.0000,  0.0000,  2.1000)
 106 Ni     4.151858    2.181833   19.581373    ( 0.0000,  0.0000,  1.5000)
 107 Fe     6.566430    2.337187   19.500092    ( 0.0000,  0.0000,  2.0000)
 108 Ni     8.909768    2.455483   19.031581    ( 0.0000,  0.0000,  1.5000)
 109 Cr    11.365445    2.298042   18.481738    ( 0.0000,  0.0000,  0.0000)
 110 Co     2.865014    4.334437   20.016696    ( 0.0000,  0.0000,  2.1000)
 111 Ni     5.471529    4.439856   19.834958    ( 0.0000,  0.0000,  1.5000)
 112 Ni     7.861618    4.580314   19.144845    ( 0.0000,  0.0000,  1.5000)
 113 Ni    10.424029    4.478293   18.604633    ( 0.0000,  0.0000,  1.5000)
 114 Cr    13.138197    4.722067   18.451383    ( 0.0000,  0.0000,  0.0000)
 115 Cr     3.929223    6.396835   19.334292    ( 0.0000,  0.0000,  0.0000)
 116 Ni     6.691327    6.616639   19.051013    ( 0.0000,  0.0000,  1.5000)
 117 Cr     9.328406    6.579137   18.574787    ( 0.0000,  0.0000,  0.0000)
 118 Co    11.767522    6.575551   18.874908    ( 0.0000,  0.0000,  2.1000)
 119 Cr    14.031379    6.679129   19.804312    ( 0.0000,  0.0000,  0.0000)
 120 Ni     5.515658    8.762147   18.865714    ( 0.0000,  0.0000,  1.5000)
 121 Ni     8.118449    9.050845   18.512064    ( 0.0000,  0.0000,  1.5000)
 122 Co    10.671103    8.733898   18.418538    ( 0.0000,  0.0000,  2.1000)
 123 Cr    13.060810    8.857078   19.787560    ( 0.0000,  0.0000,  0.0000)
 124 Cr    15.306229    8.970423   19.429967    ( 0.0000,  0.0000,  0.0000)

Unit cell:
           periodic     x           y           z      points  spacing
  1. axis:    yes   12.446800    0.000000    0.000000    54     0.1996
  2. axis:    yes    6.223010   10.778600    0.000000    54     0.1996
  3. axis:    no     0.000000    0.000000   29.353100   128     0.2293

  Lengths:  12.446800  12.446046  29.353100
  Angles:   90.000000  90.000000  60.000070

Effective grid spacing dv^(1/3) = 0.2193

     iter     time        total  log10-change:  magmom
                         energy  eigst   dens
iter:   1 04:31:42 -1245.157753                  +175.9175
iter:   2 04:34:12 -1160.595322  -0.00  -1.11    +98.1864
iter:   3 04:36:44 -1235.094194  -0.43  -1.08    +83.3230
iter:   4 04:39:16 -2315.190642  +0.32  -1.04    +73.2023
iter:   5 04:41:48 -1037.088559  -0.38  -0.73    +46.8431
iter:   6 04:44:20 -1001.551182  -1.07  -1.27    +43.2939
iter:   7 04:46:53  -998.002099  -1.60  -1.32    +45.0025
iter:   8 04:49:24  -987.645638  -1.49  -1.33    +46.8325
iter:   9 04:51:56 -1170.788417  -0.98  -1.37    +49.9722
iter:  10 04:54:28 -1177.992295  -0.77  -1.09    +47.7725
iter:  11 04:57:00 -1033.166174  -1.18  -1.05    +42.4778
iter:  12 04:59:33  -992.166059  -1.55  -1.32    +43.0102
iter:  13 05:02:05  -992.635357  -1.72  -1.48    +43.2960
iter:  14 05:04:36  -981.319649  -1.85  -1.48    +44.6860
iter:  15 05:07:09 -1000.544644  -1.55  -1.49    +47.9096
iter:  16 05:09:41 -1032.809353  -1.53  -1.40    +48.9960
iter:  17 05:12:13  -968.066432  -1.99  -1.28    +50.4677
iter:  18 05:14:45  -981.088595  -1.86  -1.62    +54.0014
iter:  19 05:17:17  -972.437812  -2.03  -1.53    +55.5887
iter:  20 05:19:49  -970.991746  -1.86  -1.63    +59.2281
iter:  21 05:22:21  -978.824992  -1.91  -1.64    +61.0948
iter:  22 05:24:53 -1221.415171  -1.26  -1.62    +62.9686
iter:  23 05:27:25  -973.295955  -1.44  -1.05    +62.1586
iter:  24 05:29:57  -972.903824  -2.38  -1.65    +62.3306
iter:  25 05:32:29  -970.553022  -2.62  -1.67    +68.2016
iter:  26 05:35:01  -973.156930  -2.72  -1.74    +72.6250
iter:  27 05:37:33  -972.385230  -2.68  -1.70    +73.7464
iter:  28 05:40:06 -1576.781552  -0.66  -1.73    +77.5164
iter:  29 05:42:37  -971.204377  -1.03  -0.90    +74.3049
iter:  30 05:45:10  -969.062739  -2.01  -1.81    +73.3874
iter:  31 05:47:41  -969.672501  -2.54  -1.87    +75.7207
iter:  32 05:50:14  -968.414205  -2.81  -1.86    +77.2229
iter:  33 05:52:46  -968.976641  -3.01  -1.93    +79.8204
iter:  34 05:55:19 -1065.464978  -1.71  -1.95    +80.7427
iter:  35 05:57:51  -970.096958  -1.88  -1.24    +79.3825
iter:  36 06:00:23  -978.363608  -2.49  -1.94    +79.0953
iter:  37 06:02:56  -970.102215  -2.71  -1.73    +82.4715
iter:  38 06:05:28  -970.633234  -2.88  -2.02    +83.2832
iter:  39 06:08:00  -970.007909  -3.08  -2.02    +84.3309
iter:  40 06:10:32  -974.098929  -2.48  -2.09    +85.1762
iter:  41 06:13:05  -970.322903  -2.76  -1.90    +84.6979
iter:  42 06:15:38  -977.552328  -2.68  -2.14    +85.3605
iter:  43 06:18:10  -970.439826  -2.83  -1.80    +86.6986
iter:  44 06:20:42  -970.572915  -3.13  -2.25    +86.7092
iter:  45 06:23:15  -971.050958  -2.94  -2.34    +85.8393
iter:  46 06:25:47  -970.567158  -3.37  -2.28    +85.6482
iter:  47 06:28:20  -970.848999  -3.27  -2.49    +85.6653
iter:  48 06:30:52  -983.333950  -2.62  -2.47    +85.4212
iter:  49 06:33:25  -971.512394  -2.72  -1.71    +85.4130
iter:  50 06:35:57  -971.574685  -3.55  -2.29    +85.5866
iter:  51 06:38:29  -971.752730  -3.52  -2.30    +84.7574
iter:  52 06:41:00  -971.909388  -3.78  -2.29    +84.2003
iter:  53 06:43:29  -972.248442  -3.24  -2.28    +83.3954
iter:  54 06:45:57 -1030.098634  -1.88  -2.23    +83.2691
iter:  55 06:48:25  -973.332944  -2.15  -1.36    +83.3564
iter:  56 06:50:52  -973.285576  -3.21  -2.13    +83.1643
iter:  57 06:53:19  -973.615279  -3.66  -2.15    +83.2292
iter:  58 06:55:47  -973.951196  -3.01  -2.13    +83.8013
iter:  59 06:58:16  -973.466130  -3.11  -2.04    +83.5701
iter:  60 07:00:43 -1117.399543  -1.55  -2.06    +83.6467
iter:  61 07:03:10  -973.746663  -1.81  -1.15    +83.2757
iter:  62 07:05:38  -974.402669  -2.62  -2.07    +83.2224
iter:  63 07:08:06  -974.420087  -3.16  -2.03    +82.6553
iter:  64 07:10:34  -972.760482  -3.28  -2.03    +82.1071
iter:  65 07:13:01  -973.282200  -3.46  -2.17    +82.2703
iter:  66 07:15:28 -1072.340587  -1.69  -2.10    +82.2184
iter:  67 07:17:56  -972.508204  -1.98  -1.24    +82.2520
iter:  68 07:20:23  -972.094628  -3.07  -2.19    +82.7364
iter:  69 07:22:51  -971.853391  -3.65  -2.25    +82.7031
iter:  70 07:25:19  -971.554156  -3.85  -2.31    +83.3209
iter:  71 07:27:46  -971.297578  -3.81  -2.42    +83.5677
iter:  72 07:30:13  -971.534624  -3.28  -2.59    +83.4335
iter:  73 07:32:41  -971.176103  -3.60  -2.36    +83.9989
iter:  74 07:35:08  -971.418906  -3.51  -2.82    +84.8234
iter:  75 07:37:36  -971.149085  -3.40  -2.78    +84.0760
iter:  76 07:40:04  -971.149133  -3.37  -2.90    +84.1458
iter:  77 07:42:32  -971.245705c -3.26  -2.79    +84.6067
iter:  78 07:45:00  -971.583157  -3.57  -2.66    +84.9875
iter:  79 07:47:28  -971.258767  -3.74  -2.51    +84.4348
iter:  80 07:49:56  -971.307228  -3.68  -2.68    +84.4715
iter:  81 07:52:24  -971.341276c -3.35  -2.61    +84.7631
iter:  82 07:54:52  -971.484092  -3.41  -2.61    +84.8136
iter:  83 07:57:19  -972.022063  -3.55  -2.57    +84.7379
iter:  84 07:59:48  -972.648442  -3.15  -2.34    +85.0590
iter:  85 08:02:16  -971.414600  -3.62  -2.20    +84.7225
iter:  86 08:04:44  -971.783748  -3.28  -2.73    +84.6662
iter:  87 08:07:11  -971.443386  -3.79  -2.48    +84.8526
iter:  88 08:09:39  -971.441521  -4.11  -2.82    +85.1452
iter:  89 08:12:08  -971.452051c -4.52  -2.87    +85.0748
iter:  90 08:14:36  -971.498944c -4.27  -2.91    +85.0291
iter:  91 08:17:04  -971.479344c -4.45  -2.90    +85.0918
iter:  92 08:19:32  -971.507576c -4.48  -2.93    +85.0227
iter:  93 08:21:59  -971.483649c -4.54  -2.91    +84.9789
iter:  94 08:24:28  -971.558313c -4.23  -3.01    +84.9414
iter:  95 08:26:55  -971.491071c -4.46  -2.79    +84.9838
iter:  96 08:29:23  -971.567384c -4.37  -3.10    +85.0607
iter:  97 08:31:51  -971.593851c -4.21  -2.84    +84.9763
iter:  98 08:34:19  -971.509572c -4.73  -2.76    +85.0661
iter:  99 08:36:47  -971.529391c -4.74  -3.08    +85.2170
iter: 100 08:39:14  -971.523391c -5.59  -3.04    +85.2386
iter: 101 08:41:42  -971.516317c -4.73  -3.08    +85.2932
iter: 102 08:44:10  -971.526755c -5.05  -3.24    +85.3521
iter: 103 08:46:37  -971.557063c -4.94  -3.24    +85.3500
iter: 104 08:49:05  -971.552912c -4.66  -3.01    +85.4155
iter: 105 08:51:33  -971.560105c -4.76  -3.12    +85.5360
iter: 106 08:54:00  -971.580199c -5.02  -3.23    +85.5427
iter: 107 08:56:28  -971.511057c -3.96  -3.20    +85.4380
iter: 108 08:58:56  -971.524029c -4.79  -3.15    +85.2616
iter: 109 09:01:23  -971.628658c -4.63  -3.15    +85.2738
iter: 110 09:03:51  -971.553414c -4.45  -2.76    +85.3259
iter: 111 09:06:18  -971.541927c -4.85  -3.01    +85.4611
iter: 112 09:08:46  -971.573502c -4.79  -3.32    +85.4846
iter: 113 09:11:14  -971.484344c -3.79  -3.29    +85.3417
iter: 114 09:13:41  -971.503042c -4.64  -3.18    +85.1411
iter: 115 09:16:08  -971.522130c -5.05  -3.09    +85.1090
iter: 116 09:18:36  -971.559743c -4.55  -3.00    +85.1512
iter: 117 09:21:04  -971.490432c -4.92  -2.84    +85.1667
iter: 118 09:23:32  -971.506286c -5.04  -3.32    +85.0784
iter: 119 09:25:59  -971.522985c -4.84  -3.21    +85.0302
iter: 120 09:28:27  -971.509188c -4.74  -3.13    +85.0342
iter: 121 09:30:54  -971.521226c -4.82  -3.19    +85.0839
iter: 122 09:33:22  -971.518991c -4.82  -3.20    +84.9739
iter: 123 09:35:50  -971.528794c -4.98  -3.46    +85.0918
iter: 124 09:38:18  -971.523128c -5.71  -3.30    +85.1127
iter: 125 09:40:46  -971.537097c -5.19  -3.64    +85.1985
iter: 126 09:43:15  -971.509290c -4.63  -3.48    +84.9548
iter: 127 09:45:42  -971.507690c -4.77  -3.63    +84.7840
iter: 128 09:48:11  -971.506394c -5.71  -3.38    +84.8805
iter: 129 09:50:40  -971.509979c -5.65  -3.62    +84.8780
iter: 130 09:53:08  -971.509727c -5.76  -3.49    +84.9015
iter: 131 09:55:36  -971.522887c -5.38  -3.60    +84.9502
iter: 132 09:58:05  -971.510866c -5.42  -3.21    +84.9475
iter: 133 10:00:33  -971.516215c -5.44  -3.61    +84.9823
iter: 134 10:03:02  -971.513723c -5.58  -3.61    +84.9111
iter: 135 10:05:30  -971.517065c -5.53  -3.56    +85.0191
iter: 136 10:07:59  -971.513269c -5.88  -3.56    +84.9892
iter: 137 10:10:27  -971.522582c -5.47  -3.75    +85.0592
iter: 138 10:12:56  -971.512726c -5.40  -3.54    +84.9867
iter: 139 10:15:24  -971.509219c -5.61  -3.69    +85.0355
iter: 140 10:17:52  -971.514444c -5.87  -3.83    +85.0579
iter: 141 10:20:20  -971.507007c -5.41  -3.83    +84.9712
iter: 142 10:22:49  -971.505201c -5.66  -3.83    +84.8925
iter: 143 10:25:17  -971.506691c -5.60  -3.83    +84.8297
iter: 144 10:27:45  -971.507470c -6.13  -3.53    +84.8699
iter: 145 10:30:15  -971.506180c -5.90  -3.56    +84.8089
iter: 146 10:32:48  -971.507688c -5.64  -3.66    +84.8025
iter: 147 10:35:22  -971.512813c -5.54  -3.52    +84.8294
iter: 148 10:37:55  -971.539095c -5.03  -3.47    +84.8631
iter: 149 10:40:28  -971.509855c -5.20  -3.01    +84.9120
iter: 150 10:43:01  -971.509633c -5.13  -3.59    +84.9415
iter: 151 10:45:34  -971.508430c -5.62  -3.47    +84.9375
iter: 152 10:48:07  -971.514847c -5.38  -3.84    +84.9910
iter: 153 10:50:41  -971.509927c -5.90  -3.65    +84.9748
iter: 154 10:53:14  -971.519416c -5.52  -3.81    +85.0186
iter: 155 10:55:47  -971.514689c -5.80  -3.36    +85.0328
iter: 156 10:58:21  -971.521386c -5.54  -3.83    +85.0936
iter: 157 11:00:54  -971.511822c -5.32  -3.91    +85.0784
iter: 158 11:03:27  -971.504574c -4.89  -4.01c   +85.0026
iter: 159 11:06:00  -971.504192c -5.37  -3.79    +84.9173
iter: 160 11:08:34  -971.503195c -6.17  -3.68    +84.8797
iter: 161 11:11:06  -971.504440c -6.81  -3.79    +84.8810
iter: 162 11:13:39  -971.503643c -6.30  -3.67    +84.8714
iter: 163 11:16:12  -971.510804c -5.37  -3.76    +84.8746
iter: 164 11:18:45  -971.508086c -5.21  -3.26    +84.8214
iter: 165 11:21:19  -971.505078c -5.47  -3.57    +84.7955
iter: 166 11:23:53  -971.510091c -5.43  -3.59    +84.7845
iter: 167 11:26:26  -971.505579c -5.72  -3.42    +84.8043
iter: 168 11:29:00  -971.507886c -5.72  -3.81    +84.8468
iter: 169 11:31:33  -971.511535c -5.49  -3.50    +84.8401
iter: 170 11:34:07  -971.505597c -5.77  -3.40    +84.8642
iter: 171 11:36:40  -971.509925c -5.75  -3.83    +84.9047
iter: 172 11:39:14  -971.510932c -5.75  -3.76    +84.8964
iter: 173 11:41:48  -971.509781c -5.80  -3.49    +84.9455
iter: 174 11:44:22  -971.512444c -5.86  -4.01c   +84.9545
iter: 175 11:46:55  -971.511400c -6.46  -4.10c   +84.9340
iter: 176 11:49:29  -971.508517c -5.39  -3.93    +84.9188
iter: 177 11:52:03  -971.511111c -5.98  -3.74    +84.9472
iter: 178 11:54:37  -971.508245c -6.05  -3.97    +84.9186
iter: 179 11:57:11  -971.509411c -5.91  -3.88    +84.8743
iter: 180 11:59:45  -971.510732c -5.71  -3.53    +84.9030
iter: 181 12:02:19  -971.511197c -5.71  -3.87    +84.8588
iter: 182 12:04:53  -971.515474c -5.51  -3.77    +84.9461
iter: 183 12:07:27  -971.513176c -6.19  -3.88    +84.9080
iter: 184 12:10:01  -971.512475c -5.07  -3.95    +84.8385
iter: 185 12:12:35  -971.517201c -5.21  -3.40    +84.9944
iter: 186 12:15:09  -971.516362c -6.15  -3.72    +85.0110
iter: 187 12:17:43  -971.524999c -5.46  -3.83    +85.0855
iter: 188 12:20:17  -971.504013c -4.60  -3.74    +84.8359
iter: 189 12:22:51  -971.505860c -5.31  -3.77    +84.7850
iter: 190 12:25:25  -971.511027c -5.50  -3.50    +84.8288
iter: 191 12:27:59  -971.515470c -5.22  -3.42    +84.8676
iter: 192 12:30:32  -971.505147c -5.77  -3.22    +84.8847
iter: 193 12:33:06  -971.506595c -5.86  -4.07c   +84.9092
iter: 194 12:35:40  -971.505703c -6.43  -3.97    +84.9031
iter: 195 12:38:14  -971.508338c -6.11  -4.10c   +84.9289
iter: 196 12:40:48  -971.505844c -6.26  -3.88    +84.8981
iter: 197 12:43:22  -971.513359c -5.54  -4.01c   +84.8345
iter: 198 12:45:56  -971.507038c -5.83  -3.34    +84.9121
iter: 199 12:48:30  -971.508339c -6.15  -4.24c   +84.9347
iter: 200 12:51:04  -971.506727c -6.11  -4.24c   +84.9083
iter: 201 12:53:37  -971.505553c -5.56  -4.28c   +84.9046
iter: 202 12:56:10  -971.505078c -5.46  -3.94    +84.9329
iter: 203 12:58:43  -971.507039c -5.81  -3.74    +84.9421
iter: 204 13:01:16  -971.503499c -5.07  -3.97    +84.9592
iter: 205 13:03:48  -971.502799c -5.46  -3.60    +84.9777
iter: 206 13:06:21  -971.502978c -5.69  -3.52    +85.0127
iter: 207 13:08:54  -971.501795c -6.19  -3.47    +85.0224
iter: 208 13:11:27  -971.508539c -5.93  -3.46    +85.0147
iter: 209 13:14:00  -971.507605c -5.48  -3.31    +85.0291
iter: 210 13:16:33  -971.524184c -4.70  -3.29    +85.0205
iter: 211 13:19:05  -971.513707c -4.46  -3.05    +85.0751
iter: 212 13:21:38  -971.506155c -4.90  -3.35    +85.0374
iter: 213 13:24:11  -971.507913c -4.99  -3.53    +85.0545
iter: 214 13:26:43  -971.513554c -5.31  -3.68    +85.1257
iter: 215 13:29:16  -971.526147c -5.34  -3.76    +85.1659
iter: 216 13:31:49  -971.518895c -5.50  -3.31    +85.1502
iter: 217 13:34:21  -971.529864c -5.29  -3.74    +85.2443
iter: 218 13:36:54  -971.513044c -4.97  -3.75    +85.0449
iter: 219 13:39:27  -971.502017c -4.71  -3.67    +84.8823
iter: 220 13:42:00  -971.507603c -5.36  -3.54    +85.0175
iter: 221 13:44:34  -971.520591c -5.48  -3.79    +85.0191
iter: 222 13:47:08  -971.511803c -5.48  -3.22    +85.0597
iter: 223 13:49:41  -971.517947c -5.56  -3.90    +85.1421
iter: 224 13:52:15  -971.500832c -4.66  -3.91    +84.8717
iter: 225 13:54:48  -971.499933c -5.70  -3.77    +84.8525
iter: 226 13:57:22  -971.501024c -6.50  -3.94    +84.8779
iter: 227 13:59:56  -971.503014c -6.17  -4.00    +84.8951
iter: 228 14:02:30  -971.501283c -6.41  -3.74    +84.8738
iter: 229 14:05:04  -971.502718c -6.09  -3.88    +84.8634
iter: 230 14:07:38  -971.502124c -5.91  -3.65    +84.8916
iter: 231 14:10:12  -971.504434c -5.79  -3.76    +84.9038
iter: 232 14:12:46  -971.502958c -5.98  -3.92    +84.9289
iter: 233 14:15:19  -971.504968c -5.87  -4.19c   +84.9745
iter: 234 14:17:53  -971.504667c -6.54  -4.22c   +84.9674
iter: 235 14:20:26  -971.507049c -6.09  -4.03c   +84.9942
iter: 236 14:23:00  -971.505093c -5.96  -4.14c   +84.9380
iter: 237 14:25:34  -971.504244c -6.42  -3.71    +84.9217
iter: 238 14:28:07  -971.505805c -6.45  -4.14c   +84.9598
iter: 239 14:30:41  -971.500206c -5.26  -4.45c   +84.8043
iter: 240 14:33:14  -971.501406c -6.65  -4.10c   +84.8518
iter: 241 14:35:48  -971.502548c -6.35  -4.19c   +84.8907
iter: 242 14:38:21  -971.501506c -6.70  -4.43c   +84.8573
iter: 243 14:40:55  -971.502086c -6.99  -4.26c   +84.8779
iter: 244 14:43:29  -971.503164c -6.22  -4.35c   +84.9053
iter: 245 14:46:02  -971.502215c -6.54  -4.02c   +84.8768
iter: 246 14:48:36  -971.502782c -6.80  -4.12c   +84.9049
iter: 247 14:51:10  -971.506176c -5.77  -4.13c   +84.9432
iter: 248 14:53:44  -971.503783c -6.35  -3.78    +84.9288
iter: 249 14:56:17  -971.510297c -5.94  -4.05c   +84.9235
iter: 250 14:58:52  -971.504274c -6.13  -3.48    +84.9442
iter: 251 15:01:26  -971.505598c -5.74  -3.98    +84.9571
iter: 252 15:03:59  -971.505929c -6.24  -3.90    +84.9538
iter: 253 15:06:33  -971.507643c -6.11  -4.16c   +84.9902
iter: 254 15:09:07  -971.504239c -5.90  -4.11c   +84.9120
iter: 255 15:11:40  -971.505111c -5.40  -4.37c   +84.7943
iter: 256 15:14:14  -971.503115c -6.07  -3.47    +84.8383
iter: 257 15:16:48  -971.502892c -7.20  -4.20c   +84.8264
iter: 258 15:19:22  -971.502453c -6.35  -4.16c   +84.7964
iter: 259 15:21:56  -971.504478c -6.00  -4.04c   +84.7780
iter: 260 15:24:29  -971.502360c -6.26  -3.71    +84.8121
iter: 261 15:27:02  -971.507599c -6.06  -4.06c   +84.8238
iter: 262 15:29:34  -971.504373c -6.03  -3.46    +84.8196
iter: 263 15:32:07  -971.505266c -5.54  -3.75    +84.8377
iter: 264 15:34:40  -971.503895c -6.06  -3.71    +84.8394
iter: 265 15:37:13  -971.504470c -5.96  -4.04c   +84.8503
iter: 266 15:39:46  -971.504855c -6.47  -3.88    +84.8656
iter: 267 15:42:18  -971.508297c -5.84  -4.27c   +84.9272
iter: 268 15:44:49  -971.506437c -6.19  -3.51    +84.9253
iter: 269 15:47:21  -971.508769c -6.06  -4.06c   +84.9700
iter: 270 15:49:52  -971.505291c -5.88  -4.42c   +84.9338
iter: 271 15:52:23  -971.502583c -5.51  -4.39c   +84.8626
iter: 272 15:54:55  -971.502846c -6.22  -4.10c   +84.8380
iter: 273 15:57:26  -971.502636c -6.62  -4.17c   +84.8271
iter: 274 15:59:57  -971.503049c -7.06  -3.99    +84.8381
iter: 275 16:02:28  -971.503556c -6.92  -4.09c   +84.8398
iter: 276 16:04:59  -971.505967c -5.77  -4.11c   +84.8436
iter: 277 16:07:29  -971.503732c -6.16  -3.65    +84.8453
iter: 278 16:09:59  -971.505236c -5.77  -4.08c   +84.8437
iter: 279 16:12:28  -971.509878c -5.85  -3.69    +84.8492
iter: 280 16:14:57  -971.507078c -5.68  -3.45    +84.8951
iter: 281 16:17:25  -971.505895c -6.22  -3.69    +84.9060
iter: 282 16:19:52  -971.507333c -6.14  -4.36c   +84.9297
iter: 283 16:22:20  -971.503944c -5.77  -4.36c   +84.8758
iter: 284 16:24:49  -971.503366c -6.04  -4.15c   +84.8193
iter: 285 16:27:17  -971.503195c -6.71  -4.30c   +84.8062
iter: 286 16:30:29  -971.503203c -6.88  -4.30c   +84.7892
iter: 287 16:34:01  -971.503539c -7.14  -4.27c   +84.7869
iter: 288 16:37:34  -971.504044c -6.48  -4.07c   +84.7916
iter: 289 16:41:06  -971.504682c -6.34  -3.95    +84.7943
iter: 290 16:44:39  -971.509543c -5.69  -3.65    +84.7912
iter: 291 16:48:12  -971.504283c -5.90  -3.39    +84.7932
iter: 292 16:51:45  -971.503580c -6.08  -4.01c   +84.8205
iter: 293 16:55:18  -971.504937c -6.40  -4.29c   +84.8243
iter: 294 16:58:52  -971.503943c -6.72  -4.19c   +84.8271
iter: 295 17:02:27  -971.506133c -6.36  -4.24c   +84.8436
iter: 296 17:06:01  -971.506663c -6.09  -3.77    +84.8274
iter: 297 17:09:34  -971.506030c -6.20  -3.59    +84.8697
iter: 298 17:13:07  -971.507007c -6.31  -4.28c   +84.8714
iter: 299 17:16:42  -971.506222c -6.97  -4.47c   +84.8633
iter: 300 17:20:16  -971.503631c -5.51  -4.55c   +84.8110
iter: 301 17:23:49  -971.504100c -6.31  -4.08c   +84.7923
iter: 302 17:27:23  -971.503757c -6.98  -3.93    +84.8006
iter: 303 17:30:57  -971.503541c -7.44c -4.13c   +84.8009

Converged after 303 iterations.

Dipole moment: (61.110512, 28.663110, -0.071359) |e|*Ang

Total magnetic moment: (0.000000, 0.000000, 84.800873)
Local magnetic moments:
   0 Cr ( 0.000000,  0.000000, -2.263934)
   1 Fe ( 0.000000,  0.000000,  2.320136)
   2 Ni ( 0.000000,  0.000000,  0.333410)
   3 Co ( 0.000000,  0.000000,  1.011648)
   4 Ni ( 0.000000,  0.000000,  0.006651)
   5 Cr ( 0.000000,  0.000000,  2.025571)
   6 Fe ( 0.000000,  0.000000,  2.617725)
   7 Cr ( 0.000000,  0.000000, -1.742189)
   8 Cr ( 0.000000,  0.000000,  1.693333)
   9 Cr ( 0.000000,  0.000000, -2.310527)
  10 Ni ( 0.000000,  0.000000,  0.354237)
  11 Cr ( 0.000000,  0.000000,  1.794570)
  12 Cr ( 0.000000,  0.000000, -2.308184)
  13 Cr ( 0.000000,  0.000000,  2.371649)
  14 Fe ( 0.000000,  0.000000,  2.875258)
  15 Cr ( 0.000000,  0.000000,  1.299890)
  16 Ni ( 0.000000,  0.000000,  0.076917)
  17 Ni ( 0.000000,  0.000000,  0.406974)
  18 Fe ( 0.000000,  0.000000,  2.758970)
  19 Cr ( 0.000000,  0.000000, -3.107431)
  20 Cr ( 0.000000,  0.000000, -2.302507)
  21 Ni ( 0.000000,  0.000000,  0.297612)
  22 Cr ( 0.000000,  0.000000, -2.658475)
  23 Ni ( 0.000000,  0.000000,  0.537566)
  24 Fe ( 0.000000,  0.000000,  2.058021)
  25 Co ( 0.000000,  0.000000,  0.661123)
  26 Co ( 0.000000,  0.000000,  1.385789)
  27 Co ( 0.000000,  0.000000,  1.367769)
  28 Cr ( 0.000000,  0.000000, -1.593005)
  29 Fe ( 0.000000,  0.000000,  1.815751)
  30 Fe ( 0.000000,  0.000000,  1.738032)
  31 Co ( 0.000000,  0.000000,  1.501577)
  32 Fe ( 0.000000,  0.000000,  2.029180)
  33 Cr ( 0.000000,  0.000000, -1.435788)
  34 Fe ( 0.000000,  0.000000,  1.931157)
  35 Ni ( 0.000000,  0.000000,  0.531981)
  36 Ni ( 0.000000,  0.000000,  0.403944)
  37 Cr ( 0.000000,  0.000000,  1.622245)
  38 Fe ( 0.000000,  0.000000,  1.368444)
  39 Cr ( 0.000000,  0.000000, -1.852000)
  40 Fe ( 0.000000,  0.000000,  1.954553)
  41 Ni ( 0.000000,  0.000000,  0.156190)
  42 Co ( 0.000000,  0.000000,  1.194700)
  43 Ni ( 0.000000,  0.000000,  0.289679)
  44 Co ( 0.000000,  0.000000,  1.438293)
  45 Cr ( 0.000000,  0.000000, -1.537508)
  46 Ni ( 0.000000,  0.000000,  0.359504)
  47 Co ( 0.000000,  0.000000,  1.461507)
  48 Ni ( 0.000000,  0.000000,  0.429406)
  49 Fe ( 0.000000,  0.000000,  2.080971)
  50 Co ( 0.000000,  0.000000,  1.398528)
  51 Fe ( 0.000000,  0.000000,  2.152594)
  52 Cr ( 0.000000,  0.000000, -1.929609)
  53 Fe ( 0.000000,  0.000000,  2.182823)
  54 Cr ( 0.000000,  0.000000, -1.813536)
  55 Fe ( 0.000000,  0.000000,  2.545141)
  56 Co ( 0.000000,  0.000000,  1.574004)
  57 Co ( 0.000000,  0.000000,  1.464460)
  58 Co ( 0.000000,  0.000000,  1.364902)
  59 Cr ( 0.000000,  0.000000, -2.249626)
  60 Co ( 0.000000,  0.000000,  1.304403)
  61 Cr ( 0.000000,  0.000000, -2.272586)
  62 Co ( 0.000000,  0.000000,  1.372645)
  63 Fe ( 0.000000,  0.000000,  2.346230)
  64 Co ( 0.000000,  0.000000,  1.130391)
  65 Fe ( 0.000000,  0.000000,  2.000028)
  66 Ni ( 0.000000,  0.000000,  0.230518)
  67 Cr ( 0.000000,  0.000000, -2.239187)
  68 Fe ( 0.000000,  0.000000,  2.250697)
  69 Cr ( 0.000000,  0.000000, -1.896366)
  70 Cr ( 0.000000,  0.000000, -1.656423)
  71 Ni ( 0.000000,  0.000000,  0.463104)
  72 Ni ( 0.000000,  0.000000,  0.159132)
  73 Co ( 0.000000,  0.000000,  1.292097)
  74 Fe ( 0.000000,  0.000000,  1.756939)
  75 Fe ( 0.000000,  0.000000,  2.495327)
  76 Ni ( 0.000000,  0.000000,  0.683334)
  77 Ni ( 0.000000,  0.000000,  0.607551)
  78 Fe ( 0.000000,  0.000000,  2.552824)
  79 Co ( 0.000000,  0.000000,  1.137768)
  80 Co ( 0.000000,  0.000000,  1.472973)
  81 Fe ( 0.000000,  0.000000,  2.915122)
  82 Ni ( 0.000000,  0.000000,  0.684856)
  83 Co ( 0.000000,  0.000000,  1.707244)
  84 Fe ( 0.000000,  0.000000,  2.295769)
  85 Ni ( 0.000000,  0.000000,  0.387789)
  86 Ni ( 0.000000,  0.000000,  0.381119)
  87 Co ( 0.000000,  0.000000,  1.297323)
  88 Fe ( 0.000000,  0.000000,  2.464474)
  89 Fe ( 0.000000,  0.000000,  2.290887)
  90 Fe ( 0.000000,  0.000000,  2.489607)
  91 Co ( 0.000000,  0.000000,  1.237331)
  92 Ni ( 0.000000,  0.000000,  0.510823)
  93 Fe ( 0.000000,  0.000000,  2.667517)
  94 Fe ( 0.000000,  0.000000,  2.430899)
  95 Co ( 0.000000,  0.000000,  1.157187)
  96 Co ( 0.000000,  0.000000,  1.653644)
  97 Fe ( 0.000000,  0.000000,  2.449764)
  98 Co ( 0.000000,  0.000000,  1.437533)
  99 Fe ( 0.000000,  0.000000,  2.280470)
 100 Co ( 0.000000,  0.000000,  1.613746)
 101 Co ( 0.000000,  0.000000,  1.786102)
 102 Ni ( 0.000000,  0.000000,  0.494910)
 103 Fe ( 0.000000,  0.000000,  2.618889)
 104 Co ( 0.000000,  0.000000,  1.415084)
 105 Co ( 0.000000,  0.000000,  1.593825)
 106 Ni ( 0.000000,  0.000000,  0.683100)
 107 Fe ( 0.000000,  0.000000,  2.783950)
 108 Ni ( 0.000000,  0.000000,  0.580465)
 109 Cr ( 0.000000,  0.000000, -2.387270)
 110 Co ( 0.000000,  0.000000, -0.383513)
 111 Ni ( 0.000000,  0.000000,  0.551502)
 112 Ni ( 0.000000,  0.000000,  0.534773)
 113 Ni ( 0.000000,  0.000000,  0.299785)
 114 Cr ( 0.000000,  0.000000, -2.522759)
 115 Cr ( 0.000000,  0.000000, -2.563282)
 116 Ni ( 0.000000,  0.000000,  0.501339)
 117 Cr ( 0.000000,  0.000000, -2.662683)
 118 Co ( 0.000000,  0.000000,  1.432573)
 119 Cr ( 0.000000,  0.000000,  2.397729)
 120 Ni ( 0.000000,  0.000000,  0.590798)
 121 Ni ( 0.000000,  0.000000,  0.711318)
 122 Co ( 0.000000,  0.000000,  1.600091)
 123 Cr ( 0.000000,  0.000000, -1.986971)
 124 Cr ( 0.000000,  0.000000, -1.466590)

Energy contributions relative to reference atoms: (reference = -4451268.207082)

Kinetic:       +281.483132
Potential:     -324.349038
External:        +0.000000
XC:            -969.796189
Entropy (-ST):   -5.647866
Local:          +43.982487
--------------------------
Free energy:   -974.327473
Extrapolated:  -971.503541

Dipole-layer corrected work functions: 4.670376, 4.766623 eV

Spin contamination: 59.634336 electrons
Showing all kpts
                      Up                     Down
 Kpt  Band  Eigenvalues  Occupancy  Eigenvalues  Occupancy
  0   606      0.07124    0.99836      1.06456    0.02868
  0   607      0.08175    0.99818      1.06856    0.02759
  0   608      0.08662    0.99809      1.07897    0.02493
  0   609      0.09501    0.99792      1.08836    0.02275

  1   606      0.07873    0.99823      1.06631    0.02820
  1   607      0.08799    0.99806      1.07917    0.02488
  1   608      0.10462    0.99771      1.08544    0.02340
  1   609      0.10861    0.99762      1.09344    0.02164


Fermi level: 0.71232

Gap: 0.005 eV
Transition (v -> c):
  (s=1, k=0, n=566, [0.25, -0.25, 0.00]) -> (s=1, k=0, n=567, [0.25, -0.25, 0.00])

Forces in eV/Ang:
  0 Cr    0.71727   -0.66495   -0.67017
  1 Fe   -0.21209   -1.19543   -0.31842
  2 Ni    0.22819    0.20396    0.61912
  3 Co    0.37615   -0.50860   -0.28325
  4 Ni    0.58168   -2.52956    0.45094
  5 Cr   -0.77021    1.10328   -0.69068
  6 Fe    0.40290    0.01477   -0.17700
  7 Cr   -0.31221    0.62924    0.22873
  8 Cr   -1.03299    1.01526   -0.53890
  9 Cr    1.16693    0.72422    0.27071
 10 Ni   -0.95640   -0.90381   -0.70409
 11 Cr    0.30706   -0.36405    0.16119
 12 Cr    0.08017   -0.36109    0.20699
 13 Cr   -0.94645   -0.53379    0.03669
 14 Fe   -0.45171    0.06187    1.20691
 15 Cr   -0.00392    1.40305    0.05124
 16 Ni   -0.47892   -0.25322   -0.82835
 17 Ni    0.56703   -0.47480    0.73017
 18 Fe    0.46663   -0.34019    0.75571
 19 Cr   -0.41914    0.00074    0.01433
 20 Cr    0.93352    0.04308    0.15213
 21 Ni    0.70699    2.20232    0.03589
 22 Cr   -0.30312   -0.32039   -0.84985
 23 Ni    0.30315    0.24296    0.69563
 24 Fe   -1.15641   -0.34128   -0.51901
 25 Co    0.41019    0.38882   -0.18858
 26 Co   -2.21199   -0.32343    1.06729
 27 Co    0.40000   -0.03760   -0.64517
 28 Cr    0.83315   -0.05691   -0.11767
 29 Fe    0.48650   -0.13130    0.19536
 30 Fe    1.44860   -1.50234    1.35583
 31 Co   -0.13600    1.62802    0.44060
 32 Fe    1.35393    0.72652   -0.15328
 33 Cr   -1.24134   -0.30454    0.96279
 34 Fe    0.58586   -0.03400    0.64972
 35 Ni    0.78076   -0.74401    0.84279
 36 Ni   -0.01203    1.04965   -0.26807
 37 Cr   -1.01125   -0.22359    0.93634
 38 Fe    1.26850    1.21580    0.70016
 39 Cr   -1.02533    0.66245   -0.40790
 40 Fe    0.62469   -1.48825    1.38807
 41 Ni    0.54032   -0.19804    0.22357
 42 Co    0.05344   -0.05781    0.09051
 43 Ni    1.53773   -0.36983   -0.17248
 44 Co   -0.80649   -0.34954    0.32078
 45 Cr    0.44682    0.73814   -0.16566
 46 Ni   -2.31078    0.48250   -0.49171
 47 Co    1.41870    0.49731   -0.09480
 48 Ni   -0.18125    0.22733    0.11725
 49 Fe    0.28841    1.03685   -0.44372
 50 Co   -0.98247   -0.98559   -0.35770
 51 Fe   -0.48084    0.41084   -0.20462
 52 Cr    1.11462    0.48514    1.33031
 53 Fe   -0.83970   -0.22656   -0.32000
 54 Cr    1.39869    0.15928   -0.39257
 55 Fe    0.44508   -0.43185   -0.80790
 56 Co    1.90754    0.17412   -0.09242
 57 Co    0.57456    0.51239   -0.60078
 58 Co   -0.42125    0.55384   -0.25919
 59 Cr   -0.79250   -0.07058    0.65716
 60 Co    0.71752   -2.16925   -0.99856
 61 Cr   -0.76385   -1.95190    0.11858
 62 Co    0.18259   -1.37627   -0.88186
 63 Fe   -0.33137   -0.95301   -0.04177
 64 Co    0.74828   -1.27167   -1.30044
 65 Fe    0.31788    0.55257   -0.00537
 66 Ni   -1.85363    0.68484    0.14258
 67 Cr    0.71204    0.61446    0.88685
 68 Fe   -0.70180    0.65169   -0.99334
 69 Cr   -0.29645    1.39002    1.09908
 70 Cr    0.79435    0.90634   -1.13524
 71 Ni    0.71846   -0.34368    0.61067
 72 Ni   -1.31730   -1.16024    0.60091
 73 Co    0.02809    0.61623   -0.35824
 74 Fe   -1.20114    0.37063   -0.24024
 75 Fe   -0.60011    0.11442   -1.32158
 76 Ni   -0.02912   -1.30133    0.32902
 77 Ni   -0.86512    0.25531   -0.87669
 78 Fe    0.95064    1.26208   -1.56875
 79 Co    0.00967    0.79733    0.63288
 80 Co   -0.09538    0.14258   -0.06729
 81 Fe   -0.06975    1.39425    1.25334
 82 Ni   -0.86687    1.14053   -0.80342
 83 Co    0.04828   -0.18280   -0.49015
 84 Fe   -0.46384   -0.09486   -0.26867
 85 Ni   -1.28942   -0.54162    1.18848
 86 Ni    0.35406   -0.25590   -0.30679
 87 Co   -0.64880   -0.66895    0.04177
 88 Fe    0.07556    0.33822    0.47637
 89 Fe    0.85261    0.77411    0.93352
 90 Fe   -0.25082    0.10802    0.06313
 91 Co    0.91052   -2.24173    1.54931
 92 Ni   -0.11346    0.93215    0.16121
 93 Fe   -0.66754   -0.66762   -0.54758
 94 Fe    0.18400    0.15297   -0.81409
 95 Co   -0.04410    0.98519    0.61178
 96 Co   -0.26753    1.10181   -0.55324
 97 Fe   -0.65333   -1.69370   -0.33628
 98 Co   -0.28092   -0.62493    0.21605
 99 Fe   -1.62211   -0.97989   -0.59046
100 Co    0.25238   -0.84906   -0.03248
101 Co   -0.29086   -0.63690   -0.01099
102 Ni   -1.07671    0.56758    0.43346
103 Fe    0.27722   -0.42023   -0.23333
104 Co    0.43715    1.10725   -0.25102
105 Co    1.28927    0.88942   -0.27575
106 Ni   -0.35548    0.84065    0.43043
107 Fe   -0.35986    0.09164    0.68345
108 Ni    1.23161   -0.18736   -0.00879
109 Cr    0.59650   -0.01961    0.92075
110 Co    0.09560    0.17268   -1.52683
111 Ni   -0.44342    0.21649   -1.22012
112 Ni    0.44643   -0.01821   -0.33540
113 Ni    0.10544   -0.04090    0.17055
114 Cr    0.27386   -0.31882   -0.02486
115 Cr    0.31839    0.05862    0.20579
116 Ni   -0.21818    0.47105   -0.35290
117 Cr   -0.15468    1.01006    0.57305
118 Co   -0.19730    0.55250   -1.22243
119 Cr    0.64001   -0.85823    0.78638
120 Ni    0.04740   -0.05716    0.13356
121 Ni   -0.07013   -0.94797    0.28048
122 Co   -0.10530    0.61691    0.18960
123 Cr   -0.87015   -0.44915   -0.51112
124 Cr    0.56656   -0.85454   -0.49677

Timing:                              incl.     excl.
-----------------------------------------------------------
Forces:                             49.231    49.231   0.1% |
Hamiltonian:                         1.299     0.010   0.0% |
 Atomic:                             0.373     0.001   0.0% |
  XC Correction:                     0.371     0.371   0.0% |
 Calculate atomic Hamiltonians:      0.430     0.430   0.0% |
 Communicate:                        0.101     0.101   0.0% |
 Initialize Hamiltonian:             0.001     0.001   0.0% |
 Poisson:                            0.084     0.084   0.0% |
 XC 3D grid:                         0.301     0.301   0.0% |
LCAO initialization:               265.069     0.396   0.0% |
 LCAO eigensolver:                  13.174     0.013   0.0% |
  Calculate projections:             0.000     0.000   0.0% |
  DenseAtomicCorrection:             0.000     0.000   0.0% |
  Distribute overlap matrix:         8.004     8.004   0.0% |
  Orbital Layouts:                   5.101     5.101   0.0% |
  Potential matrix:                  0.007     0.007   0.0% |
  Sum over cells:                    0.049     0.049   0.0% |
 LCAO to grid:                     249.415   249.415   0.5% |
 Set positions (LCAO WFS):           2.084     1.809   0.0% |
  Basic WFS set positions:           0.004     0.004   0.0% |
  Basis functions set positions:     0.001     0.001   0.0% |
  P tci:                             0.000     0.000   0.0% |
  ST tci:                            0.107     0.107   0.0% |
  mktci:                             0.163     0.163   0.0% |
PWDescriptor:                        0.115     0.115   0.0% |
SCF-cycle:                       46918.414    65.421   0.1% |
 Davidson:                       45913.829 14513.223  30.7% |-----------|
  Apply H:                         810.155   797.013   1.7% ||
   HMM T:                           13.142    13.142   0.0% |
  Subspace diag:                  4937.423     0.089   0.0% |
   calc_h_matrix:                 1960.489  1280.501   2.7% ||
    Apply H:                       679.989   667.291   1.4% ||
     HMM T:                         12.698    12.698   0.0% |
   diagonalize:                    501.594   501.594   1.1% |
   rotate_psi:                    2475.250  2475.250   5.2% |-|
  calc. matrices:                11657.569 10379.706  22.0% |--------|
   Apply H:                       1277.863  1251.379   2.6% ||
    HMM T:                          26.484    26.484   0.1% |
  diagonalize:                    8658.934  8658.934  18.3% |------|
  rotate_psi:                     5336.524  5336.524  11.3% |----|
 Density:                          526.353     0.008   0.0% |
  Atomic density matrices:           6.802     6.802   0.0% |
  Mix:                             181.402   181.402   0.4% |
  Multipole moments:                 0.195     0.195   0.0% |
  Pseudo density:                  337.946   337.935   0.7% |
   Symmetrize density:               0.010     0.010   0.0% |
 Hamiltonian:                      394.563     3.080   0.0% |
  Atomic:                          112.921     0.376   0.0% |
   XC Correction:                  112.545   112.545   0.2% |
  Calculate atomic Hamiltonians:   144.315   144.315   0.3% |
  Communicate:                      32.447    32.447   0.1% |
  Poisson:                          10.352    10.352   0.0% |
  XC 3D grid:                       91.447    91.447   0.2% |
 Orthonormalize:                    18.248     0.001   0.0% |
  calc_s_matrix:                     2.270     2.270   0.0% |
  inverse-cholesky:                  0.866     0.866   0.0% |
  projections:                      11.078    11.078   0.0% |
  rotate_psi_s:                      4.033     4.033   0.0% |
Set symmetry:                        0.001     0.001   0.0% |
Other:                               6.923     6.923   0.0% |
-----------------------------------------------------------
Total:                                     47241.052 100.0%

Date: Mon Apr 17 17:31:50 2023
