
  ___ ___ ___ _ _ _  
 |   |   |_  | | | | 
 | | | | | . | | | | 
 |__ |  _|___|_____|  22.8.0
 |___|_|             

User:   c.zeng@d0038
Date:   Mon Apr 17 16:20:39 2023
Arch:   x86_64
Pid:    84188
CWD:    /home/c.zeng/projects/hea-corrosion/hea-mlp/data-curation/surface-md/dft-jobs/65
Python: 3.8.1
gpaw:   /home/c.zeng/usr/installs/gpaw/source/gpaw-22.8.0/gpaw
_gpaw:  /home/c.zeng/usr/installs/gpaw/source/gpaw-22.8.0/
        _gpaw.cpython-38-x86_64-linux-gnu.so
ase:    /home/c.zeng/.local/lib/python3.8/site-packages/ase-3.22.1-py3.8.egg/ase (version 3.22.1)
numpy:  /home/c.zeng/.local/lib/python3.8/site-packages/numpy (version 1.24.2)
scipy:  /home/c.zeng/.local/lib/python3.8/site-packages/scipy (version 1.10.1)
libxc:  4.2.3
units:  Angstrom and eV
cores: 30
OpenMP: False
OMP_NUM_THREADS: 1

Input parameters:
  convergence: {energy: 0.0001}
  kpts: [2 2 1]
  maxiter: 666
  mode: {ecut: 350.0,
         name: pw}
  occupations: {fixmagmom: False,
                name: fermi-dirac,
                width: 0.1}
  poissonsolver: {dipolelayer: xy}
  spinpol: True
  symmetry: {point_group: False}
  xc: PBE

System changes: positions, numbers, cell, pbc, initial_charges, initial_magmoms 

Initialize ...

species:
  Cr:
    name: Chromium
    id: 33f258bda2ca9f93018e70263a35547b
    Z: 24.0
    valence: 6
    core: 18
    charge: 0.0
    file: /home/c.zeng/usr/data/gpaw-setups-0.9.20000/Cr.PBE.gz
    compensation charges: {type: gauss,
                           rc: 0.35,
                           lmax: 2}
    cutoffs: {filter: 2.14,
              core: 3.04}
    valence states:
      #              energy  rcut
      - 4s(1.00)    -4.007   1.164
      - 4p(0.00)    -0.989   1.217
      - 3d(5.00)    -2.913   1.111
      -  s          23.205   1.164
      -  p          26.223   1.217
      -  d          24.299   1.111
  
    # Using partial waves for Cr as LCAO basis

  Al:
    name: Aluminium
    id: 0292cae29f5d6237e50f6abdd43a7bdd
    Z: 13.0
    valence: 3
    core: 10
    charge: 0.0
    file: /home/c.zeng/usr/data/gpaw-setups-0.9.20000/Al.PBE.gz
    compensation charges: {type: gauss,
                           rc: 0.34,
                           lmax: 2}
    cutoffs: {filter: 1.91,
              core: 2.36}
    valence states:
      #              energy  rcut
      - 3s(2.00)    -7.753   1.085
      - 3p(1.00)    -2.712   1.085
      -  s          19.459   1.085
      -  p          24.499   1.085
      -  d           0.000   1.085
  
    # Using partial waves for Al as LCAO basis

  Fe:
    name: Iron
    id: 37abbd8d6c3c35915a9b583b742da910
    Z: 26.0
    valence: 8
    core: 18
    charge: 0.0
    file: /home/c.zeng/usr/data/gpaw-setups-0.9.20000/Fe.PBE.gz
    compensation charges: {type: gauss,
                           rc: 0.33,
                           lmax: 2}
    cutoffs: {filter: 2.06,
              core: 2.67}
    valence states:
      #              energy  rcut
      - 4s(2.00)    -5.291   1.164
      - 4p(0.00)    -1.326   1.058
      - 3d(6.00)    -7.505   1.058
      -  s          21.920   1.164
      -  p          25.885   1.058
      -  d          19.706   1.058
  
    # Using partial waves for Fe as LCAO basis

  Co:
    name: Cobalt
    id: 339d20d5b0b93d2de9531a1bee871d91
    Z: 27.0
    valence: 9
    core: 18
    charge: 0.0
    file: /home/c.zeng/usr/data/gpaw-setups-0.9.20000/Co.PBE.gz
    compensation charges: {type: gauss,
                           rc: 0.32,
                           lmax: 2}
    cutoffs: {filter: 1.87,
              core: 2.55}
    valence states:
      #              energy  rcut
      - 4s(2.00)    -5.469   1.005
      - 4p(0.00)    -1.277   1.058
      - 3d(7.00)    -8.205   1.005
      -  s          21.742   1.005
      -  p          25.934   1.058
      -  d          19.007   1.005
  
    # Using partial waves for Co as LCAO basis

  Ni:
    name: Nickel
    id: 0d9f38a9d6e76a2886f07bb4381f212b
    Z: 28.0
    valence: 16
    core: 12
    charge: 0.0
    file: /home/c.zeng/usr/data/gpaw-setups-0.9.20000/Ni.PBE.gz
    compensation charges: {type: gauss,
                           rc: 0.36,
                           lmax: 2}
    cutoffs: {filter: 2.14,
              core: 1.98}
    valence states:
      #              energy  rcut
      - 4s(2.00)    -5.642   1.164
      - 3p(6.00)   -71.394   1.207
      - 4p(0.00)    -1.226   1.207
      - 3d(8.00)    -8.875   1.138
      -  s          21.570   1.164
      -  d          18.337   1.138
  
    # Using partial waves for Ni as LCAO basis

Reference energy: -3927717.499734  # eV

Spin-polarized calculation.
Magnetic moment: 149.100000

Convergence criteria:
 Maximum [total energy] change in last 3 cyles: 0.0001 eV / electron
 Maximum integral of absolute [dens]ity change: 0.0001 electrons / valence electron
 Maximum integral of absolute [eigenst]ate change: 4e-08 eV^2 / valence electron
 Maximum number of scf [iter]ations: 666
 (Square brackets indicate name in SCF output, whereas a 'c' in
 the SCF output indicates the quantity has converged.)

Symmetries present (total): 1

  ( 1  0  0)
  ( 0  1  0)
  ( 0  0  1)

4 k-points: 2 x 2 x 1 Monkhorst-Pack grid
2 k-points in the irreducible part of the Brillouin zone
       k-points in crystal coordinates                weights
   0:     0.25000000   -0.25000000    0.00000000          2/4
   1:     0.25000000    0.25000000    0.00000000          2/4

Wave functions: Plane wave expansion
  Cutoff energy: 350.000 eV
  Number of coefficients (min, max): 60143, 60161
  Pulay-stress correction: 0.000000 eV/Ang^3 (de/decut=0.000000)
  Using FFTW library
  ScaLapack parameters: grid=1x1, blocksize=None
  Wavefunction extrapolation:
    Improved wavefunction reuse through dual PAW basis 

Occupation numbers: Fermi-Dirac:
  width: 0.1000  # eV
 

Eigensolver
   Davidson(niter=2) 

Densities:
  Coarse grid: 56*56*128 grid
  Fine grid: 112*112*256 grid
  Total Charge: 0.000000 

Density mixing:
  Method: difference
  Backend: pulay
  Linear mixing parameter: 0.05
  old densities: 5
  Damping of long wavelength oscillations: 50 

Hamiltonian:
  XC and Coulomb potentials evaluated on a 112*112*256 grid
  Using the PBE Exchange-Correlation functional
  External potential:
    NoExternalPotential
 

XC parameters: PBE with 2 nearest neighbor stencil

Memory estimate:
  Process memory now: 378.96 MiB
  Calculator: 2209.57 MiB
    Density: 18.91 MiB
      Arrays: 7.39 MiB
      Localized functions: 8.57 MiB
      Mixer: 2.95 MiB
    Hamiltonian: 5.75 MiB
      Arrays: 5.49 MiB
      XC: 0.00 MiB
      Poisson: 0.00 MiB
      vbar: 0.26 MiB
    Wavefunctions: 2184.92 MiB
      Arrays psit_nG: 1382.48 MiB
      Eigensolver: 782.37 MiB
      Projections: 3.31 MiB
      Projectors: 1.16 MiB
      PW-descriptor: 15.59 MiB

Total number of cores used: 30
Parallelization over k-points: 2
Domain decomposition: 1 x 3 x 5

Number of atoms: 125
Number of atomic orbitals: 1116
Number of bands in calculation: 753
Number of valence electrons: 1098
Bands to converge: occupied

... initialized

Initializing position-dependent things.

Density initialized from atomic densities
Creating initial wave functions:
  753 bands from LCAO basis set

                                                                 
                                                                 
                                                                 
                                                                 
                                                                 
                                                                 
                                                                 
                           Co          Fe    Ni    Fe            
                       Co   CrFe  CoNi   FCo    Cr               
                                Al          Al Ni    Ni          
                          Cr Cr     CrCo  Co    Co     Ni        
        Cr          Ale  CoNi  NCoCr CrNi   NiNi  Al             
               Fe    Ni                                          
                Co    Fe  CrNi  Fe Cr Al Al Fe     Ni            
          Cr      Co  FAl  Al Co FNCCr  Al Co Ni    Cr           
            Co   Fe     Ni  Al                 Cr                
            Cr      Fe    Co Ni Co NiFe   Co    Cr    Cr         
              Ni    Co    Fe  NFe   CFe   CAl    Al    Al        
         Co   Fe   CrFe  CrNi  FeCo   Fe                         
         Al    Co    Cr  Fe Cr  FeAl  Co    Fe    Fe             
                 Co    Ni    Fe    Ni  CrCo   Ni                 
                 Al  Ni    Al    Cr                              
            Cr          Fe          Cr                           
                  Al           Cr                                
                                                                 
                                                                 
                                                                 
                                                                 
                                                                 
                                                                 

Positions:
   0 Cr    12.300415    2.089161   10.524653    ( 0.0000,  0.0000,  0.0000)
   1 Cr     2.544705    1.857220   10.632931    ( 0.0000,  0.0000,  0.0000)
   2 Al     5.061176    2.216299    9.950174    ( 0.0000,  0.0000,  0.0000)
   3 Fe     7.460056    2.008083   10.517383    ( 0.0000,  0.0000,  2.0000)
   4 Cr     9.991845    2.175334   10.134922    ( 0.0000,  0.0000,  0.0000)
   5 Co    13.758465    4.164497   10.782033    ( 0.0000,  0.0000,  2.1000)
   6 Co     3.792229    4.270549   10.950666    ( 0.0000,  0.0000,  2.1000)
   7 Ni     6.428793    4.333245   10.981194    ( 0.0000,  0.0000,  1.5000)
   8 Fe     8.857652    4.089170   10.987227    ( 0.0000,  0.0000,  2.0000)
   9 Ni    11.336158    4.539069   10.723251    ( 0.0000,  0.0000,  1.5000)
  10 Ni    15.146142    6.148154    9.856289    ( 0.0000,  0.0000,  1.5000)
  11 Ni     5.091007    6.044337    9.666659    ( 0.0000,  0.0000,  1.5000)
  12 Al     7.678093    5.752527    9.524842    ( 0.0000,  0.0000,  0.0000)
  13 Cr    10.045157    6.487430    9.356533    ( 0.0000,  0.0000,  0.0000)
  14 Cr    12.575178    6.265738    9.811411    ( 0.0000,  0.0000,  0.0000)
  15 Fe    16.408879    8.347927   10.008295    ( 0.0000,  0.0000,  2.0000)
  16 Fe     6.335438    8.209236    9.903870    ( 0.0000,  0.0000,  2.0000)
  17 Fe     8.880235    8.381478   10.033803    ( 0.0000,  0.0000,  2.0000)
  18 Co    11.259529    8.585941   10.150996    ( 0.0000,  0.0000,  2.1000)
  19 Fe    13.877890    8.484948   10.082390    ( 0.0000,  0.0000,  2.0000)
  20 Al    17.931343   10.586945    9.960599    ( 0.0000,  0.0000,  0.0000)
  21 Ni     7.635843   10.816791   10.258254    ( 0.0000,  0.0000,  1.5000)
  22 Co     9.907244   10.537760   10.233246    ( 0.0000,  0.0000,  2.1000)
  23 Co    12.673727   10.717740   10.255360    ( 0.0000,  0.0000,  2.1000)
  24 Al    15.199475   10.705737   10.127473    ( 0.0000,  0.0000,  0.0000)
  25 Al     6.177477   10.928281   12.706791    ( 0.0000,  0.0000,  0.0000)
  26 Fe     8.754582   11.198804   12.439719    ( 0.0000,  0.0000,  2.0000)
  27 Al     4.882039    0.253593   12.322663    ( 0.0000,  0.0000,  0.0000)
  28 Ni    14.000054   11.116936   12.692739    ( 0.0000,  0.0000,  1.5000)
  29 Cr    16.507525   11.376283   12.285448    ( 0.0000,  0.0000,  0.0000)
  30 Al     1.240339    2.349739   12.640805    ( 0.0000,  0.0000,  0.0000)
  31 Co     3.688245    2.520207   12.883017    ( 0.0000,  0.0000,  2.1000)
  32 Cr     6.184643    2.508199   12.743433    ( 0.0000,  0.0000,  0.0000)
  33 Cr     8.713794    2.434366   12.750525    ( 0.0000,  0.0000,  0.0000)
  34 Al    11.082953    2.757638   12.811225    ( 0.0000,  0.0000,  0.0000)
  35 Ni     2.462494    4.649992   12.954921    ( 0.0000,  0.0000,  1.5000)
  36 Co     5.025817    4.907216   12.924725    ( 0.0000,  0.0000,  2.1000)
  37 Fe     7.426905    4.594513   13.207963    ( 0.0000,  0.0000,  2.0000)
  38 Fe     9.705811    4.800026   13.277303    ( 0.0000,  0.0000,  2.0000)
  39 Fe    12.589346    4.655793   12.893070    ( 0.0000,  0.0000,  2.0000)
  40 Cr     4.038366    6.857926   11.801122    ( 0.0000,  0.0000,  0.0000)
  41 Cr     6.641827    6.554015   11.590774    ( 0.0000,  0.0000,  0.0000)
  42 Fe     8.973656    6.693986   11.672208    ( 0.0000,  0.0000,  2.0000)
  43 Fe    11.457827    6.828451   11.856334    ( 0.0000,  0.0000,  2.0000)
  44 Al    13.957978    6.666553   12.015070    ( 0.0000,  0.0000,  0.0000)
  45 Cr    17.893937    8.942734   11.958823    ( 0.0000,  0.0000,  0.0000)
  46 Ni     7.704277    8.879604   11.842339    ( 0.0000,  0.0000,  1.5000)
  47 Ni    10.129697    8.901799   12.149749    ( 0.0000,  0.0000,  1.5000)
  48 Co    12.682109    9.175377   12.094221    ( 0.0000,  0.0000,  2.1000)
  49 Cr    15.552497    8.934462   12.032442    ( 0.0000,  0.0000,  0.0000)
  50 Co     1.474940    0.625819   14.674645    ( 0.0000,  0.0000,  2.1000)
  51 Fe     3.861253    0.568362   14.408255    ( 0.0000,  0.0000,  2.0000)
  52 Fe     6.358798    0.601945   14.651065    ( 0.0000,  0.0000,  2.0000)
  53 Ni     8.941064    0.595204   14.776285    ( 0.0000,  0.0000,  1.5000)
  54 Co    11.385244    0.936580   14.687393    ( 0.0000,  0.0000,  2.1000)
  55 Cr     2.368342    2.816018   14.855011    ( 0.0000,  0.0000,  0.0000)
  56 Fe     5.344256    2.922622   14.909104    ( 0.0000,  0.0000,  2.0000)
  57 Co     7.838805    2.863498   15.016740    ( 0.0000,  0.0000,  2.1000)
  58 Co    10.243848    2.824773   15.335378    ( 0.0000,  0.0000,  2.1000)
  59 Fe    12.552683    2.975742   14.959015    ( 0.0000,  0.0000,  2.0000)
  60 Fe     3.863494    5.007580   15.078970    ( 0.0000,  0.0000,  2.0000)
  61 Al     6.197527    5.216621   15.286330    ( 0.0000,  0.0000,  0.0000)
  62 Ni     8.956850    5.311985   15.527570    ( 0.0000,  0.0000,  1.5000)
  63 Cr    11.245573    5.039180   15.181182    ( 0.0000,  0.0000,  0.0000)
  64 Co    14.149160    5.079343   15.384130    ( 0.0000,  0.0000,  2.1000)
  65 Fe     5.098536    7.383800   14.125896    ( 0.0000,  0.0000,  2.0000)
  66 Al     7.742657    7.059183   14.058086    ( 0.0000,  0.0000,  0.0000)
  67 Ni    10.232697    7.213564   14.056004    ( 0.0000,  0.0000,  1.5000)
  68 Al    12.651930    6.943659   14.294052    ( 0.0000,  0.0000,  0.0000)
  69 Cr    15.233394    7.393008   13.804970    ( 0.0000,  0.0000,  0.0000)
  70 Cr     6.496130    9.366395   14.442448    ( 0.0000,  0.0000,  0.0000)
  71 Fe     8.832917    9.276647   13.945143    ( 0.0000,  0.0000,  2.0000)
  72 Al    11.298764    9.237176   14.372298    ( 0.0000,  0.0000,  0.0000)
  73 Fe    13.820878    9.351070   14.384039    ( 0.0000,  0.0000,  2.0000)
  74 Ni    16.404231    9.560849   14.352701    ( 0.0000,  0.0000,  1.5000)
  75 Cr    12.488697    1.397269   17.264180    ( 0.0000,  0.0000,  0.0000)
  76 Co     2.542626    1.147820   16.940848    ( 0.0000,  0.0000,  2.1000)
  77 Co     4.982692    1.503854   17.008088    ( 0.0000,  0.0000,  2.1000)
  78 Ni     7.507724    1.272657   16.856607    ( 0.0000,  0.0000,  1.5000)
  79 Co     9.916726    1.154135   17.229940    ( 0.0000,  0.0000,  2.1000)
  80 Al    13.916748    3.665306   17.324950    ( 0.0000,  0.0000,  0.0000)
  81 Co     3.738751    3.605542   17.214088    ( 0.0000,  0.0000,  2.1000)
  82 Fe     6.360482    3.544601   16.995724    ( 0.0000,  0.0000,  2.0000)
  83 Ni     8.660909    3.577328   17.147282    ( 0.0000,  0.0000,  1.5000)
  84 Cr    11.290133    3.448343   17.486328    ( 0.0000,  0.0000,  0.0000)
  85 Ni    15.179638    5.725627   17.295057    ( 0.0000,  0.0000,  1.5000)
  86 Fe     5.166956    5.756547   17.347482    ( 0.0000,  0.0000,  2.0000)
  87 Ni     7.529100    5.895767   17.684910    ( 0.0000,  0.0000,  1.5000)
  88 Co     9.893832    5.481825   17.614340    ( 0.0000,  0.0000,  2.1000)
  89 Ni    12.578075    5.501728   17.494175    ( 0.0000,  0.0000,  1.5000)
  90 Al    16.552701    7.599169   16.282574    ( 0.0000,  0.0000,  0.0000)
  91 Co     6.246811    7.521503   16.297706    ( 0.0000,  0.0000,  2.1000)
  92 Ni     8.665136    7.718374   16.359283    ( 0.0000,  0.0000,  1.5000)
  93 Cr    11.374371    7.345159   16.399416    ( 0.0000,  0.0000,  0.0000)
  94 Ni    13.949148    7.728719   16.530731    ( 0.0000,  0.0000,  1.5000)
  95 Ni    17.708232   10.152347   16.542609    ( 0.0000,  0.0000,  1.5000)
  96 Cr     7.469791    9.778760   16.586321    ( 0.0000,  0.0000,  0.0000)
  97 Cr    10.077382   10.042476   16.587513    ( 0.0000,  0.0000,  0.0000)
  98 Co    12.657018   10.100745   16.533953    ( 0.0000,  0.0000,  2.1000)
  99 Co    15.302065    9.832824   16.453645    ( 0.0000,  0.0000,  2.1000)
 100 Co     6.287759   10.527566   18.780614    ( 0.0000,  0.0000,  2.1000)
 101 Cr     2.538882   -0.668547   18.663664    ( 0.0000,  0.0000,  0.0000)
 102 Fe    11.351590   10.394087   18.591156    ( 0.0000,  0.0000,  2.0000)
 103 Ni    13.861661   10.419942   18.342701    ( 0.0000,  0.0000,  1.5000)
 104 Fe    16.343887   10.159910   18.858222    ( 0.0000,  0.0000,  2.0000)
 105 Cr     1.227696    1.435712   19.657273    ( 0.0000,  0.0000,  0.0000)
 106 Fe     3.777905    1.592803   19.124606    ( 0.0000,  0.0000,  2.0000)
 107 Ni     6.252997    1.545285   19.068207    ( 0.0000,  0.0000,  1.5000)
 108 Ni     8.733346    1.904036   19.253327    ( 0.0000,  0.0000,  1.5000)
 109 Cr    11.426248    1.825473   19.337778    ( 0.0000,  0.0000,  0.0000)
 110 Al    15.004579    3.709730   20.591689    ( 0.0000,  0.0000,  0.0000)
 111 Al     5.172194    3.869236   18.904082    ( 0.0000,  0.0000,  0.0000)
 112 Cr     7.499574    4.116993   19.494669    ( 0.0000,  0.0000,  0.0000)
 113 Al    10.069573    4.268893   19.582640    ( 0.0000,  0.0000,  0.0000)
 114 Co    12.575239    3.857192   19.608510    ( 0.0000,  0.0000,  2.1000)
 115 Cr    16.057107    5.955304   19.672128    ( 0.0000,  0.0000,  0.0000)
 116 Co     6.072629    6.313543   19.865312    ( 0.0000,  0.0000,  2.1000)
 117 Fe     8.761481    6.533289   19.725291    ( 0.0000,  0.0000,  2.0000)
 118 Ni    11.270343    6.386835   19.291364    ( 0.0000,  0.0000,  1.5000)
 119 Co    13.737625    5.852402   19.705466    ( 0.0000,  0.0000,  2.1000)
 120 Ni    17.716822    8.054230   18.378470    ( 0.0000,  0.0000,  1.5000)
 121 Cr     7.261333    8.424029   18.691294    ( 0.0000,  0.0000,  0.0000)
 122 Co     9.947733    8.207614   18.388045    ( 0.0000,  0.0000,  2.1000)
 123 Fe    12.801413    8.097966   18.711593    ( 0.0000,  0.0000,  2.0000)
 124 Ni    15.176659    7.982403   18.428504    ( 0.0000,  0.0000,  1.5000)

Unit cell:
           periodic     x           y           z      points  spacing
  1. axis:    yes   12.614700    0.000000    0.000000    56     0.1951
  2. axis:    yes    6.308550   10.926700    0.000000    56     0.1951
  3. axis:    no     0.000000    0.000000   29.353100   128     0.2293

  Lengths:  12.614700  12.617075  29.353100
  Angles:   90.000000  90.000000  59.999934

Effective grid spacing dv^(1/3) = 0.2160

     iter     time        total  log10-change:  magmom
                         energy  eigst   dens
iter:   1 16:27:03 -1156.282976                  +149.4302
iter:   2 16:29:12 -1530.672951  +0.38  -1.08    +80.0871
iter:   3 16:31:21 -3318.249703  +1.48  -0.86    +54.1787
iter:   4 16:33:30  -995.196133  +0.34  -0.52    +31.7367
iter:   5 16:35:39  -956.898595  -0.08  -1.17    +27.2445
iter:   6 16:37:49  -954.849135  -0.54  -1.21    +27.5547
iter:   7 16:39:59  -935.873738  -0.99  -1.23    +29.0868
iter:   8 16:42:08  -942.199600  -0.92  -1.26    +30.5428
iter:   9 16:44:18 -1595.034164  -0.29  -1.24    +33.0887
iter:  10 16:46:28  -921.290367  -0.85  -0.82    +30.0546
iter:  11 16:48:37  -938.707540  -1.44  -1.33    +31.3120
iter:  12 16:50:46  -913.286403  -1.27  -1.28    +34.0001
iter:  13 16:52:56  -923.669017  -1.38  -1.44    +34.6130
iter:  14 16:55:05  -919.455530  -1.52  -1.38    +39.4414
iter:  15 16:57:15  -899.817659  -1.59  -1.45    +40.3951
iter:  16 16:59:25  -913.158888  -1.74  -1.63    +45.0242
iter:  17 17:01:34 -1021.067984  -1.40  -1.48    +48.1035
iter:  18 17:03:44  -914.694765  -1.53  -1.14    +46.4933
iter:  19 17:05:54  -912.948058  -2.19  -1.48    +48.0756
iter:  20 17:08:04  -910.035766  -2.44  -1.50    +52.3687
iter:  21 17:10:13  -916.248675  -2.66  -1.56    +56.0829
iter:  22 17:12:23  -908.229897  -2.33  -1.50    +59.8595
iter:  23 17:14:33 -1274.825253  -0.88  -1.64    +62.4491
iter:  24 17:16:42  -906.550556  -1.13  -0.94    +59.3104
iter:  25 17:18:52  -906.386981  -2.06  -1.68    +59.2265
iter:  26 17:21:02  -909.487374  -2.47  -1.71    +62.8685
iter:  27 17:23:12  -903.158561  -2.50  -1.65    +65.0587
iter:  28 17:25:21  -905.339954  -2.73  -1.85    +65.8863
iter:  29 17:27:31  -907.836244  -2.07  -1.79    +66.8581
iter:  30 17:29:41  -907.209793  -2.25  -1.82    +66.4482
iter:  31 17:31:50  -905.465232  -2.79  -1.82    +67.1075
iter:  32 17:34:00  -904.402540  -2.71  -1.96    +68.7310
iter:  33 17:36:09  -906.185222  -2.91  -2.15    +68.7045
iter:  34 17:38:19  -904.910984  -2.86  -2.00    +69.8567
iter:  35 17:40:28  -905.239209  -3.05  -2.20    +70.1659
iter:  36 17:42:37  -905.216681  -3.39  -2.23    +70.1252
iter:  37 17:44:42  -905.576148  -3.21  -2.27    +71.0000
iter:  38 17:46:46  -906.015032  -3.03  -2.30    +72.2449
iter:  39 17:48:50  -908.877769  -2.85  -2.29    +72.5105
iter:  40 17:50:55  -907.134968  -2.85  -1.96    +73.1779
iter:  41 17:52:59  -907.440999  -3.46  -2.11    +73.6231
iter:  42 17:55:04  -907.746417  -3.43  -2.09    +73.3057
iter:  43 17:57:09  -907.253512  -2.81  -2.06    +73.5523
iter:  44 17:59:13  -907.610556  -3.24  -2.13    +73.7357
iter:  45 18:01:18  -957.907851  -1.77  -2.08    +74.1277
iter:  46 18:03:22  -907.420919  -2.05  -1.34    +74.0741
iter:  47 18:05:27  -907.316989  -3.02  -2.14    +73.8733
iter:  48 18:07:32  -906.947435  -3.43  -2.16    +74.3227
iter:  49 18:09:36  -906.839851  -3.56  -2.21    +74.5467
iter:  50 18:11:41  -906.466997  -3.87  -2.23    +74.6032
iter:  51 18:13:45  -907.613555  -2.84  -2.35    +74.7268
iter:  52 18:15:50  -906.165482  -3.32  -2.11    +74.8813
iter:  53 18:17:54  -906.124001  -3.87  -2.54    +75.2727
iter:  54 18:19:59  -906.171388c -4.25  -2.65    +75.2417
iter:  55 18:22:04  -906.153324c -4.16  -2.66    +75.4073
iter:  56 18:24:37  -906.128537c -5.02  -2.85    +75.3939
iter:  57 18:27:33  -906.200473c -4.19  -2.88    +75.4882
iter:  58 18:30:29  -906.265455  -4.00  -2.92    +75.5860
iter:  59 18:33:25  -906.349188  -3.89  -2.89    +75.6945
iter:  60 18:36:20  -906.294805c -4.53  -2.81    +75.6088
iter:  61 18:39:16  -906.771421  -3.70  -2.87    +75.7816
iter:  62 18:42:12  -906.319904  -3.85  -2.41    +75.6716
iter:  63 18:45:08  -906.399094  -4.42  -2.83    +75.6687
iter:  64 18:48:04  -906.481706  -3.98  -2.75    +75.6740
iter:  65 18:51:00  -906.468566c -3.71  -2.56    +75.7057
iter:  66 18:53:55  -906.382697c -3.73  -2.63    +75.8347
iter:  67 18:56:52  -906.410238c -3.84  -2.75    +75.9500
iter:  68 18:59:47  -907.229233  -3.40  -2.70    +75.9723
iter:  69 19:02:44  -906.469467  -3.55  -2.23    +75.9275
iter:  70 19:05:40  -906.450184  -4.07  -2.62    +75.9592
iter:  71 19:08:36  -906.407750c -4.56  -2.64    +76.0174
iter:  72 19:11:32  -906.398572c -4.81  -2.71    +76.0526
iter:  73 19:14:28  -906.394293c -4.87  -2.74    +76.1348
iter:  74 19:17:25  -906.846806  -3.45  -2.74    +76.1285
iter:  75 19:20:21  -906.344202  -3.75  -2.37    +76.1057
iter:  76 19:23:17  -906.471626  -4.22  -2.95    +76.1471
iter:  77 19:26:13  -906.339179  -4.63  -2.61    +76.1561
iter:  78 19:29:09  -906.342698  -4.92  -3.00    +76.1964
iter:  79 19:32:05  -906.345984c -4.81  -2.97    +76.1271
iter:  80 19:35:02  -906.326755c -5.12  -3.03    +76.1123
iter:  81 19:37:58  -906.333800c -5.31  -3.44    +76.1760
iter:  82 19:40:54  -906.347713c -4.82  -3.44    +76.1330
iter:  83 19:43:51  -906.414421c -4.07  -3.37    +76.0532
iter:  84 19:46:48  -906.331089c -3.96  -2.95    +76.1280
iter:  85 19:49:45  -906.346570c -5.29  -3.43    +76.1096
iter:  86 19:52:42  -906.348143c -5.16  -3.31    +76.0704
iter:  87 19:55:38  -906.362986c -4.91  -3.31    +76.0525
iter:  88 19:58:34  -906.343307c -4.85  -3.27    +76.0716
iter:  89 20:01:31  -906.343651c -5.06  -3.43    +76.0268
iter:  90 20:04:28  -906.347134c -5.19  -3.26    +76.0448
iter:  91 20:07:26  -906.345227c -5.68  -3.41    +76.0435
iter:  92 20:10:24  -906.357428c -5.10  -3.49    +76.0701
iter:  93 20:13:22  -906.355184c -5.51  -3.38    +75.9730
iter:  94 20:16:18  -906.359471c -5.18  -3.29    +75.9792
iter:  95 20:19:16  -906.379146c -4.76  -3.31    +76.0036
iter:  96 20:22:14  -906.353160c -4.61  -3.16    +76.0237
iter:  97 20:25:13  -906.354563c -4.73  -3.24    +76.0878
iter:  98 20:28:11  -906.363726c -4.80  -3.23    +76.0456
iter:  99 20:31:09  -906.375820c -4.88  -3.10    +76.0305
iter: 100 20:34:07  -906.365782c -5.50  -3.11    +76.0379
iter: 101 20:37:06  -906.386459c -4.77  -3.34    +76.0261
iter: 102 20:40:04  -906.363894c -4.56  -3.15    +75.9689
iter: 103 20:43:02  -906.383852c -4.77  -3.22    +76.0774
iter: 104 20:46:01  -906.371178c -4.72  -3.01    +76.0651
iter: 105 20:48:59  -906.378064c -4.91  -3.07    +76.0652
iter: 106 20:51:57  -906.364875c -5.16  -3.15    +76.0629
iter: 107 20:54:55  -906.413339c -4.56  -3.37    +75.9888
iter: 108 20:57:53  -906.377748c -4.60  -2.88    +75.9947
iter: 109 21:00:51  -906.486229c -4.25  -3.10    +76.0306
iter: 110 21:03:49  -906.451086c -3.99  -2.68    +76.0525
iter: 111 21:06:45  -906.371955  -4.42  -2.72    +76.0268
iter: 112 21:09:42  -906.360838c -5.13  -3.13    +76.0338
iter: 113 21:12:40  -906.370111c -5.50  -3.36    +76.0462
iter: 114 21:15:38  -906.367574c -5.50  -3.21    +76.0590
iter: 115 21:18:36  -906.368382c -5.58  -3.27    +76.0813
iter: 116 21:21:34  -906.393610c -4.64  -3.32    +76.1055
iter: 117 21:24:32  -906.373415c -4.88  -2.97    +76.1369
iter: 118 21:27:31  -906.370868c -5.50  -3.24    +76.1613
iter: 119 21:30:29  -906.371129c -5.86  -3.36    +76.1631
iter: 120 21:33:26  -906.376564c -5.59  -3.43    +76.1662
iter: 121 21:36:24  -906.372608c -5.50  -3.28    +76.2051
iter: 122 21:39:22  -906.373762c -5.38  -3.55    +76.1987
iter: 123 21:42:21  -906.376392c -5.71  -3.74    +76.2417
iter: 124 21:45:17  -906.380752c -5.41  -3.67    +76.3031
iter: 125 21:48:16  -906.367961c -4.89  -3.77    +76.1418
iter: 126 21:51:13  -906.379684c -5.16  -3.86    +76.2688
iter: 127 21:54:11  -906.377767c -6.44  -3.74    +76.2446
iter: 128 21:57:10  -906.378650c -6.11  -3.79    +76.2563
iter: 129 22:00:08  -906.383813c -5.48  -3.73    +76.3070
iter: 130 22:03:07  -906.386479c -5.65  -3.59    +76.3453
iter: 131 22:06:05  -906.392906c -5.53  -3.61    +76.3574
iter: 132 22:09:03  -906.393487c -5.38  -3.32    +76.4087
iter: 133 22:12:01  -906.396616c -5.39  -3.47    +76.4319
iter: 134 22:14:59  -906.400306c -5.55  -3.44    +76.4674
iter: 135 22:17:57  -906.402655c -5.07  -3.40    +76.5245
iter: 136 22:20:56  -906.433496c -4.74  -3.32    +76.5451
iter: 137 22:23:53  -906.413870c -4.82  -2.94    +76.5777
iter: 138 22:26:51  -906.414370c -4.87  -3.21    +76.6688
iter: 139 22:29:47  -906.422678c -4.94  -3.35    +76.7181
iter: 140 22:32:46  -906.432696c -5.29  -3.15    +76.7718
iter: 141 22:35:44  -906.434184c -4.93  -3.08    +76.8352
iter: 142 22:38:42  -906.452171c -5.30  -3.19    +76.8854
iter: 143 22:41:40  -906.464875c -5.13  -2.99    +76.9360
iter: 144 22:44:38  -906.462115c -5.03  -2.96    +76.9803
iter: 145 22:47:36  -906.513340c -4.81  -2.98    +77.0861
iter: 146 22:50:34  -906.458132c -4.59  -2.77    +77.1434
iter: 147 22:53:32  -906.465738c -4.64  -3.03    +77.1937
iter: 148 22:56:29  -906.463661c -4.61  -2.98    +77.1877
iter: 149 22:59:27  -906.506677c -4.18  -3.02    +77.1461
iter: 150 23:02:24  -906.543832c -4.06  -2.84    +77.1154
iter: 151 23:05:20  -906.482185c -4.07  -2.74    +77.0773
iter: 152 23:08:18  -906.532127c -4.59  -2.95    +77.1914
iter: 153 23:11:17  -906.489401c -5.19  -2.73    +77.2291
iter: 154 23:14:15  -906.530736c -4.58  -2.90    +77.3192
iter: 155 23:17:13  -906.477302c -4.41  -2.76    +77.3371
iter: 156 23:20:11  -906.575829c -3.89  -3.05    +77.3364
iter: 157 23:23:09  -906.477447c -4.15  -2.70    +77.2900
iter: 158 23:26:07  -906.525033c -4.61  -3.00    +77.3928
iter: 159 23:29:05  -906.461876c -4.86  -2.76    +77.3928
iter: 160 23:32:03  -906.474317c -5.13  -3.19    +77.4343
iter: 161 23:35:01  -906.462644c -5.53  -3.02    +77.4777
iter: 162 23:38:00  -906.483990c -4.80  -3.17    +77.4997
iter: 163 23:40:58  -906.469837c -4.49  -2.94    +77.5068
iter: 164 23:43:56  -906.498044c -4.61  -3.14    +77.5574
iter: 165 23:46:53  -906.496157c -4.30  -2.87    +77.5283
iter: 166 23:49:51  -906.478061c -4.25  -2.91    +77.5136
iter: 167 23:52:47  -906.494237c -4.34  -3.01    +77.4379
iter: 168 23:55:45  -906.453594c -4.92  -2.87    +77.5074
iter: 169 23:58:43  -906.458002c -5.29  -3.50    +77.4784
iter: 170 00:01:41  -906.455425c -5.25  -3.24    +77.4744
iter: 171 00:04:39  -906.451946c -5.76  -3.46    +77.4772
iter: 172 00:07:37  -906.454168c -5.57  -3.71    +77.4558
iter: 173 00:10:35  -906.457596c -5.48  -3.64    +77.4527
iter: 174 00:13:33  -906.453345c -5.65  -3.37    +77.4201
iter: 175 00:16:30  -906.459211c -5.68  -3.69    +77.4210
iter: 176 00:19:28  -906.453267c -5.88  -3.38    +77.4262
iter: 177 00:22:26  -906.453511c -6.39  -3.76    +77.4076
iter: 178 00:25:24  -906.454019c -5.85  -3.79    +77.3997
iter: 179 00:28:23  -906.453358c -6.09  -3.70    +77.3936
iter: 180 00:31:19  -906.453840c -5.83  -3.82    +77.3866
iter: 181 00:34:18  -906.481229c -5.05  -3.72    +77.3899
iter: 182 00:37:16  -906.458155c -5.09  -2.97    +77.4054
iter: 183 00:40:14  -906.453926c -5.98  -3.42    +77.3887
iter: 184 00:43:12  -906.454535c -6.06  -3.76    +77.3813
iter: 185 00:46:10  -906.454890c -6.29  -3.68    +77.3792
iter: 186 00:49:08  -906.454652c -6.62  -3.63    +77.3813
iter: 187 00:52:07  -906.458142c -5.47  -3.68    +77.3779
iter: 188 00:55:06  -906.455170c -5.66  -3.36    +77.3826
iter: 189 00:58:04  -906.454826c -6.50  -3.62    +77.3874
iter: 190 01:01:02  -906.454727c -6.42  -3.66    +77.3815
iter: 191 01:04:00  -906.454312c -6.58  -3.66    +77.3813
iter: 192 01:06:57  -906.453690c -6.75  -3.71    +77.3861
iter: 193 01:09:55  -906.453896c -6.10  -3.89    +77.3881
iter: 194 01:12:51  -906.453186c -6.28  -4.03c   +77.3880
iter: 195 01:15:49  -906.453837c -6.28  -3.99    +77.4007
iter: 196 01:18:47  -906.453908c -6.80  -4.20c   +77.4016
iter: 197 01:21:45  -906.453937c -7.01  -4.28c   +77.4014
iter: 198 01:24:43  -906.453780c -7.37  -4.38c   +77.4003
iter: 199 01:27:42  -906.454187c -6.44  -4.43c   +77.4044
iter: 200 01:30:39  -906.454083c -7.50c -4.23c   +77.4038

Converged after 200 iterations.

Dipole moment: (6.236738, 30.103276, -0.028279) |e|*Ang

Total magnetic moment: (0.000000, 0.000000, 77.403843)
Local magnetic moments:
   0 Cr ( 0.000000,  0.000000,  2.704454)
   1 Cr ( 0.000000,  0.000000, -2.665755)
   2 Al ( 0.000000,  0.000000, -0.032287)
   3 Fe ( 0.000000,  0.000000,  2.493453)
   4 Cr ( 0.000000,  0.000000, -2.757966)
   5 Co ( 0.000000,  0.000000,  1.283874)
   6 Co ( 0.000000,  0.000000,  1.461864)
   7 Ni ( 0.000000,  0.000000,  0.188248)
   8 Fe ( 0.000000,  0.000000,  2.121453)
   9 Ni ( 0.000000,  0.000000,  0.205691)
  10 Ni ( 0.000000,  0.000000,  0.287155)
  11 Ni ( 0.000000,  0.000000,  0.266820)
  12 Al ( 0.000000,  0.000000, -0.021920)
  13 Cr ( 0.000000,  0.000000, -3.026782)
  14 Cr ( 0.000000,  0.000000, -2.793227)
  15 Fe ( 0.000000,  0.000000,  1.847889)
  16 Fe ( 0.000000,  0.000000,  2.329674)
  17 Fe ( 0.000000,  0.000000,  2.274864)
  18 Co ( 0.000000,  0.000000,  1.373181)
  19 Fe ( 0.000000,  0.000000,  2.512978)
  20 Al ( 0.000000,  0.000000, -0.027411)
  21 Ni ( 0.000000,  0.000000,  0.281196)
  22 Co ( 0.000000,  0.000000,  1.349630)
  23 Co ( 0.000000,  0.000000,  1.516040)
  24 Al ( 0.000000,  0.000000, -0.027474)
  25 Al ( 0.000000,  0.000000, -0.020688)
  26 Fe ( 0.000000,  0.000000,  2.041970)
  27 Al ( 0.000000,  0.000000, -0.037157)
  28 Ni ( 0.000000,  0.000000,  0.313624)
  29 Cr ( 0.000000,  0.000000,  2.008788)
  30 Al ( 0.000000,  0.000000, -0.024144)
  31 Co ( 0.000000,  0.000000,  0.914779)
  32 Cr ( 0.000000,  0.000000, -1.831680)
  33 Cr ( 0.000000,  0.000000, -1.432676)
  34 Al ( 0.000000,  0.000000, -0.035268)
  35 Ni ( 0.000000,  0.000000,  0.329879)
  36 Co ( 0.000000,  0.000000,  1.218043)
  37 Fe ( 0.000000,  0.000000,  1.943632)
  38 Fe ( 0.000000,  0.000000,  2.253576)
  39 Fe ( 0.000000,  0.000000,  2.314366)
  40 Cr ( 0.000000,  0.000000,  0.810066)
  41 Cr ( 0.000000,  0.000000, -1.781900)
  42 Fe ( 0.000000,  0.000000,  2.152203)
  43 Fe ( 0.000000,  0.000000,  2.328589)
  44 Al ( 0.000000,  0.000000, -0.015512)
  45 Cr ( 0.000000,  0.000000, -0.946397)
  46 Ni ( 0.000000,  0.000000,  0.297815)
  47 Ni ( 0.000000,  0.000000,  0.478958)
  48 Co ( 0.000000,  0.000000,  1.472357)
  49 Cr ( 0.000000,  0.000000,  0.009579)
  50 Co ( 0.000000,  0.000000,  0.793214)
  51 Fe ( 0.000000,  0.000000,  2.199462)
  52 Fe ( 0.000000,  0.000000,  2.514096)
  53 Ni ( 0.000000,  0.000000,  0.486114)
  54 Co ( 0.000000,  0.000000,  1.421681)
  55 Cr ( 0.000000,  0.000000, -2.055729)
  56 Fe ( 0.000000,  0.000000,  2.392475)
  57 Co ( 0.000000,  0.000000,  1.512407)
  58 Co ( 0.000000,  0.000000,  1.346339)
  59 Fe ( 0.000000,  0.000000,  2.246294)
  60 Fe ( 0.000000,  0.000000,  2.510955)
  61 Al ( 0.000000,  0.000000, -0.067124)
  62 Ni ( 0.000000,  0.000000,  0.233079)
  63 Cr ( 0.000000,  0.000000, -2.253007)
  64 Co ( 0.000000,  0.000000,  1.196128)
  65 Fe ( 0.000000,  0.000000,  2.015889)
  66 Al ( 0.000000,  0.000000, -0.023142)
  67 Ni ( 0.000000,  0.000000,  0.295388)
  68 Al ( 0.000000,  0.000000, -0.026305)
  69 Cr ( 0.000000,  0.000000, -1.296942)
  70 Cr ( 0.000000,  0.000000, -1.839341)
  71 Fe ( 0.000000,  0.000000,  2.185970)
  72 Al ( 0.000000,  0.000000, -0.048817)
  73 Fe ( 0.000000,  0.000000,  2.388609)
  74 Ni ( 0.000000,  0.000000,  0.218799)
  75 Cr ( 0.000000,  0.000000,  1.585128)
  76 Co ( 0.000000,  0.000000,  1.018415)
  77 Co ( 0.000000,  0.000000,  1.587588)
  78 Ni ( 0.000000,  0.000000,  0.609920)
  79 Co ( 0.000000,  0.000000,  1.696890)
  80 Al ( 0.000000,  0.000000, -0.009643)
  81 Co ( 0.000000,  0.000000,  1.220857)
  82 Fe ( 0.000000,  0.000000,  2.220227)
  83 Ni ( 0.000000,  0.000000,  0.478715)
  84 Cr ( 0.000000,  0.000000, -1.679336)
  85 Ni ( 0.000000,  0.000000,  0.390850)
  86 Fe ( 0.000000,  0.000000,  2.250553)
  87 Ni ( 0.000000,  0.000000,  0.533560)
  88 Co ( 0.000000,  0.000000,  1.040015)
  89 Ni ( 0.000000,  0.000000,  0.162964)
  90 Al ( 0.000000,  0.000000, -0.035448)
  91 Co ( 0.000000,  0.000000,  1.091124)
  92 Ni ( 0.000000,  0.000000,  0.236600)
  93 Cr ( 0.000000,  0.000000,  2.522800)
  94 Ni ( 0.000000,  0.000000,  0.443673)
  95 Ni ( 0.000000,  0.000000,  0.443764)
  96 Cr ( 0.000000,  0.000000,  1.217221)
  97 Cr ( 0.000000,  0.000000, -1.881982)
  98 Co ( 0.000000,  0.000000,  1.610111)
  99 Co ( 0.000000,  0.000000,  1.616861)
 100 Co ( 0.000000,  0.000000,  0.505430)
 101 Cr ( 0.000000,  0.000000, -1.896817)
 102 Fe ( 0.000000,  0.000000,  2.468063)
 103 Ni ( 0.000000,  0.000000,  0.708342)
 104 Fe ( 0.000000,  0.000000,  3.084985)
 105 Cr ( 0.000000,  0.000000, -2.918050)
 106 Fe ( 0.000000,  0.000000,  2.624699)
 107 Ni ( 0.000000,  0.000000,  0.612198)
 108 Ni ( 0.000000,  0.000000,  0.317364)
 109 Cr ( 0.000000,  0.000000,  2.149210)
 110 Al ( 0.000000,  0.000000, -0.013664)
 111 Al ( 0.000000,  0.000000, -0.028796)
 112 Cr ( 0.000000,  0.000000, -3.109956)
 113 Al ( 0.000000,  0.000000, -0.027365)
 114 Co ( 0.000000,  0.000000,  0.988280)
 115 Cr ( 0.000000,  0.000000, -3.178909)
 116 Co ( 0.000000,  0.000000,  1.716211)
 117 Fe ( 0.000000,  0.000000,  2.871804)
 118 Ni ( 0.000000,  0.000000,  0.555201)
 119 Co ( 0.000000,  0.000000,  1.532665)
 120 Ni ( 0.000000,  0.000000,  0.399227)
 121 Cr ( 0.000000,  0.000000,  1.815983)
 122 Co ( 0.000000,  0.000000,  1.145870)
 123 Fe ( 0.000000,  0.000000,  2.969722)
 124 Ni ( 0.000000,  0.000000,  0.480303)

Energy contributions relative to reference atoms: (reference = -3927717.499734)

Kinetic:       +296.573572
Potential:     -302.494033
External:        +0.000000
XC:            -934.824216
Entropy (-ST):   -5.184773
Local:          +36.882979
--------------------------
Free energy:   -909.046470
Extrapolated:  -906.454083

Dipole-layer corrected work functions: 4.539294, 4.576419 eV

Spin contamination: 48.502541 electrons
Showing all kpts
                      Up                     Down
 Kpt  Band  Eigenvalues  Occupancy  Eigenvalues  Occupancy
  0   547      0.06255    0.99850      1.07500    0.02600
  0   548      0.08001    0.99822      1.08318    0.02401
  0   549      0.09859    0.99785      1.09293    0.02183
  0   550      0.11726    0.99741      1.09973    0.02042

  1   547      0.06522    0.99846      1.06780    0.02789
  1   548      0.07631    0.99828      1.07320    0.02646
  1   549      0.08681    0.99809      1.07701    0.02550
  1   550      0.09385    0.99795      1.09383    0.02164


Fermi level: 0.71268

No gap

Forces in eV/Ang:
  0 Cr    0.65824    0.14904    0.19429
  1 Cr    0.39530    0.98815   -0.72497
  2 Al   -0.05507   -0.20779    0.73091
  3 Fe    0.57417   -0.34708    0.79206
  4 Cr    0.29431   -0.10845    0.80802
  5 Co    0.66918    0.40060    0.23849
  6 Co   -0.05403   -0.26024   -0.33428
  7 Ni   -0.87166   -1.52955   -0.73336
  8 Fe    0.17771    0.22286    0.57910
  9 Ni   -0.86469   -0.69272    0.40145
 10 Ni    0.10053    0.19066    0.73123
 11 Ni   -0.11802    0.21246    0.68701
 12 Al   -0.61408    0.27776   -1.05818
 13 Cr    0.43483   -0.37569    0.59405
 14 Cr    1.24334    0.25527   -0.32591
 15 Fe    0.04800   -0.11153   -0.84443
 16 Fe   -0.34008   -0.02790    0.05707
 17 Fe    0.03063    0.22379   -1.41164
 18 Co    1.26600   -0.32987   -0.55466
 19 Fe   -0.34331   -0.09127    0.11881
 20 Al   -0.83328    0.03473   -0.39624
 21 Ni   -0.91008   -0.74712    0.30086
 22 Co    1.21364    0.46393    0.17075
 23 Co   -0.40195    0.15728    0.49524
 24 Al   -0.81336   -0.04576   -0.31417
 25 Al    2.07581    2.16782   -0.80780
 26 Fe   -0.06481   -0.64649   -0.39642
 27 Al    1.13006    0.02131   -1.22514
 28 Ni   -0.11115    0.30722   -1.25548
 29 Cr   -1.27008    0.03136    0.17935
 30 Al   -0.98254    1.24879    0.84668
 31 Co    0.61548    0.30659   -0.48709
 32 Cr    0.25546    0.12505   -0.17588
 33 Cr   -0.83294   -0.10897   -0.16866
 34 Al    0.80870    0.02089   -0.05660
 35 Ni    0.26919    0.37824    0.50423
 36 Co   -0.43255   -0.23248    0.63191
 37 Fe   -0.12314    0.03296   -0.11744
 38 Fe    0.94074    0.42012   -0.40595
 39 Fe   -0.05077    0.48024    0.40685
 40 Cr   -0.00904   -0.93515    0.13811
 41 Cr   -1.17622    0.84591    1.46044
 42 Fe    0.39500   -0.90688    0.70161
 43 Fe   -0.19678   -0.15608   -0.06507
 44 Al   -0.32059   -0.32492   -1.73459
 45 Cr   -0.95509   -2.23956    0.60503
 46 Ni   -0.76014    0.54295    1.72132
 47 Ni    0.37805   -0.01407   -0.35212
 48 Co    0.25642   -1.15706    0.39926
 49 Cr   -1.31074    0.35898    0.76398
 50 Co   -0.85698   -0.06600    0.29512
 51 Fe   -0.26748    0.92504    2.14958
 52 Fe   -0.19776    0.80555    0.11759
 53 Ni   -0.48337    1.26415    0.05977
 54 Co    0.26137   -1.00425    0.44114
 55 Cr    1.14180    0.46222    1.25055
 56 Fe   -1.13895   -0.36933   -0.05434
 57 Co   -0.60233    0.45041   -0.62030
 58 Co   -1.21381    0.08945   -0.17225
 59 Fe    1.25804    0.21227    0.30579
 60 Fe   -0.87941    0.41933    0.12662
 61 Al    1.69357    0.61161   -0.88944
 62 Ni   -1.49183   -0.00638   -0.93408
 63 Cr    0.73092   -0.17455    0.48809
 64 Co   -1.46565    0.38312   -1.45378
 65 Fe    0.23878   -0.68290   -1.27673
 66 Al    0.01448   -0.36454   -0.15653
 67 Ni   -0.63177   -1.00006   -0.00866
 68 Al    1.08099    0.06278   -0.47613
 69 Cr    1.57760   -0.22276    1.99897
 70 Cr   -0.52519   -0.99174    1.07673
 71 Fe   -0.72639    0.99442    2.45088
 72 Al    0.74255    0.69129    0.20110
 73 Fe    1.00112   -0.21635    0.13001
 74 Ni    1.16013   -0.70025   -0.77203
 75 Cr    0.67550   -0.56903   -1.62420
 76 Co   -0.27896    0.83215    0.03912
 77 Co   -0.17292   -0.75040   -0.67165
 78 Ni    0.02983    0.62702   -0.45371
 79 Co   -0.00359   -0.11864   -0.27014
 80 Al    0.38792   -1.67825    0.66352
 81 Co   -0.55827   -0.83103   -1.60703
 82 Fe    0.40529   -0.82506   -0.24201
 83 Ni    0.83562   -1.07498    0.84318
 84 Cr    0.11405   -0.64411   -0.50363
 85 Ni    0.44504    0.66298    0.81908
 86 Fe   -1.30433   -0.44274    1.44049
 87 Ni    0.16024   -0.01817   -0.15144
 88 Co    0.96970    1.62837   -0.21523
 89 Ni    0.05511    1.03049   -0.11987
 90 Al   -1.72511    0.66541   -0.37391
 91 Co    1.12903    1.01514   -0.56981
 92 Ni    0.82057    0.11078   -0.20504
 93 Cr   -0.77651    0.65560    0.76624
 94 Ni   -0.99697   -0.08544   -1.52271
 95 Ni   -0.07764   -0.48897   -0.01146
 96 Cr    0.68933    1.02315    0.06891
 97 Cr    0.07925   -0.36381   -0.73034
 98 Co   -0.85689   -1.22935   -0.98243
 99 Co   -0.83596   -0.10905    0.68949
100 Co   -0.53077   -0.32129   -0.29103
101 Cr   -0.43872   -0.09273    0.21027
102 Fe    0.09063   -0.33272   -0.21501
103 Ni    1.03312   -0.23773    2.25347
104 Fe    0.26301    0.42242   -0.85035
105 Cr   -0.14117    0.80183   -0.63649
106 Fe   -0.41945    0.16001   -0.55640
107 Ni    0.40490    0.53114   -0.36858
108 Ni    0.33984    0.05949   -0.90776
109 Cr   -1.23066   -0.20351    0.38816
110 Al   -0.34683   -0.09268   -0.96280
111 Al   -1.39155   -0.13221    2.99918
112 Cr    0.70708    0.04463   -0.09062
113 Al    0.12686   -1.05609    1.17440
114 Co    0.36481    0.31797   -0.53734
115 Cr    1.07610    0.51471   -0.48547
116 Co    0.39340   -0.42759   -1.36866
117 Fe   -0.14023   -0.25855   -0.59538
118 Ni    0.20908   -0.05201    0.51036
119 Co    0.01379    0.27637   -0.95977
120 Ni   -1.20850    0.35940    0.58902
121 Cr    1.52503   -0.82383   -0.38166
122 Co    0.23836   -0.11590    0.10720
123 Fe   -0.31947    0.32629   -0.46382
124 Ni    0.31959    0.47028    0.77002

Timing:                              incl.     excl.
-----------------------------------------------------------
Forces:                             45.267    45.267   0.1% |
Hamiltonian:                         1.333     0.011   0.0% |
 Atomic:                             0.335     0.001   0.0% |
  XC Correction:                     0.334     0.334   0.0% |
 Calculate atomic Hamiltonians:      0.448     0.448   0.0% |
 Communicate:                        0.136     0.136   0.0% |
 Initialize Hamiltonian:             0.000     0.000   0.0% |
 Poisson:                            0.084     0.084   0.0% |
 XC 3D grid:                         0.320     0.320   0.0% |
LCAO initialization:               238.102     0.513   0.0% |
 LCAO eigensolver:                  11.209     0.010   0.0% |
  Calculate projections:             0.000     0.000   0.0% |
  DenseAtomicCorrection:             0.000     0.000   0.0% |
  Distribute overlap matrix:         7.068     7.068   0.0% |
  Orbital Layouts:                   4.104     4.104   0.0% |
  Potential matrix:                  0.003     0.003   0.0% |
  Sum over cells:                    0.024     0.024   0.0% |
 LCAO to grid:                     224.367   224.367   0.7% |
 Set positions (LCAO WFS):           2.013     1.757   0.0% |
  Basic WFS set positions:           0.003     0.003   0.0% |
  Basis functions set positions:     0.001     0.001   0.0% |
  P tci:                             0.000     0.000   0.0% |
  ST tci:                            0.093     0.093   0.0% |
  mktci:                             0.159     0.159   0.0% |
PWDescriptor:                        0.081     0.081   0.0% |
SCF-cycle:                       32758.186   110.226   0.3% |
 Davidson:                       31741.462  9818.922  29.7% |-----------|
  Apply H:                         621.359   610.853   1.8% ||
   HMM T:                           10.506    10.506   0.0% |
  Subspace diag:                  3296.286     0.087   0.0% |
   calc_h_matrix:                 1407.020   844.696   2.6% ||
    Apply H:                       562.324   551.611   1.7% ||
     HMM T:                         10.713    10.713   0.0% |
   diagonalize:                    282.827   282.827   0.9% |
   rotate_psi:                    1606.352  1606.352   4.9% |-|
  calc. matrices:                 7745.781  6679.331  20.2% |-------|
   Apply H:                       1066.450  1045.308   3.2% ||
    HMM T:                          21.141    21.141   0.1% |
  diagonalize:                    6859.649  6859.649  20.8% |-------|
  rotate_psi:                     3399.464  3399.464  10.3% |---|
 Density:                          522.903     0.007   0.0% |
  Atomic density matrices:           5.150     5.150   0.0% |
  Mix:                             210.532   210.532   0.6% |
  Multipole moments:                 0.162     0.162   0.0% |
  Pseudo density:                  307.052   307.042   0.9% |
   Symmetrize density:               0.010     0.010   0.0% |
 Hamiltonian:                      367.434     2.933   0.0% |
  Atomic:                           75.581     0.292   0.0% |
   XC Correction:                   75.289    75.289   0.2% |
  Calculate atomic Hamiltonians:   173.355   173.355   0.5% |
  Communicate:                      25.936    25.936   0.1% |
  Poisson:                           8.579     8.579   0.0% |
  XC 3D grid:                       81.050    81.050   0.2% |
 Orthonormalize:                    16.162     0.000   0.0% |
  calc_s_matrix:                     1.904     1.904   0.0% |
  inverse-cholesky:                  0.747     0.747   0.0% |
  projections:                      10.155    10.155   0.0% |
  rotate_psi_s:                      3.356     3.356   0.0% |
Set symmetry:                        0.001     0.001   0.0% |
Other:                               7.419     7.419   0.0% |
-----------------------------------------------------------
Total:                                     33050.388 100.0%

Date: Tue Apr 18 01:31:29 2023
