
  ___ ___ ___ _ _ _  
 |   |   |_  | | | | 
 | | | | | . | | | | 
 |__ |  _|___|_____|  22.8.0
 |___|_|             

User:   c.zeng@d0037
Date:   Mon Apr 17 23:36:34 2023
Arch:   x86_64
Pid:    4207
CWD:    /home/c.zeng/projects/hea-corrosion/hea-mlp/data-curation/surface-md/dft-jobs/90
Python: 3.8.1
gpaw:   /home/c.zeng/usr/installs/gpaw/source/gpaw-22.8.0/gpaw
_gpaw:  /home/c.zeng/usr/installs/gpaw/source/gpaw-22.8.0/
        _gpaw.cpython-38-x86_64-linux-gnu.so
ase:    /home/c.zeng/.local/lib/python3.8/site-packages/ase-3.22.1-py3.8.egg/ase (version 3.22.1)
numpy:  /home/c.zeng/.local/lib/python3.8/site-packages/numpy (version 1.24.2)
scipy:  /home/c.zeng/.local/lib/python3.8/site-packages/scipy (version 1.10.1)
libxc:  4.2.3
units:  Angstrom and eV
cores: 30
OpenMP: False
OMP_NUM_THREADS: 1

Input parameters:
  convergence: {energy: 0.0001}
  kpts: [2 2 1]
  maxiter: 666
  mode: {ecut: 350.0,
         name: pw}
  occupations: {fixmagmom: False,
                name: fermi-dirac,
                width: 0.1}
  poissonsolver: {dipolelayer: xy}
  spinpol: True
  symmetry: {point_group: False}
  xc: PBE

System changes: positions, numbers, cell, pbc, initial_charges, initial_magmoms 

Initialize ...

species:
  Co:
    name: Cobalt
    id: 339d20d5b0b93d2de9531a1bee871d91
    Z: 27.0
    valence: 9
    core: 18
    charge: 0.0
    file: /home/c.zeng/usr/data/gpaw-setups-0.9.20000/Co.PBE.gz
    compensation charges: {type: gauss,
                           rc: 0.32,
                           lmax: 2}
    cutoffs: {filter: 1.87,
              core: 2.55}
    valence states:
      #              energy  rcut
      - 4s(2.00)    -5.469   1.005
      - 4p(0.00)    -1.277   1.058
      - 3d(7.00)    -8.205   1.005
      -  s          21.742   1.005
      -  p          25.934   1.058
      -  d          19.007   1.005
  
    # Using partial waves for Co as LCAO basis

  Fe:
    name: Iron
    id: 37abbd8d6c3c35915a9b583b742da910
    Z: 26.0
    valence: 8
    core: 18
    charge: 0.0
    file: /home/c.zeng/usr/data/gpaw-setups-0.9.20000/Fe.PBE.gz
    compensation charges: {type: gauss,
                           rc: 0.33,
                           lmax: 2}
    cutoffs: {filter: 2.06,
              core: 2.67}
    valence states:
      #              energy  rcut
      - 4s(2.00)    -5.291   1.164
      - 4p(0.00)    -1.326   1.058
      - 3d(6.00)    -7.505   1.058
      -  s          21.920   1.164
      -  p          25.885   1.058
      -  d          19.706   1.058
  
    # Using partial waves for Fe as LCAO basis

  Al:
    name: Aluminium
    id: 0292cae29f5d6237e50f6abdd43a7bdd
    Z: 13.0
    valence: 3
    core: 10
    charge: 0.0
    file: /home/c.zeng/usr/data/gpaw-setups-0.9.20000/Al.PBE.gz
    compensation charges: {type: gauss,
                           rc: 0.34,
                           lmax: 2}
    cutoffs: {filter: 1.91,
              core: 2.36}
    valence states:
      #              energy  rcut
      - 3s(2.00)    -7.753   1.085
      - 3p(1.00)    -2.712   1.085
      -  s          19.459   1.085
      -  p          24.499   1.085
      -  d           0.000   1.085
  
    # Using partial waves for Al as LCAO basis

  Cr:
    name: Chromium
    id: 33f258bda2ca9f93018e70263a35547b
    Z: 24.0
    valence: 6
    core: 18
    charge: 0.0
    file: /home/c.zeng/usr/data/gpaw-setups-0.9.20000/Cr.PBE.gz
    compensation charges: {type: gauss,
                           rc: 0.35,
                           lmax: 2}
    cutoffs: {filter: 2.14,
              core: 3.04}
    valence states:
      #              energy  rcut
      - 4s(1.00)    -4.007   1.164
      - 4p(0.00)    -0.989   1.217
      - 3d(5.00)    -2.913   1.111
      -  s          23.205   1.164
      -  p          26.223   1.217
      -  d          24.299   1.111
  
    # Using partial waves for Cr as LCAO basis

  Ni:
    name: Nickel
    id: 0d9f38a9d6e76a2886f07bb4381f212b
    Z: 28.0
    valence: 16
    core: 12
    charge: 0.0
    file: /home/c.zeng/usr/data/gpaw-setups-0.9.20000/Ni.PBE.gz
    compensation charges: {type: gauss,
                           rc: 0.36,
                           lmax: 2}
    cutoffs: {filter: 2.14,
              core: 1.98}
    valence states:
      #              energy  rcut
      - 4s(2.00)    -5.642   1.164
      - 3p(6.00)   -71.394   1.207
      - 4p(0.00)    -1.226   1.207
      - 3d(8.00)    -8.875   1.138
      -  s          21.570   1.164
      -  d          18.337   1.138
  
    # Using partial waves for Ni as LCAO basis

Reference energy: -3726899.091688  # eV

Spin-polarized calculation.
Magnetic moment: 140.000000

Convergence criteria:
 Maximum [total energy] change in last 3 cyles: 0.0001 eV / electron
 Maximum integral of absolute [dens]ity change: 0.0001 electrons / valence electron
 Maximum integral of absolute [eigenst]ate change: 4e-08 eV^2 / valence electron
 Maximum number of scf [iter]ations: 666
 (Square brackets indicate name in SCF output, whereas a 'c' in
 the SCF output indicates the quantity has converged.)

Symmetries present (total): 1

  ( 1  0  0)
  ( 0  1  0)
  ( 0  0  1)

4 k-points: 2 x 2 x 1 Monkhorst-Pack grid
2 k-points in the irreducible part of the Brillouin zone
       k-points in crystal coordinates                weights
   0:     0.25000000   -0.25000000    0.00000000          2/4
   1:     0.25000000    0.25000000    0.00000000          2/4

Wave functions: Plane wave expansion
  Cutoff energy: 350.000 eV
  Number of coefficients (min, max): 60935, 60955
  Pulay-stress correction: 0.000000 eV/Ang^3 (de/decut=0.000000)
  Using FFTW library
  ScaLapack parameters: grid=1x1, blocksize=None
  Wavefunction extrapolation:
    Improved wavefunction reuse through dual PAW basis 

Occupation numbers: Fermi-Dirac:
  width: 0.1000  # eV
 

Eigensolver
   Davidson(niter=2) 

Densities:
  Coarse grid: 56*56*128 grid
  Fine grid: 112*112*256 grid
  Total Charge: 0.000000 

Density mixing:
  Method: difference
  Backend: pulay
  Linear mixing parameter: 0.05
  old densities: 5
  Damping of long wavelength oscillations: 50 

Hamiltonian:
  XC and Coulomb potentials evaluated on a 112*112*256 grid
  Using the PBE Exchange-Correlation functional
  External potential:
    NoExternalPotential
 

XC parameters: PBE with 2 nearest neighbor stencil

Memory estimate:
  Process memory now: 377.77 MiB
  Calculator: 2131.41 MiB
    Density: 19.02 MiB
      Arrays: 7.39 MiB
      Localized functions: 8.68 MiB
      Mixer: 2.95 MiB
    Hamiltonian: 5.75 MiB
      Arrays: 5.49 MiB
      XC: 0.00 MiB
      Poisson: 0.00 MiB
      vbar: 0.26 MiB
    Wavefunctions: 2106.64 MiB
      Arrays psit_nG: 1335.62 MiB
      Eigensolver: 751.15 MiB
      Projections: 3.10 MiB
      Projectors: 1.18 MiB
      PW-descriptor: 15.59 MiB

Total number of cores used: 30
Parallelization over k-points: 2
Domain decomposition: 1 x 3 x 5

Number of atoms: 125
Number of atomic orbitals: 1075
Number of bands in calculation: 718
Number of valence electrons: 1050
Bands to converge: occupied

... initialized

Initializing position-dependent things.

Density initialized from atomic densities
Creating initial wave functions:
  718 bands from LCAO basis set

                                                                     
                                                                     
                                                                     
                                                                     
                                                                     
                                                                     
                                     Cr                              
                      Fe                    Cr                       
                                  Al               Al     Al         
                          Fe    CoAl    Ni  Ni  CrAl                 
                       Al    Ni       Fe  Ni  FeNi     Co            
                              Fe  Al        Al   Cr Cr               
                    Ni     Cr   Cr   Fe  FeCo   Ni                   
                Cr   Cr  CoAle      Ali        Co                    
                   Fe           Co      Co Al                        
                  Fe    Fe            Fe Al     Fe                   
               Co Cr Cr Co Fer     Cr                                
                    Ni        Co   Ni    Ni Al Al                    
                        FeCo Ni Co   NCr                 Al          
                 Cr Cr   Cr    Fe  Ni     Fe CrNi                    
         Co               NiNii CoAlCr Cr Cr   Al   Ni               
                NieFe CoAl   Alo  Co                                 
         Cr  AlCo       Fe     Cro    Al    Fe                       
                  Al  NiCo Co     Co                                 
          Cr      Fe   Fe    Co                                      
          Fe    Al                   Al                              
                 Co           Co                                     
                                                                     
                                                                     
                                                                     
                                                                     
                                                                     
                                                                     

Positions:
   0 Co    10.111740    0.223953    9.897031    ( 0.0000,  0.0000,  2.1000)
   1 Fe     1.916661    0.710013    9.894636    ( 0.0000,  0.0000,  2.0000)
   2 Co     4.740584    0.435888    9.590686    ( 0.0000,  0.0000,  2.1000)
   3 Fe     7.350795    0.315774   10.960709    ( 0.0000,  0.0000,  2.0000)
   4 Co     9.943754   -0.986466   12.180840    ( 0.0000,  0.0000,  2.1000)
   5 Fe     9.576578    2.797734    8.611364    ( 0.0000,  0.0000,  2.0000)
   6 Co     3.586505    1.714363   11.711519    ( 0.0000,  0.0000,  2.1000)
   7 Al     3.969260    2.758809    9.251628    ( 0.0000,  0.0000,  0.0000)
   8 Co     8.417665    2.351473   10.786068    ( 0.0000,  0.0000,  2.1000)
   9 Co    11.306175    2.055474   11.501149    ( 0.0000,  0.0000,  2.1000)
  10 Fe    13.595636    6.251207   11.877787    ( 0.0000,  0.0000,  2.0000)
  11 Fe     3.896368    5.389106    8.793586    ( 0.0000,  0.0000,  2.0000)
  12 Co     6.793662    4.523480   10.035518    ( 0.0000,  0.0000,  2.1000)
  13 Co     9.632978    4.768958   10.414281    ( 0.0000,  0.0000,  2.1000)
  14 Al    12.147880    4.358175   10.453887    ( 0.0000,  0.0000,  0.0000)
  15 Fe    13.927758    7.089095    9.240527    ( 0.0000,  0.0000,  2.0000)
  16 Al     5.860320    6.903368   10.120351    ( 0.0000,  0.0000,  0.0000)
  17 Co     8.376964    6.826181   10.138692    ( 0.0000,  0.0000,  2.1000)
  18 Cr    10.913608    6.829811   11.230271    ( 0.0000,  0.0000,  0.0000)
  19 Ni    14.843406    8.613639   10.949317    ( 0.0000,  0.0000,  1.5000)
  20 Ni    17.045401    8.938335    9.867130    ( 0.0000,  0.0000,  1.5000)
  21 Ni     7.553760    9.121481    9.984665    ( 0.0000,  0.0000,  1.5000)
  22 Cr    12.767374    9.172613   10.296530    ( 0.0000,  0.0000,  0.0000)
  23 Al    14.278017   10.758680    8.694954    ( 0.0000,  0.0000,  0.0000)
  24 Al    13.195240   13.336969    8.593984    ( 0.0000,  0.0000,  0.0000)
  25 Al    18.522684   10.645079   11.107012    ( 0.0000,  0.0000,  0.0000)
  26 Al     9.778414    8.773090   10.147790    ( 0.0000,  0.0000,  0.0000)
  27 Al     5.311702   -0.363026   11.975925    ( 0.0000,  0.0000,  0.0000)
  28 Fe     8.004115   -0.750272   13.257569    ( 0.0000,  0.0000,  2.0000)
  29 Cr    10.914380   -1.512024   14.144320    ( 0.0000,  0.0000,  0.0000)
  30 Al    12.484133    1.646035    9.437655    ( 0.0000,  0.0000,  0.0000)
  31 Ni     4.198294    0.499813   13.919217    ( 0.0000,  0.0000,  1.5000)
  32 Ni     6.218489    2.358845   11.119326    ( 0.0000,  0.0000,  1.5000)
  33 Al     9.207794    1.648352   13.004385    ( 0.0000,  0.0000,  0.0000)
  34 Co    11.558235    0.950758   13.624382    ( 0.0000,  0.0000,  2.1000)
  35 Al     2.204647    3.851032   11.107615    ( 0.0000,  0.0000,  0.0000)
  36 Fe     4.755492    4.403197   11.160026    ( 0.0000,  0.0000,  2.0000)
  37 Ni     7.832029    3.577038   12.786852    ( 0.0000,  0.0000,  1.5000)
  38 Co    10.089280    3.933702   12.556391    ( 0.0000,  0.0000,  2.1000)
  39 Cr    12.917776    3.476033   12.904069    ( 0.0000,  0.0000,  0.0000)
  40 Fe     3.315180    6.573163   10.670818    ( 0.0000,  0.0000,  2.0000)
  41 Cr     6.730369    5.460878   12.350029    ( 0.0000,  0.0000,  0.0000)
  42 Fe     8.996412    6.010549   12.574895    ( 0.0000,  0.0000,  2.0000)
  43 Ni    11.830959    5.525181   13.613800    ( 0.0000,  0.0000,  1.5000)
  44 Cr    15.579044    2.569736   13.952715    ( 0.0000,  0.0000,  0.0000)
  45 Fe     5.554535    7.897481   12.201668    ( 0.0000,  0.0000,  2.0000)
  46 Ni     7.800986    8.087063   12.212622    ( 0.0000,  0.0000,  1.5000)
  47 Ni    10.012266    8.504337   12.879412    ( 0.0000,  0.0000,  1.5000)
  48 Ni    12.674552    8.311132   12.529146    ( 0.0000,  0.0000,  1.5000)
  49 Al    15.195676    7.737108   13.192838    ( 0.0000,  0.0000,  0.0000)
  50 Co     1.558761    0.510248   14.670075    ( 0.0000,  0.0000,  2.1000)
  51 Cr     2.293045   -0.530364   11.925323    ( 0.0000,  0.0000,  0.0000)
  52 Co     6.578486    1.275819   13.367244    ( 0.0000,  0.0000,  2.1000)
  53 Ni     9.281696    0.437091   14.766250    ( 0.0000,  0.0000,  1.5000)
  54 Ni    12.250352   -0.180415   15.624962    ( 0.0000,  0.0000,  1.5000)
  55 Cr     1.288010    1.388991   12.491046    ( 0.0000,  0.0000,  0.0000)
  56 Cr     5.400817    3.225705   13.440844    ( 0.0000,  0.0000,  0.0000)
  57 Co     7.709458    2.651567   15.007343    ( 0.0000,  0.0000,  2.1000)
  58 Co    10.077353    3.019179   14.870268    ( 0.0000,  0.0000,  2.1000)
  59 Cr    13.019620    2.435056   14.920418    ( 0.0000,  0.0000,  0.0000)
  60 Cr     3.552465    5.128244   13.042780    ( 0.0000,  0.0000,  0.0000)
  61 Co     6.346359    4.785003   15.124773    ( 0.0000,  0.0000,  2.1000)
  62 Co     8.749290    5.042488   14.556266    ( 0.0000,  0.0000,  2.1000)
  63 Ni    11.306272    6.474294   16.618445    ( 0.0000,  0.0000,  1.5000)
  64 Al    14.630708    4.658879   15.074079    ( 0.0000,  0.0000,  0.0000)
  65 Cr     4.714685    6.776528   14.214730    ( 0.0000,  0.0000,  0.0000)
  66 Fe     7.306993    6.871163   14.202253    ( 0.0000,  0.0000,  2.0000)
  67 Cr    10.246615    7.108388   14.550172    ( 0.0000,  0.0000,  0.0000)
  68 Al    12.942603    7.146562   14.821918    ( 0.0000,  0.0000,  0.0000)
  69 Fe    15.667920    6.695688   15.552816    ( 0.0000,  0.0000,  2.0000)
  70 Cr     6.788153    9.825545   13.035150    ( 0.0000,  0.0000,  0.0000)
  71 Ni     8.584682    8.803800   14.744727    ( 0.0000,  0.0000,  1.5000)
  72 Co    11.788533    9.608074   14.400022    ( 0.0000,  0.0000,  2.1000)
  73 Co    14.950136    9.038836   15.365658    ( 0.0000,  0.0000,  2.1000)
  74 Cr    15.715147    8.163884   17.564693    ( 0.0000,  0.0000,  0.0000)
  75 Al    12.158070    2.647868   18.919161    ( 0.0000,  0.0000,  0.0000)
  76 Co     3.283187    2.451353   16.494664    ( 0.0000,  0.0000,  2.1000)
  77 Ni     5.383728    2.397110   15.563415    ( 0.0000,  0.0000,  1.5000)
  78 Fe     6.952866    2.930118   17.385178    ( 0.0000,  0.0000,  2.0000)
  79 Fe    12.361730    4.496292   16.003998    ( 0.0000,  0.0000,  2.0000)
  80 Al    14.264739    4.142952   17.720652    ( 0.0000,  0.0000,  0.0000)
  81 Cr     4.097061    4.642279   15.535212    ( 0.0000,  0.0000,  0.0000)
  82 Cr     7.703936    4.831220   18.435348    ( 0.0000,  0.0000,  0.0000)
  83 Co     9.915945    3.985289   17.152746    ( 0.0000,  0.0000,  2.1000)
  84 Fe    11.744365    5.093274   18.487178    ( 0.0000,  0.0000,  2.0000)
  85 Ni    15.898401    5.739399   17.892041    ( 0.0000,  0.0000,  1.5000)
  86 Cr     5.077598    6.400712   16.848329    ( 0.0000,  0.0000,  0.0000)
  87 Fe     7.487220    6.898396   16.651710    ( 0.0000,  0.0000,  2.0000)
  88 Ni     9.601559    6.174483   18.316880    ( 0.0000,  0.0000,  1.5000)
  89 Co    13.721530    6.611670   17.371252    ( 0.0000,  0.0000,  2.1000)
  90 Co    18.156266    8.636430   18.144158    ( 0.0000,  0.0000,  2.1000)
  91 Co     6.010815    8.516237   15.791099    ( 0.0000,  0.0000,  2.1000)
  92 Fe     7.751806    9.977730   16.826489    ( 0.0000,  0.0000,  2.0000)
  93 Al     9.595155    8.462545   17.319882    ( 0.0000,  0.0000,  0.0000)
  94 Ni    13.536630    8.765354   19.098307    ( 0.0000,  0.0000,  1.5000)
  95 Cr    16.480818   10.152386   16.847550    ( 0.0000,  0.0000,  0.0000)
  96 Co     7.572110   12.672955   16.992463    ( 0.0000,  0.0000,  2.1000)
  97 Ni    10.408418   10.526489   16.148587    ( 0.0000,  0.0000,  1.5000)
  98 Al    13.130324   11.443359   15.733004    ( 0.0000,  0.0000,  0.0000)
  99 Al    15.252371   12.638394   16.864129    ( 0.0000,  0.0000,  0.0000)
 100 Cr     8.974971   11.386589   18.376696    ( 0.0000,  0.0000,  0.0000)
 101 Cr     9.654305   13.579013   18.947741    ( 0.0000,  0.0000,  0.0000)
 102 Fe     5.018203    1.254177   17.710202    ( 0.0000,  0.0000,  2.0000)
 103 Cr    13.090092   11.240122   19.435142    ( 0.0000,  0.0000,  0.0000)
 104 Al    16.307038    9.922973   19.435507    ( 0.0000,  0.0000,  0.0000)
 105 Cr     4.353018    0.576575   20.083937    ( 0.0000,  0.0000,  0.0000)
 106 Fe     4.859761    4.034965   17.753368    ( 0.0000,  0.0000,  2.0000)
 107 Ni     5.487329    2.706446   19.548798    ( 0.0000,  0.0000,  1.5000)
 108 Al     8.188209    2.356359   19.450348    ( 0.0000,  0.0000,  0.0000)
 109 Cr    10.120024    3.656438   19.597235    ( 0.0000,  0.0000,  0.0000)
 110 Ni    16.447851    4.745188   19.999248    ( 0.0000,  0.0000,  1.5000)
 111 Al     5.894314    6.155249   19.307304    ( 0.0000,  0.0000,  0.0000)
 112 Fe     7.317919    4.432944   20.987827    ( 0.0000,  0.0000,  2.0000)
 113 Al    10.465684    5.804688   20.793915    ( 0.0000,  0.0000,  0.0000)
 114 Ni    13.793964    5.588190   19.623833    ( 0.0000,  0.0000,  1.5000)
 115 Al    18.874450   10.785151   18.904817    ( 0.0000,  0.0000,  0.0000)
 116 Ni     7.676329    8.046595   18.660116    ( 0.0000,  0.0000,  1.5000)
 117 Al     9.679781    8.936695   19.958542    ( 0.0000,  0.0000,  0.0000)
 118 Fe    11.787231    7.322876   19.001828    ( 0.0000,  0.0000,  2.0000)
 119 Cr    15.713191    7.636956   19.778867    ( 0.0000,  0.0000,  0.0000)
 120 Fe     3.951255   12.165300   18.797113    ( 0.0000,  0.0000,  2.0000)
 121 Ni     5.106437   13.036550   16.700578    ( 0.0000,  0.0000,  1.5000)
 122 Ni    11.632421    9.784626   18.451221    ( 0.0000,  0.0000,  1.5000)
 123 Fe    12.523387    8.882559   16.565977    ( 0.0000,  0.0000,  2.0000)
 124 Fe    14.238963   10.412559   17.557083    ( 0.0000,  0.0000,  2.0000)

Unit cell:
           periodic     x           y           z      points  spacing
  1. axis:    yes   12.688900    0.000000    0.000000    56     0.1962
  2. axis:    yes    6.352870   11.003500    0.000000    56     0.1965
  3. axis:    no     0.000000    0.000000   29.353100   128     0.2293

  Lengths:  12.688900  12.705746  29.353100
  Angles:   90.000000  90.000000  60.000014

Effective grid spacing dv^(1/3) = 0.2169

     iter     time        total  log10-change:  magmom
                         energy  eigst   dens
iter:   1 23:42:23 -1083.344650                  +140.3333
iter:   2 23:44:21 -1002.933376  +0.02  -1.07    +72.7274
iter:   3 23:46:19 -2282.042951  +0.82  -1.02    +67.9230
iter:   4 23:48:17 -1004.746992  +0.49  -0.61    +55.7828
iter:   5 23:50:16  -950.560112  +0.15  -1.05    +44.4392
iter:   6 23:52:14  -982.844923  -0.26  -1.14    +47.6281
iter:   7 23:54:12  -913.814217  -1.09  -1.07    +49.5155
iter:   8 23:56:10  -912.638729  -1.41  -1.22    +52.6534
iter:   9 23:58:08 -1218.091573  -0.53  -1.22    +55.7074
iter:  10 00:00:07  -923.972493  -0.59  -0.92    +53.9463
iter:  11 00:02:05  -908.875263  -0.42  -1.18    +56.1715
iter:  12 00:04:03  -892.862200  -0.82  -1.23    +61.5423
iter:  13 00:06:01  -878.642607  -1.32  -1.33    +60.5854
iter:  14 00:07:59  -874.456871  -1.80  -1.39    +60.7474
iter:  15 00:09:58  -925.408955  -1.14  -1.40    +64.7512
iter:  16 00:11:56  -881.319149  -1.37  -1.24    +64.1626
iter:  17 00:13:54  -872.994359  -1.53  -1.39    +66.9761
iter:  18 00:15:52  -864.626810  -1.76  -1.47    +67.1593
iter:  19 00:17:51  -862.627281  -1.88  -1.60    +66.6992
iter:  20 00:19:49  -860.721655  -1.95  -1.69    +67.4389
iter:  21 00:21:47  -860.601488  -1.98  -1.71    +67.1293
iter:  22 00:23:45  -861.612534  -2.29  -1.76    +67.6668
iter:  23 00:25:43  -862.947481  -2.20  -1.75    +70.5217
iter:  24 00:27:42  -860.918540  -2.62  -1.73    +70.0601
iter:  25 00:29:40  -860.678189  -2.55  -1.85    +68.1187
iter:  26 00:31:38  -864.174927  -2.53  -1.93    +69.5193
iter:  27 00:33:36  -861.767900  -3.02  -1.79    +68.4573
iter:  28 00:35:34  -862.993185  -2.31  -1.90    +68.1368
iter:  29 00:37:33  -864.446412  -2.55  -1.86    +68.2424
iter:  30 00:39:31  -861.670208  -2.95  -1.81    +67.4272
iter:  31 00:41:29  -862.610354  -2.73  -2.00    +67.6044
iter:  32 00:43:27  -862.191609  -2.59  -1.97    +67.4293
iter:  33 00:45:25  -867.480811  -2.51  -2.09    +67.8718
iter:  34 00:47:24  -861.663168  -2.63  -1.75    +67.9975
iter:  35 00:49:22  -861.889959  -2.84  -2.29    +67.3661
iter:  36 00:51:20  -862.376419  -3.09  -2.24    +68.5292
iter:  37 00:53:18  -862.367512  -3.42  -2.19    +68.8281
iter:  38 00:55:16  -862.393989c -3.47  -2.23    +69.4096
iter:  39 00:57:15  -865.491529  -2.67  -2.28    +69.7485
iter:  40 00:59:13  -862.696904  -2.94  -1.93    +69.7717
iter:  41 01:01:11  -862.626594  -3.58  -2.24    +69.8216
iter:  42 01:03:10  -862.561896  -3.73  -2.32    +69.7504
iter:  43 01:05:08  -862.754552  -3.95  -2.40    +69.8859
iter:  44 01:07:06  -863.017048  -3.76  -2.33    +69.9288
iter:  45 01:09:05  -863.838018  -2.92  -2.27    +69.9144
iter:  46 01:11:03  -863.187918  -3.05  -2.15    +70.0602
iter:  47 01:13:01  -863.133739  -3.60  -2.24    +70.2178
iter:  48 01:14:59  -862.694038  -3.43  -2.28    +69.9764
iter:  49 01:16:58  -863.149242  -3.34  -2.63    +70.0193
iter:  50 01:18:56  -862.823373  -3.49  -2.35    +69.7735
iter:  51 01:20:54  -862.837241  -3.61  -2.59    +69.7169
iter:  52 01:22:52  -862.834433c -3.77  -2.64    +70.0769
iter:  53 01:24:51  -863.106602  -3.69  -2.79    +70.0407
iter:  54 01:26:49  -862.837990  -4.36  -2.51    +69.8470
iter:  55 01:28:47  -862.896042  -3.94  -2.83    +69.6357
iter:  56 01:30:45  -862.849130c -4.29  -2.61    +69.5230
iter:  57 01:32:44  -862.861447c -4.61  -2.85    +69.4705
iter:  58 01:34:42  -862.890984c -4.36  -2.82    +69.4564
iter:  59 01:36:41  -862.903929c -4.81  -2.87    +69.5317
iter:  60 01:38:39  -862.941340c -4.02  -2.82    +69.1265
iter:  61 01:40:37  -863.019177  -3.70  -2.82    +68.6532
iter:  62 01:42:35  -863.126623  -3.58  -2.70    +68.2042
iter:  63 01:44:33  -863.327416  -4.06  -2.60    +68.5064
iter:  64 01:46:32  -863.166989  -3.89  -2.37    +68.1010
iter:  65 01:48:30  -863.256978  -4.17  -2.63    +68.1133
iter:  66 01:50:29  -863.188500c -3.95  -2.57    +68.0388
iter:  67 01:52:27  -864.271378  -3.08  -2.57    +68.0314
iter:  68 01:54:25  -863.645476  -3.24  -2.16    +68.0290
iter:  69 01:56:23  -865.756809  -2.65  -2.32    +68.1601
iter:  70 01:58:22  -863.180966  -3.04  -1.95    +67.7986
iter:  71 02:00:20  -863.294065  -3.52  -2.61    +67.7342
iter:  72 02:02:18  -863.107858  -3.94  -2.52    +67.9201
iter:  73 02:04:16  -863.123337  -4.23  -2.80    +67.7965
iter:  74 02:06:14  -863.140182c -4.30  -2.80    +67.7554
iter:  75 02:08:12  -863.188059c -4.08  -2.76    +67.6539
iter:  76 02:10:09  -863.152928c -4.16  -2.60    +67.4682
iter:  77 02:12:07  -863.251020c -4.30  -2.76    +67.4135
iter:  78 02:14:04  -863.142962  -4.33  -2.60    +67.4913
iter:  79 02:16:01  -863.173338  -4.17  -2.87    +67.4870
iter:  80 02:17:58  -863.136018c -4.17  -2.75    +67.4221
iter:  81 02:19:56  -863.112357c -4.31  -2.89    +67.3737
iter:  82 02:21:53  -863.163540c -4.57  -3.14    +67.2645
iter:  83 02:23:50  -863.167763c -4.17  -2.81    +67.2149
iter:  84 02:25:48  -863.124685c -4.57  -2.76    +67.2160
iter:  85 02:27:45  -863.123083c -4.96  -3.15    +67.1297
iter:  86 02:29:43  -863.126496c -5.31  -3.18    +67.0466
iter:  87 02:31:40  -863.122010c -5.20  -3.19    +66.9412
iter:  88 02:33:38  -863.123855c -5.41  -3.37    +66.8930
iter:  89 02:35:35  -863.134509c -5.21  -3.41    +66.7935
iter:  90 02:37:33  -863.127979c -4.98  -3.21    +66.7329
iter:  91 02:39:30  -863.129304c -5.41  -3.42    +66.7099
iter:  92 02:41:27  -863.131518c -5.17  -3.55    +66.5979
iter:  93 02:43:25  -863.132953c -5.64  -3.53    +66.5664
iter:  94 02:45:22  -863.136348c -5.12  -3.58    +66.4531
iter:  95 02:47:19  -863.156535c -5.08  -3.50    +66.4171
iter:  96 02:49:17  -863.140569c -5.12  -3.10    +66.3941
iter:  97 02:51:14  -863.142670c -5.50  -3.33    +66.3465
iter:  98 02:53:12  -863.147385c -5.26  -3.40    +66.2161
iter:  99 02:55:09  -863.144435c -5.66  -3.27    +66.2934
iter: 100 02:57:07  -863.149815c -5.15  -3.34    +66.1085
iter: 101 02:59:04  -863.206081c -4.44  -3.26    +65.9715
iter: 102 03:01:01  -863.165319c -4.63  -2.81    +66.0192
iter: 103 03:02:59  -863.159906c -5.08  -3.01    +65.9538
iter: 104 03:04:56  -863.169875c -4.81  -3.12    +65.8294
iter: 105 03:06:54  -863.163776c -4.64  -3.00    +65.8311
iter: 106 03:08:51  -863.191078c -4.17  -3.05    +65.7534
iter: 107 03:10:48  -863.456645  -3.80  -2.85    +65.7507
iter: 108 03:12:46  -863.198993  -3.95  -2.45    +65.7370
iter: 109 03:14:43  -863.151469  -4.76  -2.79    +65.6731
iter: 110 03:16:41  -863.158009c -4.90  -3.28    +65.6261
iter: 111 03:18:38  -863.168193c -4.72  -3.09    +65.6247
iter: 112 03:20:36  -863.153682c -5.06  -2.97    +65.5815
iter: 113 03:22:33  -863.160445c -4.73  -3.24    +65.5799
iter: 114 03:24:31  -863.168125c -4.67  -3.18    +65.5916
iter: 115 03:26:28  -863.158111c -4.74  -3.14    +65.7412
iter: 116 03:28:26  -863.155359c -5.65  -3.17    +65.6758
iter: 117 03:30:23  -863.155755c -5.54  -3.31    +65.6410
iter: 118 03:32:20  -863.156167c -5.70  -3.43    +65.6393
iter: 119 03:34:18  -863.158745c -5.23  -3.25    +65.6251
iter: 120 03:36:15  -863.156841c -5.44  -3.43    +65.6327
iter: 121 03:38:12  -863.166558c -5.06  -3.27    +65.6284
iter: 122 03:40:09  -863.153588c -5.42  -3.25    +65.6239
iter: 123 03:42:06  -863.154112c -5.81  -3.67    +65.6293
iter: 124 03:44:04  -863.159987c -5.61  -3.72    +65.6487
iter: 125 03:46:01  -863.155510c -6.15  -3.55    +65.6466
iter: 126 03:47:58  -863.157428c -6.13  -3.98    +65.6698
iter: 127 03:49:56  -863.155662c -6.26  -3.76    +65.6456
iter: 128 03:51:53  -863.153135c -5.15  -3.98    +65.6032
iter: 129 03:53:51  -863.153346c -5.75  -3.73    +65.6259
iter: 130 03:55:48  -863.154035c -5.51  -3.66    +65.6698
iter: 131 03:57:46  -863.154498c -5.94  -3.54    +65.6714
iter: 132 03:59:43  -863.156149c -6.06  -3.40    +65.6709
iter: 133 04:01:41  -863.154717c -5.80  -3.53    +65.6681
iter: 134 04:03:39  -863.156150c -5.96  -3.46    +65.7029
iter: 135 04:05:36  -863.171781c -4.53  -3.54    +65.7278
iter: 136 04:07:34  -863.155505c -4.78  -3.15    +65.7214
iter: 137 04:09:31  -863.159526c -5.17  -3.39    +65.6885
iter: 138 04:11:29  -863.160077c -5.21  -3.17    +65.6711
iter: 139 04:13:27  -863.156075c -5.68  -3.46    +65.7015
iter: 140 04:15:25  -863.158748c -5.48  -3.91    +65.7169
iter: 141 04:17:22  -863.161221c -5.64  -3.72    +65.7514
iter: 142 04:19:20  -863.159912c -6.55  -3.59    +65.7473
iter: 143 04:21:18  -863.161087c -5.78  -3.66    +65.7539
iter: 144 04:23:16  -863.168963c -5.79  -3.56    +65.7750
iter: 145 04:25:14  -863.164485c -5.77  -3.33    +65.7416
iter: 146 04:27:11  -863.164429c -5.11  -3.50    +65.7326
iter: 147 04:29:09  -863.166454c -5.51  -3.37    +65.7346
iter: 148 04:31:07  -863.174408c -5.35  -3.40    +65.7421
iter: 149 04:33:05  -863.169245c -4.97  -3.22    +65.7535
iter: 150 04:35:03  -863.204615c -4.76  -3.01    +65.7357
iter: 151 04:37:01  -863.212422c -4.32  -2.99    +65.7353
iter: 152 04:38:59  -863.173138c -4.40  -2.85    +65.9287
iter: 153 04:40:57  -863.203297c -4.42  -3.12    +65.8556
iter: 154 04:42:54  -863.175425c -4.69  -2.91    +65.8918
iter: 155 04:44:52  -864.157293  -3.40  -3.06    +65.9219
iter: 156 04:46:50  -863.175992  -3.70  -2.17    +65.8806
iter: 157 04:48:48  -863.169600  -4.63  -3.10    +65.8996
iter: 158 04:50:46  -863.163950c -5.09  -3.16    +65.9365
iter: 159 04:52:44  -863.164239c -5.36  -3.35    +65.8938
iter: 160 04:54:41  -863.160554c -5.15  -3.35    +65.8501
iter: 161 04:56:39  -863.205376c -4.45  -3.46    +65.8342
iter: 162 04:58:37  -863.165082c -4.69  -2.77    +65.7912
iter: 163 05:00:35  -863.160536c -5.29  -3.30    +65.7552
iter: 164 05:02:33  -863.157552c -5.91  -3.37    +65.7611
iter: 165 05:04:30  -863.158356c -6.06  -3.63    +65.7361
iter: 166 05:06:28  -863.156749c -6.28  -3.61    +65.7286
iter: 167 05:08:26  -863.155500c -5.85  -3.87    +65.7131
iter: 168 05:10:24  -863.157258c -6.27  -3.85    +65.7060
iter: 169 05:12:22  -863.157509c -6.33  -3.90    +65.7130
iter: 170 05:14:19  -863.156094c -6.42  -3.95    +65.7000
iter: 171 05:16:17  -863.155931c -6.52  -4.13c   +65.7095
iter: 172 05:18:16  -863.156801c -6.18  -4.00c   +65.6800
iter: 173 05:20:14  -863.156928c -6.38  -4.15c   +65.6767
iter: 174 05:22:12  -863.156870c -6.75  -4.08c   +65.6770
iter: 175 05:24:10  -863.156896c -7.47c -4.05c   +65.6773

Converged after 175 iterations.

Dipole moment: (-22.276333, -27.722386, 0.123689) |e|*Ang

Total magnetic moment: (0.000000, 0.000000, 65.677304)
Local magnetic moments:
   0 Co ( 0.000000,  0.000000,  1.579821)
   1 Fe ( 0.000000,  0.000000,  2.556185)
   2 Co ( 0.000000,  0.000000,  1.537117)
   3 Fe ( 0.000000,  0.000000,  2.188369)
   4 Co ( 0.000000,  0.000000,  1.217971)
   5 Fe ( 0.000000,  0.000000,  3.137354)
   6 Co ( 0.000000,  0.000000,  0.923305)
   7 Al ( 0.000000,  0.000000, -0.050839)
   8 Co ( 0.000000,  0.000000,  1.557329)
   9 Co ( 0.000000,  0.000000,  1.218773)
  10 Fe ( 0.000000,  0.000000,  2.633063)
  11 Fe ( 0.000000,  0.000000,  2.957595)
  12 Co ( 0.000000,  0.000000,  1.524900)
  13 Co ( 0.000000,  0.000000,  1.603924)
  14 Al ( 0.000000,  0.000000, -0.018998)
  15 Fe ( 0.000000,  0.000000,  3.094217)
  16 Al ( 0.000000,  0.000000, -0.051897)
  17 Co ( 0.000000,  0.000000,  1.437401)
  18 Cr ( 0.000000,  0.000000, -2.943175)
  19 Ni ( 0.000000,  0.000000,  0.240785)
  20 Ni ( 0.000000,  0.000000,  0.544029)
  21 Ni ( 0.000000,  0.000000,  0.179258)
  22 Cr ( 0.000000,  0.000000, -2.746900)
  23 Al ( 0.000000,  0.000000,  0.013452)
  24 Al ( 0.000000,  0.000000, -0.030662)
  25 Al ( 0.000000,  0.000000, -0.018155)
  26 Al ( 0.000000,  0.000000,  0.004996)
  27 Al ( 0.000000,  0.000000, -0.023508)
  28 Fe ( 0.000000,  0.000000,  2.670306)
  29 Cr ( 0.000000,  0.000000, -1.781097)
  30 Al ( 0.000000,  0.000000, -0.049690)
  31 Ni ( 0.000000,  0.000000,  0.357925)
  32 Ni ( 0.000000,  0.000000,  0.485760)
  33 Al ( 0.000000,  0.000000, -0.043372)
  34 Co ( 0.000000,  0.000000,  1.263008)
  35 Al ( 0.000000,  0.000000, -0.025330)
  36 Fe ( 0.000000,  0.000000,  2.053665)
  37 Ni ( 0.000000,  0.000000,  0.137254)
  38 Co ( 0.000000,  0.000000,  1.619764)
  39 Cr ( 0.000000,  0.000000,  1.664647)
  40 Fe ( 0.000000,  0.000000,  2.482921)
  41 Cr ( 0.000000,  0.000000, -2.148904)
  42 Fe ( 0.000000,  0.000000,  2.281986)
  43 Ni ( 0.000000,  0.000000,  0.177875)
  44 Cr ( 0.000000,  0.000000,  1.860239)
  45 Fe ( 0.000000,  0.000000,  1.951940)
  46 Ni ( 0.000000,  0.000000,  0.389764)
  47 Ni ( 0.000000,  0.000000, -0.050121)
  48 Ni ( 0.000000,  0.000000,  0.171314)
  49 Al ( 0.000000,  0.000000, -0.016060)
  50 Co ( 0.000000,  0.000000,  1.042478)
  51 Cr ( 0.000000,  0.000000, -0.566382)
  52 Co ( 0.000000,  0.000000,  1.274033)
  53 Ni ( 0.000000,  0.000000,  0.215138)
  54 Ni ( 0.000000,  0.000000,  0.291310)
  55 Cr ( 0.000000,  0.000000, -0.898374)
  56 Cr ( 0.000000,  0.000000, -1.934956)
  57 Co ( 0.000000,  0.000000,  1.357737)
  58 Co ( 0.000000,  0.000000,  1.658999)
  59 Cr ( 0.000000,  0.000000, -1.529231)
  60 Cr ( 0.000000,  0.000000, -1.943945)
  61 Co ( 0.000000,  0.000000,  1.132433)
  62 Co ( 0.000000,  0.000000,  1.646033)
  63 Ni ( 0.000000,  0.000000,  0.306563)
  64 Al ( 0.000000,  0.000000, -0.005396)
  65 Cr ( 0.000000,  0.000000,  1.058314)
  66 Fe ( 0.000000,  0.000000,  2.280661)
  67 Cr ( 0.000000,  0.000000, -2.495366)
  68 Al ( 0.000000,  0.000000, -0.016844)
  69 Fe ( 0.000000,  0.000000, -1.462719)
  70 Cr ( 0.000000,  0.000000,  0.845084)
  71 Ni ( 0.000000,  0.000000,  0.375528)
  72 Co ( 0.000000,  0.000000,  1.530331)
  73 Co ( 0.000000,  0.000000,  0.850980)
  74 Cr ( 0.000000,  0.000000,  1.675272)
  75 Al ( 0.000000,  0.000000, -0.014962)
  76 Co ( 0.000000,  0.000000,  1.132005)
  77 Ni ( 0.000000,  0.000000,  0.150934)
  78 Fe ( 0.000000,  0.000000,  2.078743)
  79 Fe ( 0.000000,  0.000000,  2.347065)
  80 Al ( 0.000000,  0.000000, -0.031608)
  81 Cr ( 0.000000,  0.000000, -0.199308)
  82 Cr ( 0.000000,  0.000000, -2.330919)
  83 Co ( 0.000000,  0.000000,  1.372835)
  84 Fe ( 0.000000,  0.000000,  1.801948)
  85 Ni ( 0.000000,  0.000000,  0.096514)
  86 Cr ( 0.000000,  0.000000, -1.538131)
  87 Fe ( 0.000000,  0.000000,  2.660634)
  88 Ni ( 0.000000,  0.000000,  0.064482)
  89 Co ( 0.000000,  0.000000,  1.371341)
  90 Co ( 0.000000,  0.000000,  0.572186)
  91 Co ( 0.000000,  0.000000,  1.350054)
  92 Fe ( 0.000000,  0.000000,  2.505440)
  93 Al ( 0.000000,  0.000000, -0.026304)
  94 Ni ( 0.000000,  0.000000,  0.102410)
  95 Cr ( 0.000000,  0.000000, -1.534846)
  96 Co ( 0.000000,  0.000000,  1.211475)
  97 Ni ( 0.000000,  0.000000,  0.469481)
  98 Al ( 0.000000,  0.000000, -0.016125)
  99 Al ( 0.000000,  0.000000, -0.025448)
 100 Cr ( 0.000000,  0.000000,  2.307601)
 101 Cr ( 0.000000,  0.000000, -2.223620)
 102 Fe ( 0.000000,  0.000000,  2.388781)
 103 Cr ( 0.000000,  0.000000,  2.819106)
 104 Al ( 0.000000,  0.000000, -0.049008)
 105 Cr ( 0.000000,  0.000000, -2.901019)
 106 Fe ( 0.000000,  0.000000,  2.218583)
 107 Ni ( 0.000000,  0.000000,  0.163974)
 108 Al ( 0.000000,  0.000000, -0.013371)
 109 Cr ( 0.000000,  0.000000, -2.603708)
 110 Ni ( 0.000000,  0.000000,  0.207690)
 111 Al ( 0.000000,  0.000000, -0.012560)
 112 Fe ( 0.000000,  0.000000,  3.050427)
 113 Al ( 0.000000,  0.000000, -0.017789)
 114 Ni ( 0.000000,  0.000000,  0.443927)
 115 Al ( 0.000000,  0.000000, -0.018016)
 116 Ni ( 0.000000,  0.000000,  0.286974)
 117 Al ( 0.000000,  0.000000, -0.006656)
 118 Fe ( 0.000000,  0.000000,  2.556543)
 119 Cr ( 0.000000,  0.000000, -3.151849)
 120 Fe ( 0.000000,  0.000000,  1.685156)
 121 Ni ( 0.000000,  0.000000,  0.299843)
 122 Ni ( 0.000000,  0.000000,  0.374831)
 123 Fe ( 0.000000,  0.000000,  2.677583)
 124 Fe ( 0.000000,  0.000000, -1.214219)

Energy contributions relative to reference atoms: (reference = -3726899.091688)

Kinetic:       +306.717717
Potential:     -301.242920
External:        +0.000000
XC:            -900.384931
Entropy (-ST):   -5.047866
Local:          +34.277171
--------------------------
Free energy:   -865.680829
Extrapolated:  -863.156896

Dipole-layer corrected work functions: 4.249810, 4.089508 eV

Spin contamination: 46.749595 electrons
Showing all kpts
                      Up                     Down
 Kpt  Band  Eigenvalues  Occupancy  Eigenvalues  Occupancy
  0   523      0.33035    0.99763      1.24591    0.04256
  0   524      0.34362    0.99729      1.25216    0.04009
  0   525      0.35858    0.99686      1.26211    0.03643
  0   526      0.37445    0.99632      1.27473    0.03225

  1   523      0.32724    0.99770      1.24071    0.04473
  1   524      0.33603    0.99749      1.24578    0.04262
  1   525      0.34822    0.99717      1.25739    0.03812
  1   526      0.37268    0.99638      1.26547    0.03527


Fermi level: 0.93458

No gap

Forces in eV/Ang:
  0 Co   -0.69265    1.07743    0.35866
  1 Fe    1.86648   -0.55940    0.71841
  2 Co    0.43983    0.02114    1.05982
  3 Fe    1.18312   -0.76983    0.56497
  4 Co    0.94881    0.67378   -0.92491
  5 Fe   -0.35612   -0.42493    1.87209
  6 Co    0.41130    0.24832   -0.56017
  7 Al    0.39214   -0.24930    0.48786
  8 Co    2.33469    0.86711   -1.39904
  9 Co   -0.48331    0.14741    0.10311
 10 Fe    0.07769   -1.06316   -0.86607
 11 Fe    0.32057   -0.34959    1.22199
 12 Co    0.96969    0.06418   -0.09817
 13 Co   -0.59917   -0.56827   -0.35381
 14 Al   -0.47864    0.06752    0.50105
 15 Fe    0.39760   -0.24381    1.37625
 16 Al    0.12674   -0.59108   -1.30182
 17 Co   -0.23989   -1.36930    1.00944
 18 Cr    0.75630   -1.04095    0.37304
 19 Ni    0.44820    0.41401    0.06934
 20 Ni    0.04691   -0.37650    0.90593
 21 Ni   -1.32302    0.55423    0.39669
 22 Cr   -1.23867   -0.33365   -1.42896
 23 Al    0.46510   -0.07770   -0.16061
 24 Al   -0.05078   -0.22315    0.79546
 25 Al   -0.18986    0.25207   -1.13486
 26 Al    1.12892    1.35891   -0.17687
 27 Al   -1.63109    0.16289    0.66582
 28 Fe   -1.77795   -0.88451   -0.30951
 29 Cr   -0.78382   -0.32126    0.59502
 30 Al   -0.94349    0.59408   -0.29232
 31 Ni   -0.70681    0.64564   -0.11062
 32 Ni   -2.03295    0.29373    0.30872
 33 Al    0.01150   -0.14696   -2.17080
 34 Co    0.23774    0.06984   -0.63513
 35 Al   -0.08714   -0.07566    0.16648
 36 Fe   -0.47361    0.16323   -0.52445
 37 Ni   -0.90228   -0.41822   -0.15832
 38 Co    1.68886   -0.09284   -0.21885
 39 Cr   -0.03226   -0.05047    0.35373
 40 Fe   -0.12049   -0.36568    0.44184
 41 Cr   -1.51457    1.38937   -0.17476
 42 Fe    1.08388    0.36147   -1.16559
 43 Ni   -0.47209   -0.56920   -0.66755
 44 Cr    0.11161    0.58916   -0.16726
 45 Fe   -2.18194    0.96473    0.88011
 46 Ni    1.35166   -1.34396   -1.12578
 47 Ni    1.32921    1.41988   -1.74513
 48 Ni   -0.23821    0.06259    0.48898
 49 Al    0.46455    0.17069   -0.16370
 50 Co    1.74114   -0.54358   -0.15727
 51 Cr    0.18687    0.51275    0.17695
 52 Co    0.36410   -0.42609   -0.06174
 53 Ni    0.76353   -0.90799    2.10725
 54 Ni   -0.75315    1.12041    0.55539
 55 Cr   -0.85067    0.44909   -0.59709
 56 Cr   -0.75369    0.70075   -1.18936
 57 Co    0.55217    0.68087    0.11213
 58 Co    0.97429   -0.06120   -0.03041
 59 Cr   -0.05744    0.22614   -0.55242
 60 Cr   -0.09845    0.80432   -0.02252
 61 Co    0.41328    0.09360    0.18719
 62 Co    0.39228   -0.82619    1.55982
 63 Ni   -0.43918    1.03110   -0.10368
 64 Al   -3.83858   -0.55229   -1.00186
 65 Cr    1.42679   -0.24193   -0.23163
 66 Fe   -0.89155    0.56434    0.62837
 67 Cr   -0.31555   -0.58431    1.26253
 68 Al    1.01832    0.18562    0.31636
 69 Fe   -0.39261    1.21918    0.17350
 70 Cr    0.10623    0.58951    3.36806
 71 Ni   -0.67768    1.11972    0.75006
 72 Co    0.77422   -0.76246    0.07355
 73 Co   -1.16948    0.49670    0.00370
 74 Cr   -0.25569    0.40168   -0.33046
 75 Al    2.10213   -0.49175   -0.59437
 76 Co   -0.62420    0.05187   -0.08506
 77 Ni   -0.39608   -0.04396   -0.12824
 78 Fe   -0.53186    0.06600   -0.73142
 79 Fe   -1.01715   -0.63881   -0.11897
 80 Al   -0.79679   -0.74765   -0.05957
 81 Cr    2.45662   -1.41476    0.36132
 82 Cr    0.10086   -0.76677   -0.15790
 83 Co    0.04256    0.44958   -0.36267
 84 Fe    0.48840   -0.99622    0.40078
 85 Ni   -0.40517    0.27350    1.23569
 86 Cr    1.43424    0.84907   -0.89185
 87 Fe    0.55040   -0.51722   -0.23245
 88 Ni   -0.31715    0.42086    0.34226
 89 Co   -0.99902    0.22382   -0.39752
 90 Co   -0.53995   -0.63931   -0.26114
 91 Co   -0.02101   -0.53643   -0.36387
 92 Fe   -0.70342   -0.34223   -0.25640
 93 Al    1.48667   -0.31977   -0.97013
 94 Ni    2.14703   -0.84939    0.23538
 95 Cr    1.21836    0.48058   -0.11912
 96 Co   -1.02101   -0.41762    0.64865
 97 Ni   -0.47707    0.26534    0.52904
 98 Al   -0.60068   -0.81128   -0.62172
 99 Al    1.03486   -0.12320   -0.17479
100 Cr    0.75451   -0.46667    0.67996
101 Cr   -1.34819    0.20038   -0.36640
102 Fe   -0.05394   -0.15729   -0.20525
103 Cr    0.73547    0.64379    0.72125
104 Al   -0.32751    0.95086   -0.09113
105 Cr    0.11901   -0.90309    0.19356
106 Fe    0.53438   -0.09116   -0.82571
107 Ni    2.06920    0.51357    1.48021
108 Al   -1.36740   -0.59515    0.42734
109 Cr   -0.30169    1.30993    0.04720
110 Ni    0.28263    0.17096   -0.65892
111 Al   -1.36619    0.79566    0.64855
112 Fe    0.13539   -0.07389   -1.82910
113 Al    0.07918    0.82974   -0.70576
114 Ni    0.43027    0.37928   -0.45047
115 Al    0.21778    0.58104   -1.00538
116 Ni    0.25457    0.16637    0.77374
117 Al    0.27370   -0.15236   -0.32033
118 Fe   -0.43612    0.03828   -0.29648
119 Cr   -0.24819   -2.40115    0.05559
120 Fe   -0.10103    0.20285    0.13551
121 Ni   -0.59236   -0.48300   -0.22338
122 Ni   -2.69716    0.35749   -0.27449
123 Fe    0.12141   -0.54820   -0.06600
124 Fe    0.95339   -0.10248    0.03023

Timing:                              incl.     excl.
-----------------------------------------------------------
Forces:                             34.420    34.420   0.2% |
Hamiltonian:                         1.735     0.010   0.0% |
 Atomic:                             0.390     0.001   0.0% |
  XC Correction:                     0.388     0.388   0.0% |
 Calculate atomic Hamiltonians:      0.833     0.833   0.0% |
 Communicate:                        0.079     0.079   0.0% |
 Initialize Hamiltonian:             0.000     0.000   0.0% |
 Poisson:                            0.093     0.093   0.0% |
 XC 3D grid:                         0.330     0.330   0.0% |
LCAO initialization:               212.915     0.544   0.0% |
 LCAO eigensolver:                   9.802     0.010   0.0% |
  Calculate projections:             0.000     0.000   0.0% |
  DenseAtomicCorrection:             0.000     0.000   0.0% |
  Distribute overlap matrix:         5.846     5.846   0.0% |
  Orbital Layouts:                   3.725     3.725   0.0% |
  Potential matrix:                  0.004     0.004   0.0% |
  Sum over cells:                    0.216     0.216   0.0% |
 LCAO to grid:                     200.810   200.810   1.0% |
 Set positions (LCAO WFS):           1.760     1.512   0.0% |
  Basic WFS set positions:           0.003     0.003   0.0% |
  Basis functions set positions:     0.001     0.001   0.0% |
  P tci:                             0.000     0.000   0.0% |
  ST tci:                            0.085     0.085   0.0% |
  mktci:                             0.159     0.159   0.0% |
PWDescriptor:                        0.101     0.101   0.0% |
SCF-cycle:                       20636.888     1.395   0.0% |
 Davidson:                       19953.975  6941.607  33.2% |------------|
  Apply H:                         376.157   369.520   1.8% ||
   HMM T:                            6.637     6.637   0.0% |
  Subspace diag:                  2175.864     0.054   0.0% |
   calc_h_matrix:                  903.070   572.410   2.7% ||
    Apply H:                       330.660   324.070   1.6% ||
     HMM T:                          6.590     6.590   0.0% |
   diagonalize:                    171.497   171.497   0.8% |
   rotate_psi:                    1101.243  1101.243   5.3% |-|
  calc. matrices:                 5085.666  4427.691  21.2% |-------|
   Apply H:                        657.975   644.484   3.1% ||
    HMM T:                          13.491    13.491   0.1% |
  diagonalize:                    3063.007  3063.007  14.7% |-----|
  rotate_psi:                     2311.675  2311.675  11.1% |---|
 Density:                          373.733     0.005   0.0% |
  Atomic density matrices:           3.716     3.716   0.0% |
  Mix:                             174.576   174.576   0.8% |
  Multipole moments:                 0.117     0.117   0.0% |
  Pseudo density:                  195.320   195.312   0.9% |
   Symmetrize density:               0.007     0.007   0.0% |
 Hamiltonian:                      292.486     2.041   0.0% |
  Atomic:                           67.585     0.235   0.0% |
   XC Correction:                   67.350    67.350   0.3% |
  Calculate atomic Hamiltonians:   145.156   145.156   0.7% |
  Communicate:                      14.686    14.686   0.1% |
  Poisson:                           6.524     6.524   0.0% |
  XC 3D grid:                       56.494    56.494   0.3% |
 Orthonormalize:                    15.298     0.000   0.0% |
  calc_s_matrix:                     1.803     1.803   0.0% |
  inverse-cholesky:                  0.601     0.601   0.0% |
  projections:                       9.697     9.697   0.0% |
  rotate_psi_s:                      3.196     3.196   0.0% |
Set symmetry:                        0.001     0.001   0.0% |
Other:                               7.083     7.083   0.0% |
-----------------------------------------------------------
Total:                                     20893.143 100.0%

Date: Tue Apr 18 05:24:48 2023
