
  ___ ___ ___ _ _ _  
 |   |   |_  | | | | 
 | | | | | . | | | | 
 |__ |  _|___|_____|  22.8.0
 |___|_|             

User:   c.zeng@d0068
Date:   Mon Apr 17 02:38:44 2023
Arch:   x86_64
Pid:    172961
CWD:    /home/c.zeng/projects/hea-corrosion/hea-mlp/data-curation/bulk-mcmc/dft-jobs/131
Python: 3.8.1
gpaw:   /home/c.zeng/usr/installs/gpaw/source/gpaw-22.8.0/gpaw
_gpaw:  /home/c.zeng/usr/installs/gpaw/source/gpaw-22.8.0/
        _gpaw.cpython-38-x86_64-linux-gnu.so
ase:    /home/c.zeng/.local/lib/python3.8/site-packages/ase-3.22.1-py3.8.egg/ase (version 3.22.1)
numpy:  /home/c.zeng/.local/lib/python3.8/site-packages/numpy (version 1.24.2)
scipy:  /home/c.zeng/.local/lib/python3.8/site-packages/scipy (version 1.10.1)
libxc:  4.2.3
units:  Angstrom and eV
cores: 30
OpenMP: False
OMP_NUM_THREADS: 1

Input parameters:
  convergence: {energy: 0.0001}
  kpts: [2 2 2]
  maxiter: 666
  mode: {ecut: 350.0,
         name: pw}
  occupations: {fixmagmom: False,
                name: fermi-dirac,
                width: 0.1}
  spinpol: True
  xc: PBE

System changes: positions, numbers, cell, pbc, initial_charges, initial_magmoms 

Initialize ...

species:
  Co:
    name: Cobalt
    id: 339d20d5b0b93d2de9531a1bee871d91
    Z: 27.0
    valence: 9
    core: 18
    charge: 0.0
    file: /home/c.zeng/usr/data/gpaw-setups-0.9.20000/Co.PBE.gz
    compensation charges: {type: gauss,
                           rc: 0.32,
                           lmax: 2}
    cutoffs: {filter: 1.87,
              core: 2.55}
    valence states:
      #              energy  rcut
      - 4s(2.00)    -5.469   1.005
      - 4p(0.00)    -1.277   1.058
      - 3d(7.00)    -8.205   1.005
      -  s          21.742   1.005
      -  p          25.934   1.058
      -  d          19.007   1.005
  
    # Using partial waves for Co as LCAO basis

  Fe:
    name: Iron
    id: 37abbd8d6c3c35915a9b583b742da910
    Z: 26.0
    valence: 8
    core: 18
    charge: 0.0
    file: /home/c.zeng/usr/data/gpaw-setups-0.9.20000/Fe.PBE.gz
    compensation charges: {type: gauss,
                           rc: 0.33,
                           lmax: 2}
    cutoffs: {filter: 2.06,
              core: 2.67}
    valence states:
      #              energy  rcut
      - 4s(2.00)    -5.291   1.164
      - 4p(0.00)    -1.326   1.058
      - 3d(6.00)    -7.505   1.058
      -  s          21.920   1.164
      -  p          25.885   1.058
      -  d          19.706   1.058
  
    # Using partial waves for Fe as LCAO basis

  Ni:
    name: Nickel
    id: 0d9f38a9d6e76a2886f07bb4381f212b
    Z: 28.0
    valence: 16
    core: 12
    charge: 0.0
    file: /home/c.zeng/usr/data/gpaw-setups-0.9.20000/Ni.PBE.gz
    compensation charges: {type: gauss,
                           rc: 0.36,
                           lmax: 2}
    cutoffs: {filter: 2.14,
              core: 1.98}
    valence states:
      #              energy  rcut
      - 4s(2.00)    -5.642   1.164
      - 3p(6.00)   -71.394   1.207
      - 4p(0.00)    -1.226   1.207
      - 3d(8.00)    -8.875   1.138
      -  s          21.570   1.164
      -  d          18.337   1.138
  
    # Using partial waves for Ni as LCAO basis

  Al:
    name: Aluminium
    id: 0292cae29f5d6237e50f6abdd43a7bdd
    Z: 13.0
    valence: 3
    core: 10
    charge: 0.0
    file: /home/c.zeng/usr/data/gpaw-setups-0.9.20000/Al.PBE.gz
    compensation charges: {type: gauss,
                           rc: 0.34,
                           lmax: 2}
    cutoffs: {filter: 1.91,
              core: 2.36}
    valence states:
      #              energy  rcut
      - 3s(2.00)    -7.753   1.085
      - 3p(1.00)    -2.712   1.085
      -  s          19.459   1.085
      -  p          24.499   1.085
      -  d           0.000   1.085
  
    # Using partial waves for Al as LCAO basis

  Cr:
    name: Chromium
    id: 33f258bda2ca9f93018e70263a35547b
    Z: 24.0
    valence: 6
    core: 18
    charge: 0.0
    file: /home/c.zeng/usr/data/gpaw-setups-0.9.20000/Cr.PBE.gz
    compensation charges: {type: gauss,
                           rc: 0.35,
                           lmax: 2}
    cutoffs: {filter: 2.14,
              core: 3.04}
    valence states:
      #              energy  rcut
      - 4s(1.00)    -4.007   1.164
      - 4p(0.00)    -0.989   1.217
      - 3d(5.00)    -2.913   1.111
      -  s          23.205   1.164
      -  p          26.223   1.217
      -  d          24.299   1.111
  
    # Using partial waves for Cr as LCAO basis

Reference energy: -3548577.034362  # eV

Spin-polarized calculation.
Magnetic moment: 136.400000

Convergence criteria:
 Maximum [total energy] change in last 3 cyles: 0.0001 eV / electron
 Maximum integral of absolute [dens]ity change: 0.0001 electrons / valence electron
 Maximum integral of absolute [eigenst]ate change: 4e-08 eV^2 / valence electron
 Maximum number of scf [iter]ations: 666
 (Square brackets indicate name in SCF output, whereas a 'c' in
 the SCF output indicates the quantity has converged.)

Symmetries present (total): 1

  ( 1  0  0)
  ( 0  1  0)
  ( 0  0  1)

8 k-points: 2 x 2 x 2 Monkhorst-Pack grid
4 k-points in the irreducible part of the Brillouin zone
       k-points in crystal coordinates                weights
   0:     0.25000000   -0.25000000   -0.25000000          2/8
   1:     0.25000000   -0.25000000    0.25000000          2/8
   2:     0.25000000    0.25000000   -0.25000000          2/8
   3:     0.25000000    0.25000000    0.25000000          2/8

Wave functions: Plane wave expansion
  Cutoff energy: 350.000 eV
  Number of coefficients (min, max): 18331, 18331
  Pulay-stress correction: 0.000000 eV/Ang^3 (de/decut=0.000000)
  Using FFTW library
  ScaLapack parameters: grid=1x1, blocksize=None
  Wavefunction extrapolation:
    Improved wavefunction reuse through dual PAW basis 

Occupation numbers: Fermi-Dirac:
  width: 0.1000  # eV
 

Eigensolver
   Davidson(niter=2) 

Densities:
  Coarse grid: 48*48*48 grid
  Fine grid: 96*96*96 grid
  Total Charge: 0.000000 

Density mixing:
  Method: difference
  Backend: pulay
  Linear mixing parameter: 0.05
  old densities: 5
  Damping of long wavelength oscillations: 50 

Hamiltonian:
  XC and Coulomb potentials evaluated on a 96*96*96 grid
  Using the PBE Exchange-Correlation functional
  External potential:
    NoExternalPotential
 

XC parameters: PBE with 2 nearest neighbor stencil

Memory estimate:
  Process memory now: 266.86 MiB
  Calculator: 1030.73 MiB
    Density: 5.48 MiB
      Arrays: 2.05 MiB
      Localized functions: 2.61 MiB
      Mixer: 0.82 MiB
    Hamiltonian: 1.60 MiB
      Arrays: 1.52 MiB
      XC: 0.00 MiB
      Poisson: 0.00 MiB
      vbar: 0.08 MiB
    Wavefunctions: 1023.65 MiB
      Arrays psit_nG: 754.10 MiB
      Eigensolver: 259.26 MiB
      Projections: 5.19 MiB
      Projectors: 0.71 MiB
      PW-descriptor: 4.39 MiB

Total number of cores used: 30
Parallelization over k-points: 2
Domain decomposition: 5 x 3 x 1

Number of atoms: 108
Number of atomic orbitals: 994
Number of bands in calculation: 674
Number of valence electrons: 980
Bands to converge: occupied

... initialized

Initializing position-dependent things.

Density initialized from atomic densities
Creating initial wave functions:
  674 bands from LCAO basis set

        Co-------Co---------------.  
       /|  Co       Fe            |  
      / |   NiCr     CrCo     CrCo|  
     / Al       CAl     Ni        |  
    /   CCo      Ni      FAl      |  
   /    | CoCo     Co      CoCo   |  
  /   Co|  NiFeAl   NiNi    CrCr  |  
 *      Cr  CrCoNi   CoAlNi   FeNi|  
 |Fe   NiNiCr   CrNCr   FeCr      |  
 | Fe   | NiNi   NiNiCr    Cr     |  
 |     Co  CoFeNi   FeNiAl  NiAl  |  
 |      Fe    FeNi   FeAlFe   AlCr|  
 |Cr    |CoNi   NFeFe   FeFe     Fe  
 |      .-FeCr-----FeCr--FeCoNi---.  
 |     Cr    CoCr     FeCo  Cr Fe/   
 |    / Al      Co       Cr     /    
 Cr  /            Cr           /     
 |  /      Ni      Cr       Fe/      
 | / Co              Fe      /       
 |/                     Co  /        
 *-------------------------*         

Positions:
   0 Co    10.732479   -0.010418   10.721263    ( 0.0000,  0.0000,  2.1000)
   1 Fe    10.706231    1.787006    1.816653    ( 0.0000,  0.0000,  1.5000)
   2 Co     1.827923    0.046024    1.820803    ( 0.0000,  0.0000,  0.0000)
   3 Co     1.781666    1.794790   10.668295    ( 0.0000,  0.0000,  0.0000)
   4 Co     3.605675   -0.024615   10.696977    ( 0.0000,  0.0000,  0.0000)
   5 Ni     3.626284    1.755611    1.827590    ( 0.0000,  0.0000,  2.0000)
   6 Fe     5.347186   -0.032870    1.798425    ( 0.0000,  0.0000,  2.0000)
   7 Al     5.383406    1.755353   -0.004078    ( 0.0000,  0.0000,  2.0000)
   8 Fe     7.108694   -0.021619    0.052076    ( 0.0000,  0.0000,  0.0000)
   9 Cr     7.129131    1.783639    1.838109    ( 0.0000,  0.0000,  2.0000)
  10 Al     8.928414   -0.004386    1.840918    ( 0.0000,  0.0000,  2.0000)
  11 Co     8.945645    1.852509    0.063651    ( 0.0000,  0.0000,  0.0000)
  12 Co    10.721403    3.615743   10.707625    ( 0.0000,  0.0000,  2.1000)
  13 Fe    10.714905    5.407607    1.816064    ( 0.0000,  0.0000,  2.0000)
  14 Al     1.786931    3.537020    1.885127    ( 0.0000,  0.0000,  0.0000)
  15 Co     1.774396    5.426328   10.657058    ( 0.0000,  0.0000,  0.0000)
  16 Co     3.564340    3.564490   10.690115    ( 0.0000,  0.0000,  0.0000)
  17 Co     3.570334    5.434059    1.813919    ( 0.0000,  0.0000,  0.0000)
  18 Co     5.350145    3.574934    1.808708    ( 0.0000,  0.0000,  0.0000)
  19 Al     5.345084    5.410577   10.703464    ( 0.0000,  0.0000,  2.1000)
  20 Fe     7.157695    3.624514    0.002553    ( 0.0000,  0.0000,  2.1000)
  21 Fe     7.157792    5.380200    1.803904    ( 0.0000,  0.0000,  0.0000)
  22 Cr     8.944980    3.620622    1.842988    ( 0.0000,  0.0000,  0.0000)
  23 Al     8.940316    5.370571   -0.005231    ( 0.0000,  0.0000,  0.0000)
  24 Co    10.674578    7.138041   10.683446    ( 0.0000,  0.0000,  2.0000)
  25 Fe    10.668413    8.869012    1.800001    ( 0.0000,  0.0000,  0.0000)
  26 Fe     1.807904    7.157309    1.806960    ( 0.0000,  0.0000,  1.5000)
  27 Co     1.808086    8.895217   10.689064    ( 0.0000,  0.0000,  0.0000)
  28 Cr     3.612462    7.185391   10.698339    ( 0.0000,  0.0000,  2.0000)
  29 Ni     3.598277    8.905404    1.808097    ( 0.0000,  0.0000,  1.5000)
  30 Fe     5.362229    7.149643    1.778835    ( 0.0000,  0.0000,  2.1000)
  31 Fe     5.368084    8.904170   10.708750    ( 0.0000,  0.0000,  2.0000)
  32 Co     7.127640    7.124156   10.700741    ( 0.0000,  0.0000,  2.0000)
  33 Fe     7.139982    8.914904    1.783157    ( 0.0000,  0.0000,  0.0000)
  34 Co     8.884516    7.107975    1.798232    ( 0.0000,  0.0000,  2.0000)
  35 Cr     8.895410    8.880302    0.005476    ( 0.0000,  0.0000,  0.0000)
  36 Cr    10.737840    0.006469    3.587908    ( 0.0000,  0.0000,  1.5000)
  37 Cr     0.009110    1.816214    5.359506    ( 0.0000,  0.0000,  1.5000)
  38 Cr     1.833434   -0.010553    5.335488    ( 0.0000,  0.0000,  2.1000)
  39 Cr     1.814369    1.777409    3.664755    ( 0.0000,  0.0000,  1.5000)
  40 Ni     3.608002   -0.027958    3.615958    ( 0.0000,  0.0000,  2.1000)
  41 Ni     3.597397    1.774364    5.368180    ( 0.0000,  0.0000,  1.5000)
  42 Co     5.355185   -0.018813    5.365682    ( 0.0000,  0.0000,  2.1000)
  43 Cr     5.354005    1.762698    3.609396    ( 0.0000,  0.0000,  1.5000)
  44 Cr     7.096449    0.004839    3.553950    ( 0.0000,  0.0000,  0.0000)
  45 Fe     7.124574    1.817747    5.354692    ( 0.0000,  0.0000,  2.1000)
  46 Fe     8.888698   10.712332    5.289714    ( 0.0000,  0.0000,  0.0000)
  47 Co     8.931727    1.815495    3.558979    ( 0.0000,  0.0000,  1.5000)
  48 Ni    10.700248    3.599864    3.631730    ( 0.0000,  0.0000,  0.0000)
  49 Al    -0.007893    5.382698    5.388017    ( 0.0000,  0.0000,  2.0000)
  50 Fe     1.794265    3.594073    5.365264    ( 0.0000,  0.0000,  2.0000)
  51 Co     1.782020    5.398675    3.628600    ( 0.0000,  0.0000,  1.5000)
  52 Cr     3.583351    3.582086    3.661657    ( 0.0000,  0.0000,  1.5000)
  53 Fe     3.572253    5.392895    5.375354    ( 0.0000,  0.0000,  1.5000)
  54 Ni     5.361747    3.593312    5.376780    ( 0.0000,  0.0000,  2.1000)
  55 Fe     5.348633    5.403146    3.628053    ( 0.0000,  0.0000,  0.0000)
  56 Cr     7.166745    3.584809    3.633875    ( 0.0000,  0.0000,  0.0000)
  57 Ni     7.149503    5.367108    5.369102    ( 0.0000,  0.0000,  2.1000)
  58 Fe     8.930869    3.577164    5.375332    ( 0.0000,  0.0000,  0.0000)
  59 Fe     8.940702    5.382345    3.619239    ( 0.0000,  0.0000,  2.0000)
  60 Cr    10.717414    7.117990    3.608013    ( 0.0000,  0.0000,  1.5000)
  61 Ni    10.744381    8.888719    5.331252    ( 0.0000,  0.0000,  1.5000)
  62 Ni     1.794962    7.151487    5.364771    ( 0.0000,  0.0000,  0.0000)
  63 Co     1.818208    8.914453    3.615261    ( 0.0000,  0.0000,  1.5000)
  64 Fe     3.588305    7.165673    3.591211    ( 0.0000,  0.0000,  2.1000)
  65 Cr     3.591168    8.919954    5.360224    ( 0.0000,  0.0000,  2.1000)
  66 Ni     5.360428    7.147734    5.374228    ( 0.0000,  0.0000,  2.1000)
  67 Fe     5.341814    8.914764    3.584723    ( 0.0000,  0.0000,  0.0000)
  68 Al     7.129249    7.125850    3.593677    ( 0.0000,  0.0000,  0.0000)
  69 Fe     7.100223    8.892258    5.376018    ( 0.0000,  0.0000,  0.0000)
  70 Cr     8.918303    7.140303    5.371193    ( 0.0000,  0.0000,  2.0000)
  71 Ni     8.906186    8.874212    3.587994    ( 0.0000,  0.0000,  1.5000)
  72 Cr     0.119377   10.701749    7.140164    ( 0.0000,  0.0000,  0.0000)
  73 Fe     0.030718    1.806049    8.929851    ( 0.0000,  0.0000,  2.1000)
  74 Ni     1.830550   -0.004511    8.938600    ( 0.0000,  0.0000,  2.1000)
  75 Co     1.836758    1.805813    7.113412    ( 0.0000,  0.0000,  2.0000)
  76 Ni     3.562903   -0.022955    7.119030    ( 0.0000,  0.0000,  2.0000)
  77 Cr     3.576478    1.763277    8.893223    ( 0.0000,  0.0000,  2.0000)
  78 Cr     5.345063   10.686330    8.914389    ( 0.0000,  0.0000,  2.0000)
  79 Ni     5.352558    1.755900    7.113926    ( 0.0000,  0.0000,  0.0000)
  80 Fe     7.098261   10.714369    7.120349    ( 0.0000,  0.0000,  1.5000)
  81 Cr     7.138309    1.797192    8.899174    ( 0.0000,  0.0000,  0.0000)
  82 Cr     8.894810   10.661132    8.939297    ( 0.0000,  0.0000,  0.0000)
  83 Al     8.927760    1.796388    7.142759    ( 0.0000,  0.0000,  1.5000)
  84 Fe     0.015366    3.574709    7.137977    ( 0.0000,  0.0000,  0.0000)
  85 Cr    -0.017679    5.373273    8.884763    ( 0.0000,  0.0000,  2.1000)
  86 Cr     1.787842    3.561692    8.869848    ( 0.0000,  0.0000,  1.5000)
  87 Ni     1.785719    5.382398    7.128520    ( 0.0000,  0.0000,  2.0000)
  88 Ni     3.567643    3.596465    7.102625    ( 0.0000,  0.0000,  2.1000)
  89 Fe     3.577679    5.405248    8.871392    ( 0.0000,  0.0000,  2.0000)
  90 Ni     5.369596    3.593312    8.903688    ( 0.0000,  0.0000,  0.0000)
  91 Ni     5.358702    5.401699    7.119073    ( 0.0000,  0.0000,  2.1000)
  92 Cr     7.150436    3.604581    7.099987    ( 0.0000,  0.0000,  2.0000)
  93 Ni     7.158199    5.390858    8.905983    ( 0.0000,  0.0000,  1.5000)
  94 Ni     8.930826    3.597912    8.885374    ( 0.0000,  0.0000,  0.0000)
  95 Cr     8.935737    5.388735    7.127651    ( 0.0000,  0.0000,  0.0000)
  96 Ni    10.717929    7.165190    7.144378    ( 0.0000,  0.0000,  2.1000)
  97 Al    10.739341    8.898756    8.943093    ( 0.0000,  0.0000,  1.5000)
  98 Co     1.793750    7.182882    8.888666    ( 0.0000,  0.0000,  1.5000)
  99 Ni     1.836501    8.904825    7.123094    ( 0.0000,  0.0000,  2.1000)
 100 Co     3.587511    7.157223    7.133645    ( 0.0000,  0.0000,  2.1000)
 101 Co     3.596025    8.923803    8.905018    ( 0.0000,  0.0000,  1.5000)
 102 Co     5.369413    7.149278    8.921112    ( 0.0000,  0.0000,  2.0000)
 103 Ni     5.343776    8.916533    7.143070    ( 0.0000,  0.0000,  2.1000)
 104 Al     7.139778    7.140400    7.139349    ( 0.0000,  0.0000,  2.1000)
 105 Ni     7.106892    8.889835    8.908727    ( 0.0000,  0.0000,  1.5000)
 106 Co     8.907419    7.146362    8.906765    ( 0.0000,  0.0000,  2.0000)
 107 Cr     8.922313    8.892279    7.115031    ( 0.0000,  0.0000,  2.0000)

Unit cell:
           periodic     x           y           z      points  spacing
  1. axis:    yes   10.722400    0.000000    0.000000    48     0.2234
  2. axis:    yes    0.000000   10.722400    0.000000    48     0.2234
  3. axis:    yes    0.000000    0.000000   10.722400    48     0.2234

  Lengths:  10.722400  10.722400  10.722400
  Angles:   90.000000  90.000000  90.000000

Effective grid spacing dv^(1/3) = 0.2234

     iter     time        total  log10-change:  magmom
                         energy  eigst   dens
iter:   1 02:42:28  -924.754314                  +135.8721
iter:   2 02:43:52  -893.576313  -0.48  -1.32    +98.1927
iter:   3 02:45:16  -893.311580  -0.85  -1.31    +67.2930
iter:   4 02:46:39  -857.148897  -1.40  -1.30    +59.2053
iter:   5 02:48:03  -854.215997  -1.89  -1.45    +53.4484
iter:   6 02:49:27  -857.654259  -1.86  -1.47    +50.5117
iter:   7 02:50:51  -858.341722  -1.60  -1.50    +49.3488
iter:   8 02:52:15  -849.522283  -1.71  -1.51    +48.3180
iter:   9 02:53:39  -861.645935  -1.66  -1.72    +48.3911
iter:  10 02:55:02  -848.430914  -1.99  -1.63    +47.8923
iter:  11 02:56:26  -848.429895  -2.60  -1.88    +48.3506
iter:  12 02:57:50  -848.911683  -2.74  -1.92    +49.2745
iter:  13 02:59:14  -850.228005  -2.55  -1.96    +49.9145
iter:  14 03:00:38  -850.439384  -2.57  -1.94    +50.7683
iter:  15 03:02:01  -849.936877  -2.70  -2.00    +51.1534
iter:  16 03:03:25  -851.061434  -2.68  -2.10    +51.6465
iter:  17 03:04:49  -849.977230  -2.87  -2.02    +52.1747
iter:  18 03:06:12  -849.706266  -3.15  -2.17    +52.5801
iter:  19 03:07:36  -850.017552  -3.09  -2.28    +53.4448
iter:  20 03:09:00  -850.092202  -3.24  -2.28    +53.9383
iter:  21 03:10:24  -850.068504c -3.38  -2.29    +54.6957
iter:  22 03:11:48  -850.258045  -3.17  -2.36    +55.2602
iter:  23 03:13:12  -850.203052  -3.46  -2.39    +55.3164
iter:  24 03:14:35  -850.419952  -3.35  -2.43    +55.8626
iter:  25 03:15:59  -850.253309  -3.59  -2.41    +56.0845
iter:  26 03:17:23  -850.529412  -3.42  -2.56    +56.9600
iter:  27 03:18:47  -850.539803  -3.61  -2.49    +57.3762
iter:  28 03:20:11  -850.619771c -3.68  -2.55    +58.1605
iter:  29 03:21:35  -850.708514  -3.89  -2.59    +58.6427
iter:  30 03:22:59  -850.917187  -3.62  -2.62    +59.6412
iter:  31 03:24:23  -851.189088  -3.52  -2.57    +60.5754
iter:  32 03:25:47  -851.314364  -3.64  -2.48    +61.0388
iter:  33 03:27:10  -851.391954  -3.67  -2.46    +61.3250
iter:  34 03:28:34  -851.375410c -3.80  -2.45    +61.7496
iter:  35 03:29:58  -851.416748c -3.83  -2.49    +61.8844
iter:  36 03:31:22  -851.809964  -3.21  -2.47    +62.1455
iter:  37 03:32:46  -851.435852  -3.51  -2.35    +62.3724
iter:  38 03:34:09  -851.444482  -3.73  -2.52    +62.7239
iter:  39 03:35:33  -851.506070c -3.67  -2.57    +62.7683
iter:  40 03:36:57  -851.553438  -3.53  -2.55    +62.9433
iter:  41 03:38:20  -851.461327c -3.75  -2.56    +62.8260
iter:  42 03:39:44  -851.449163  -4.18  -2.65    +62.9429
iter:  43 03:41:09  -851.500238c -4.08  -2.74    +63.0299
iter:  44 03:42:33  -851.507258c -4.10  -2.73    +63.0198
iter:  45 03:43:57  -851.509084c -4.21  -2.72    +63.1403
iter:  46 03:45:20  -851.516025c -4.34  -2.79    +63.1562
iter:  47 03:46:44  -851.531471c -4.29  -2.82    +63.2535
iter:  48 03:48:08  -851.538551c -4.38  -2.87    +63.2448
iter:  49 03:49:32  -851.544310c -4.58  -2.88    +63.2490
iter:  50 03:50:56  -851.560141c -4.48  -2.93    +63.3724
iter:  51 03:52:19  -851.567062c -4.62  -2.96    +63.3716
iter:  52 03:53:43  -851.576006c -4.56  -2.97    +63.4326
iter:  53 03:55:07  -851.583854c -4.65  -3.00    +63.4229
iter:  54 03:56:31  -851.589431c -4.68  -3.03    +63.4980
iter:  55 03:57:54  -851.597255c -4.74  -3.06    +63.5273
iter:  56 03:59:18  -851.595878c -4.93  -3.07    +63.5397
iter:  57 04:00:42  -851.605976c -4.81  -3.11    +63.6409
iter:  58 04:02:06  -851.606028c -4.98  -3.09    +63.6397
iter:  59 04:03:30  -851.615468c -4.71  -3.17    +63.7226
iter:  60 04:04:53  -851.610357c -4.95  -3.09    +63.7131
iter:  61 04:06:17  -851.623070c -4.66  -3.25    +63.7522
iter:  62 04:07:41  -851.620581c -4.78  -3.15    +63.7420
iter:  63 04:09:05  -851.620955c -4.86  -3.23    +63.7117
iter:  64 04:10:29  -851.617834c -5.15  -3.27    +63.7746
iter:  65 04:11:53  -851.622655c -4.97  -3.40    +63.7740
iter:  66 04:13:17  -851.619388c -5.52  -3.31    +63.7871
iter:  67 04:14:41  -851.621275c -5.46  -3.51    +63.7875
iter:  68 04:16:05  -851.621740c -5.77  -3.49    +63.8110
iter:  69 04:17:29  -851.623935c -5.66  -3.51    +63.8522
iter:  70 04:18:53  -851.626311c -5.54  -3.57    +63.8554
iter:  71 04:20:16  -851.629331c -5.27  -3.51    +63.8772
iter:  72 04:21:40  -851.627558c -5.40  -3.49    +63.8881
iter:  73 04:23:04  -851.631495c -5.35  -3.60    +63.9030
iter:  74 04:24:28  -851.631581c -5.44  -3.53    +63.9170
iter:  75 04:25:51  -851.630799c -5.65  -3.58    +63.8946
iter:  76 04:27:15  -851.632035c -5.80  -3.76    +63.9219
iter:  77 04:28:39  -851.632778c -6.18  -3.79    +63.9261
iter:  78 04:30:03  -851.634405c -5.83  -3.81    +63.9198
iter:  79 04:31:26  -851.635483c -5.94  -3.80    +63.9179
iter:  80 04:32:50  -851.636723c -5.68  -3.83    +63.9131
iter:  81 04:34:18  -851.637040c -5.98  -3.90    +63.9000
iter:  82 04:35:46  -851.638766c -5.80  -4.02c   +63.9125
iter:  83 04:37:13  -851.638630c -6.63  -3.99    +63.9172
iter:  84 04:38:41  -851.640448c -5.94  -4.11c   +63.9193
iter:  85 04:40:09  -851.638148c -6.01  -4.09c   +63.9240
iter:  86 04:41:37  -851.624456c -4.13  -4.13c   +63.9277
iter:  87 04:43:05  -851.620951c -4.41  -3.89    +63.9587
iter:  88 04:44:33  -851.620739c -4.94  -3.74    +63.9872
iter:  89 04:46:01  -851.621684c -4.94  -3.70    +64.0582
iter:  90 04:47:29  -851.622798c -5.46  -3.64    +64.0886
iter:  91 04:48:56  -851.624968c -5.66  -3.64    +64.0920
iter:  92 04:50:24  -851.626693c -5.28  -3.51    +64.1112
iter:  93 04:51:52  -851.625940c -5.27  -3.42    +64.1073
iter:  94 04:53:20  -851.627106c -4.99  -3.45    +64.1514
iter:  95 04:54:48  -851.624855c -5.39  -3.43    +64.1478
iter:  96 04:56:16  -851.624278c -5.80  -3.69    +64.1296
iter:  97 04:57:44  -851.625622c -5.85  -3.89    +64.1474
iter:  98 04:59:12  -851.625658c -6.03  -3.84    +64.1397
iter:  99 05:00:40  -851.627081c -5.87  -3.94    +64.1417
iter: 100 05:02:08  -851.626764c -6.05  -3.86    +64.1452
iter: 101 05:03:36  -851.627689c -5.83  -3.97    +64.1411
iter: 102 05:05:04  -851.627961c -6.24  -3.89    +64.1415
iter: 103 05:06:32  -851.628630c -5.97  -4.11c   +64.1367
iter: 104 05:08:00  -851.629078c -6.30  -4.01c   +64.1456
iter: 105 05:09:28  -851.629818c -6.18  -4.16c   +64.1488
iter: 106 05:10:56  -851.630653c -6.13  -4.20c   +64.1457
iter: 107 05:12:23  -851.619061c -4.09  -4.15c   +64.1807
iter: 108 05:13:51  -851.614820c -4.36  -3.92    +64.1835
iter: 109 05:15:19  -851.622519c -4.49  -3.73    +64.1697
iter: 110 05:16:48  -851.616065c -4.65  -4.09c   +64.1700
iter: 111 05:18:16  -851.617032c -6.03  -3.77    +64.1558
iter: 112 05:19:44  -851.618585c -5.65  -3.82    +64.1493
iter: 113 05:21:12  -851.622934c -4.74  -3.90    +64.1391
iter: 114 05:22:40  -851.624471c -5.27  -4.10c   +64.1432
iter: 115 05:24:08  -851.620765c -5.12  -4.16c   +64.1489
iter: 116 05:25:36  -851.622966c -5.69  -3.94    +64.1580
iter: 117 05:27:04  -851.621703c -6.10  -4.21c   +64.1679
iter: 118 05:28:32  -851.621360c -6.46  -4.13c   +64.1771
iter: 119 05:30:00  -851.622858c -5.78  -4.01c   +64.1402
iter: 120 05:31:28  -851.623017c -6.44  -4.10c   +64.1660
iter: 121 05:32:56  -851.623756c -6.23  -4.22c   +64.1556
iter: 122 05:34:24  -851.624181c -6.49  -4.15c   +64.1712
iter: 123 05:35:52  -851.624806c -6.25  -4.31c   +64.1685
iter: 124 05:37:20  -851.626132c -5.85  -4.39c   +64.1658
iter: 125 05:38:48  -851.624592c -6.02  -4.39c   +64.1774
iter: 126 05:40:16  -851.624496c -6.59  -4.37c   +64.1904
iter: 127 05:41:44  -851.625559c -6.01  -4.37c   +64.1701
iter: 128 05:43:13  -851.625264c -6.77  -4.52c   +64.1910
iter: 129 05:44:41  -851.626634c -5.88  -4.49c   +64.1734
iter: 130 05:46:09  -851.626157c -7.03  -4.43c   +64.1814
iter: 131 05:47:37  -851.626851c -6.58  -4.66c   +64.1877
iter: 132 05:49:05  -851.619679c -4.55  -4.54c   +64.1173
iter: 133 05:50:33  -851.609132c -3.91  -4.00c   +63.9838
iter: 134 05:52:01  -851.616007c -4.68  -3.50    +64.0644
iter: 135 05:53:29  -851.616950c -5.47  -3.77    +64.0652
iter: 136 05:54:57  -851.619407c -5.17  -3.81    +64.0745
iter: 137 05:56:26  -851.623810c -4.73  -3.93    +64.0919
iter: 138 05:57:54  -851.610261c -3.94  -4.15c   +64.0312
iter: 139 05:59:22  -851.616037c -4.98  -3.58    +64.0641
iter: 140 06:00:50  -851.611491c -4.82  -3.70    +64.0469
iter: 141 06:02:19  -851.611647c -5.89  -3.60    +64.0603
iter: 142 06:03:47  -851.612176c -6.23  -3.62    +64.0745
iter: 143 06:05:15  -851.613270c -5.36  -3.68    +64.0940
iter: 144 06:06:43  -851.612444c -5.88  -3.57    +64.0967
iter: 145 06:08:12  -851.615218c -5.40  -3.70    +64.1367
iter: 146 06:09:40  -851.613022c -5.69  -3.58    +64.1259
iter: 147 06:11:08  -851.614094c -5.79  -3.72    +64.1272
iter: 148 06:12:36  -851.614826c -5.92  -3.86    +64.1359
iter: 149 06:14:05  -851.615550c -5.85  -3.90    +64.1340
iter: 150 06:15:32  -851.615957c -5.98  -3.88    +64.1438
iter: 151 06:17:01  -851.616666c -5.91  -3.98    +64.1412
iter: 152 06:18:29  -851.617650c -5.98  -3.93    +64.1547
iter: 153 06:19:58  -851.617750c -6.08  -4.00    +64.1628
iter: 154 06:21:26  -851.618360c -6.08  -4.11c   +64.1578
iter: 155 06:22:55  -851.619093c -6.17  -4.24c   +64.1624
iter: 156 06:24:23  -851.619748c -6.18  -4.40c   +64.1624
iter: 157 06:25:52  -851.620479c -6.15  -4.34c   +64.1687
iter: 158 06:27:20  -851.621004c -6.27  -4.51c   +64.1690
iter: 159 06:28:49  -851.621726c -6.22  -4.48c   +64.1725
iter: 160 06:30:17  -851.615042c -4.55  -4.43c   +64.1549
iter: 161 06:31:45  -851.605076c -3.92  -4.15c   +64.1149
iter: 162 06:33:14  -851.621807c -3.79  -3.62    +64.1785
iter: 163 06:34:42  -851.612795c -4.61  -4.36c   +64.1408
iter: 164 06:36:10  -851.608493c -4.56  -3.96    +64.1125
iter: 165 06:37:39  -851.613715c -4.78  -3.74    +64.1398
iter: 166 06:39:08  -851.620968c -4.31  -4.04c   +64.1758
iter: 167 06:40:33  -851.617220c -5.40  -4.51c   +64.1567
iter: 168 06:41:57  -851.627409c -4.26  -4.38c   +64.2030
iter: 169 06:43:21  -851.610753c -3.87  -3.97    +64.1201
iter: 170 06:44:46  -851.605745c -4.13  -3.84    +64.0809
iter: 171 06:46:10  -851.618708c -3.94  -3.60    +64.1661
iter: 172 06:47:35  -851.606705c -4.08  -4.62c   +64.0824
iter: 173 06:48:59  -851.597616c -3.76  -3.63    +63.9920
iter: 174 06:50:23  -851.622084c -3.29  -3.34    +64.2068
iter: 175 06:51:48  -851.624960c -4.21  -4.27c   +64.2180
iter: 176 06:53:12  -851.627216c -4.74  -4.11c   +64.2227
iter: 177 06:54:37  -851.617982c -4.37  -3.99    +64.1971
iter: 178 06:56:01  -851.617296c -5.35  -4.41c   +64.1957
iter: 179 06:57:26  -851.618823c -5.96  -4.27c   +64.1999
iter: 180 06:58:50  -851.620153c -5.75  -4.55c   +64.2075
iter: 181 07:00:14  -851.617764c -5.54  -4.73c   +64.2008
iter: 182 07:01:38  -851.615083c -5.15  -4.42c   +64.1919
iter: 183 07:03:03  -851.627477c -4.09  -4.11c   +64.2271
iter: 184 07:04:27  -851.603042c -3.45  -4.00    +64.1477
iter: 185 07:05:51  -851.626270c -3.58  -3.54    +64.2200
iter: 186 07:07:16  -851.627172c -4.69  -4.06c   +64.2194
iter: 187 07:08:40  -851.627661c -5.40  -4.04c   +64.2191
iter: 188 07:10:03  -851.626058c -5.87  -4.01c   +64.1968
iter: 189 07:11:25  -851.621184c -4.89  -4.09c   +64.1087
iter: 190 07:12:48  -851.626941c -4.93  -4.37c   +64.1948
iter: 191 07:14:11  -851.618406c -4.52  -4.01c   +64.0709
iter: 192 07:15:34  -851.622899c -5.28  -4.28c   +64.1492
iter: 193 07:16:57  -851.621574c -6.37  -4.30c   +64.1368
iter: 194 07:18:21  -851.620564c -5.99  -4.46c   +64.1322
iter: 195 07:19:44  -851.621410c -6.63  -4.68c   +64.1491
iter: 196 07:21:07  -851.623683c -5.50  -4.58c   +64.1820
iter: 197 07:22:31  -851.622562c -6.60  -4.25c   +64.1649
iter: 198 07:23:54  -851.629995c -4.60  -4.37c   +64.2479
iter: 199 07:25:17  -851.620731c -4.56  -3.85    +64.1494
iter: 200 07:26:41  -851.619619c -5.28  -4.71c   +64.1418
iter: 201 07:28:04  -851.621971c -5.72  -4.64c   +64.1642
iter: 202 07:29:27  -851.617319c -4.93  -4.53c   +64.1246
iter: 203 07:30:50  -851.608336c -4.06  -4.29c   +64.0529
iter: 204 07:32:13  -851.609990c -5.33  -3.66    +64.0742
iter: 205 07:33:37  -851.617348c -4.35  -3.72    +64.1634
iter: 206 07:35:01  -851.618485c -5.18  -4.26c   +64.1657
iter: 207 07:36:24  -851.615526c -5.34  -4.34c   +64.1508
iter: 208 07:37:47  -851.616343c -6.44  -4.09c   +64.1524
iter: 209 07:39:10  -851.616309c -7.29  -4.14c   +64.1524
iter: 210 07:40:33  -851.617090c -6.28  -4.16c   +64.1508
iter: 211 07:41:56  -851.616048c -6.30  -4.26c   +64.1472
iter: 212 07:43:19  -851.615432c -6.28  -4.15c   +64.1489
iter: 213 07:44:42  -851.617573c -5.52  -4.11c   +64.1590
iter: 214 07:46:06  -851.614261c -5.16  -4.30c   +64.1320
iter: 215 07:47:29  -851.614534c -6.50  -4.00    +64.1337
iter: 216 07:48:52  -851.615425c -6.33  -4.01c   +64.1408
iter: 217 07:50:16  -851.615012c -7.11  -4.02c   +64.1424
iter: 218 07:51:39  -851.615732c -6.30  -4.11c   +64.1475
iter: 219 07:53:02  -851.615435c -6.57  -4.10c   +64.1394
iter: 220 07:54:26  -851.616759c -5.90  -4.14c   +64.1688
iter: 221 07:55:49  -851.616393c -6.39  -4.01c   +64.1379
iter: 222 07:57:12  -851.617185c -6.14  -4.18c   +64.1491
iter: 223 07:58:35  -851.618282c -5.94  -4.55c   +64.1593
iter: 224 07:59:59  -851.619113c -6.00  -4.59c   +64.1649
iter: 225 08:01:22  -851.620733c -5.66  -4.61c   +64.1799
iter: 226 08:02:45  -851.616242c -4.97  -4.40c   +64.1473
iter: 227 08:04:08  -851.600599c -3.60  -4.41c   +64.0021
iter: 228 08:05:32  -851.622036c -3.59  -3.47    +64.1905
iter: 229 08:06:55  -851.619865c -5.11  -4.20c   +64.1697
iter: 230 08:08:18  -851.619949c -5.88  -4.54c   +64.1683
iter: 231 08:09:41  -851.620578c -6.06  -4.53c   +64.1789
iter: 232 08:11:04  -851.623077c -5.35  -4.43c   +64.2016
iter: 233 08:12:28  -851.607631c -3.79  -4.14c   +64.0242
iter: 234 08:13:52  -851.601058c -3.86  -3.68    +63.9107
iter: 235 08:15:15  -851.620960c -3.51  -3.42    +64.1884
iter: 236 08:16:39  -851.604326c -3.84  -4.30c   +63.9623
iter: 237 08:18:02  -851.597326c -3.78  -3.53    +63.8139
iter: 238 08:19:25  -851.620165c -3.29  -3.29    +64.2040
iter: 239 08:20:48  -851.613766c -4.91  -4.38c   +64.1073
iter: 240 08:22:12  -851.610905c -5.07  -4.06c   +64.0553
iter: 241 08:23:35  -851.610281c -5.75  -3.84    +64.0331
iter: 242 08:24:58  -851.610419c -6.33  -3.80    +64.0314
iter: 243 08:26:22  -851.611075c -6.28  -3.79    +64.0321
iter: 244 08:27:45  -851.612912c -5.31  -3.82    +64.0381
iter: 245 08:29:09  -851.611636c -5.07  -3.87    +64.0275
iter: 246 08:30:32  -851.614255c -4.97  -3.56    +64.0493
iter: 247 08:31:55  -851.612299c -5.75  -3.74    +64.0371
iter: 248 08:33:18  -851.613062c -5.96  -3.91    +64.0591
iter: 249 08:34:42  -851.614159c -5.96  -4.05c   +64.0713
iter: 250 08:36:05  -851.613933c -6.41  -3.96    +64.0717
iter: 251 08:37:29  -851.614877c -5.99  -4.23c   +64.0730
iter: 252 08:38:52  -851.614081c -6.37  -4.12c   +64.0735
iter: 253 08:40:15  -851.614101c -6.61  -4.22c   +64.0865
iter: 254 08:41:38  -851.614900c -6.22  -4.28c   +64.0880
iter: 255 08:43:02  -851.614753c -6.87  -4.37c   +64.0900
iter: 256 08:44:25  -851.615748c -6.15  -4.43c   +64.0994
iter: 257 08:45:48  -851.615685c -7.12  -4.53c   +64.0994
iter: 258 08:47:12  -851.616463c -6.27  -4.63c   +64.1087
iter: 259 08:48:35  -851.613171c -5.13  -4.57c   +64.0702
iter: 260 08:49:58  -851.609728c -4.83  -4.26c   +64.0238
iter: 261 08:51:21  -851.610924c -6.12  -3.88    +64.0367
iter: 262 08:52:44  -851.612688c -5.60  -3.96    +64.0560
iter: 263 08:54:06  -851.612507c -7.08  -4.08c   +64.0525
iter: 264 08:55:30  -851.615183c -5.25  -4.03c   +64.0925
iter: 265 08:56:52  -851.614638c -6.06  -4.30c   +64.0713
iter: 266 08:58:15  -851.616337c -5.48  -3.97    +64.1041
iter: 267 08:59:38  -851.617599c -5.69  -4.29c   +64.1155
iter: 268 09:01:00  -851.616688c -6.50  -4.23c   +64.1056
iter: 269 09:02:23  -851.617334c -6.60  -4.30c   +64.1130
iter: 270 09:03:46  -851.616932c -6.89  -4.41c   +64.1141
iter: 271 09:05:09  -851.616854c -6.28  -4.31c   +64.1433
iter: 272 09:06:32  -851.617787c -6.05  -4.24c   +64.1279
iter: 273 09:07:55  -851.618208c -6.50  -4.40c   +64.1399
iter: 274 09:09:18  -851.618310c -6.62  -4.37c   +64.1223
iter: 275 09:10:41  -851.619008c -5.82  -4.24c   +64.1693
iter: 276 09:12:04  -851.619312c -6.01  -4.11c   +64.1319
iter: 277 09:13:26  -851.620230c -5.96  -4.16c   +64.1278
iter: 278 09:14:49  -851.620910c -6.21  -4.15c   +64.1354
iter: 279 09:16:13  -851.619786c -6.20  -4.08c   +64.1275
iter: 280 09:17:36  -851.620819c -6.23  -4.07c   +64.1358
iter: 281 09:18:59  -851.620988c -6.54  -4.10c   +64.1350
iter: 282 09:20:22  -851.621496c -6.09  -4.14c   +64.1394
iter: 283 09:21:45  -851.622322c -6.03  -4.13c   +64.1455
iter: 284 09:23:08  -851.623006c -6.04  -4.06c   +64.1535
iter: 285 09:24:31  -851.623017c -6.48  -4.18c   +64.1526
iter: 286 09:25:54  -851.624091c -6.05  -4.19c   +64.1582
iter: 287 09:27:17  -851.624076c -6.95  -4.21c   +64.1549
iter: 288 09:28:41  -851.625365c -5.75  -4.11c   +64.1481
iter: 289 09:30:04  -851.625308c -6.44  -4.07c   +64.1512
iter: 290 09:31:28  -851.626176c -6.12  -4.13c   +64.1586
iter: 291 09:32:52  -851.625535c -6.86  -4.18c   +64.1575
iter: 292 09:34:15  -851.625841c -6.42  -4.17c   +64.1728
iter: 293 09:35:39  -851.626423c -6.20  -4.14c   +64.1561
iter: 294 09:37:02  -851.626583c -6.69  -4.32c   +64.1545
iter: 295 09:38:26  -851.627380c -6.20  -4.30c   +64.1516
iter: 296 09:39:49  -851.627017c -6.89  -4.33c   +64.1531
iter: 297 09:41:13  -851.628022c -6.29  -4.27c   +64.1608
iter: 298 09:42:36  -851.627822c -6.90  -4.31c   +64.1593
iter: 299 09:44:00  -851.628591c -6.25  -4.40c   +64.1507
iter: 300 09:45:23  -851.628020c -6.87  -4.38c   +64.1508
iter: 301 09:46:47  -851.627154c -6.14  -4.45c   +64.1427
iter: 302 09:48:11  -851.628208c -6.33  -4.37c   +64.1424
iter: 303 09:49:35  -851.625964c -5.60  -4.47c   +64.1483
iter: 304 09:50:58  -851.622828c -5.01  -4.40c   +64.1680
iter: 305 09:52:22  -851.620401c -4.97  -4.09c   +64.1838
iter: 306 09:53:45  -851.617043c -4.55  -3.89    +64.2274
iter: 307 09:55:09  -851.615585c -4.67  -3.67    +64.2753
iter: 308 09:56:33  -851.615365c -4.95  -3.56    +64.3025
iter: 309 09:57:56  -851.615991c -5.25  -3.50    +64.2702
iter: 310 09:59:20  -851.615188c -5.11  -3.57    +64.3020
iter: 311 10:00:44  -851.616151c -5.55  -3.49    +64.2940
iter: 312 10:02:08  -851.619933c -5.18  -3.52    +64.2992
iter: 313 10:03:31  -851.619575c -4.93  -3.34    +64.2725
iter: 314 10:04:55  -851.616411c -5.17  -3.36    +64.2674
iter: 315 10:06:19  -851.619389c -4.97  -3.44    +64.2340
iter: 316 10:07:43  -851.617515c -5.13  -3.39    +64.2934
iter: 317 10:09:07  -851.615326c -5.73  -3.50    +64.2735
iter: 318 10:10:30  -851.616748c -5.53  -3.88    +64.2646
iter: 319 10:11:54  -851.617317c -5.79  -3.83    +64.2544
iter: 320 10:13:18  -851.617590c -5.88  -3.77    +64.2544
iter: 321 10:14:42  -851.618043c -5.86  -3.90    +64.2433
iter: 322 10:16:06  -851.618154c -5.99  -3.90    +64.2367
iter: 323 10:17:30  -851.619263c -5.96  -4.13c   +64.2444
iter: 324 10:18:53  -851.619128c -6.50  -4.05c   +64.2449
iter: 325 10:20:16  -851.620019c -6.10  -4.24c   +64.2397
iter: 326 10:21:38  -851.620106c -6.79  -4.31c   +64.2381
iter: 327 10:23:01  -851.621138c -6.13  -4.37c   +64.2364
iter: 328 10:24:24  -851.619902c -6.14  -4.32c   +64.2400
iter: 329 10:25:46  -851.617817c -5.52  -4.31c   +64.2507
iter: 330 10:27:08  -851.620602c -5.50  -4.44c   +64.2384
iter: 331 10:28:31  -851.614246c -4.68  -4.36c   +64.2486
iter: 332 10:29:53  -851.614458c -5.84  -4.08c   +64.2367
iter: 333 10:31:16  -851.615169c -6.36  -4.10c   +64.2143
iter: 334 10:32:39  -851.617778c -5.29  -4.22c   +64.1844
iter: 335 10:34:02  -851.619575c -5.36  -4.50c   +64.1752
iter: 336 10:35:25  -851.616605c -5.42  -4.52c   +64.1843
iter: 337 10:36:48  -851.607282c -4.15  -4.44c   +64.2050
iter: 338 10:38:11  -851.620772c -4.06  -3.70    +64.1863
iter: 339 10:39:34  -851.614434c -5.01  -4.42c   +64.1977
iter: 340 10:40:57  -851.598443c -3.64  -4.15c   +64.2230
iter: 341 10:42:21  -851.626655c -3.38  -3.42    +64.1998
iter: 342 10:43:44  -851.642809c -3.66  -3.92    +64.2081
iter: 343 10:45:06  -851.625284c -4.20  -3.53    +64.2044
iter: 344 10:46:29  -851.618769c -4.40  -4.03c   +64.2078
iter: 345 10:47:52  -851.624076c -5.16  -4.90c   +64.2102
iter: 346 10:49:15  -851.598415c -3.35  -4.12c   +64.1898
iter: 347 10:50:38  -851.636516c -3.21  -3.42    +64.2294
iter: 348 10:52:01  -851.660125c -3.46  -3.62    +64.2551
iter: 349 10:53:25  -851.641224c -4.30  -3.33    +64.2346
iter: 350 10:54:48  -851.650422c -4.76  -3.55    +64.2439
iter: 351 10:56:10  -851.630598c -4.01  -3.43    +64.2286
iter: 352 10:57:34  -851.583611c -2.84  -3.79    +64.1924
iter: 353 10:58:57  -851.644177c -2.90  -3.23    +64.2499
iter: 354 11:00:20  -851.670913c -3.34  -3.48    +64.2760
iter: 355 11:01:42  -851.661329c -4.59  -3.25    +64.2622
iter: 356 11:03:05  -851.673631c -4.34  -3.32    +64.2717
iter: 357 11:04:28  -851.669322c -5.27  -3.23    +64.2622
iter: 358 11:05:50  -851.678504c -4.60  -3.26    +64.2587
iter: 359 11:07:13  -851.675839c -5.37  -3.20    +64.2791
iter: 360 11:08:36  -851.676795c -5.17  -3.23    +64.2872
iter: 361 11:10:00  -851.691847c -4.43  -3.21    +64.2756
iter: 362 11:11:22  -851.686552c -4.32  -3.01    +64.2649
iter: 363 11:12:45  -851.667746c -4.73  -3.05    +64.2357
iter: 364 11:14:07  -851.666905c -5.12  -3.30    +64.0972
iter: 365 11:15:29  -851.672780c -4.86  -3.33    +64.0084
iter: 366 11:16:51  -851.666620c -5.18  -3.28    +63.9786
iter: 367 11:18:12  -851.667094c -5.42  -3.40    +63.9061
iter: 368 11:19:34  -851.669199c -5.24  -3.42    +63.8755
iter: 369 11:20:55  -851.668815c -5.16  -3.38    +63.8138
iter: 370 11:22:17  -851.670118c -5.15  -3.41    +63.8122
iter: 371 11:23:38  -851.666849c -5.33  -3.39    +63.7784
iter: 372 11:24:59  -851.671274c -5.14  -3.65    +63.7131
iter: 373 11:26:20  -851.667275c -5.53  -3.42    +63.7060
iter: 374 11:27:40  -851.667666c -5.76  -3.70    +63.6531
iter: 375 11:29:01  -851.668483c -6.01  -3.76    +63.6212
iter: 376 11:30:22  -851.668608c -6.09  -3.79    +63.5827
iter: 377 11:31:42  -851.669283c -6.09  -3.83    +63.5397
iter: 378 11:33:03  -851.670242c -6.02  -3.87    +63.4905
iter: 379 11:34:24  -851.668721c -5.97  -3.87    +63.5710
iter: 380 11:35:44  -851.669020c -6.49  -3.84    +63.5582
iter: 381 11:37:05  -851.669919c -6.36  -3.82    +63.5230
iter: 382 11:38:25  -851.670364c -6.36  -3.82    +63.4878
iter: 383 11:39:46  -851.671134c -6.14  -3.80    +63.4548
iter: 384 11:41:07  -851.671973c -5.98  -3.74    +63.4095
iter: 385 11:42:27  -851.672100c -5.83  -3.81    +63.3816
iter: 386 11:43:48  -851.673319c -5.82  -3.85    +63.3531
iter: 387 11:45:09  -851.673551c -5.92  -3.77    +63.3416
iter: 388 11:46:29  -851.674457c -5.89  -3.96    +63.3126
iter: 389 11:47:50  -851.674704c -6.24  -3.91    +63.2974
iter: 390 11:49:11  -851.675878c -5.99  -4.09c   +63.2623
iter: 391 11:50:31  -851.676439c -6.28  -4.06c   +63.2535
iter: 392 11:51:52  -851.677106c -6.12  -4.07c   +63.2361
iter: 393 11:53:12  -851.678915c -5.78  -4.16c   +63.2019
iter: 394 11:54:33  -851.677930c -6.51  -4.06c   +63.2102
iter: 395 11:55:54  -851.678447c -6.47  -4.30c   +63.1854
iter: 396 11:57:14  -851.678934c -6.63  -4.22c   +63.1807
iter: 397 11:58:35  -851.680046c -6.13  -4.34c   +63.1463
iter: 398 12:00:02  -851.680804c -6.36  -4.44c   +63.1320
iter: 399 12:01:30  -851.681203c -6.52  -4.26c   +63.1208
iter: 400 12:02:58  -851.682621c -6.06  -4.42c   +63.0837
iter: 401 12:04:26  -851.679072c -5.48  -4.31c   +63.1706
iter: 402 12:05:54  -851.675557c -5.22  -4.43c   +63.2558
iter: 403 12:07:21  -851.676506c -6.47  -4.34c   +63.2234
iter: 404 12:08:49  -851.677137c -6.72  -4.36c   +63.2065
iter: 405 12:10:16  -851.677205c -7.27  -4.49c   +63.2071
iter: 406 12:11:44  -851.678128c -6.36  -4.48c   +63.1715
iter: 407 12:13:12  -851.678714c -6.64  -4.47c   +63.1598
iter: 408 12:14:40  -851.679389c -6.51  -4.71c   +63.1380
iter: 409 12:16:08  -851.679660c -6.93  -4.54c   +63.1326
iter: 410 12:17:35  -851.680828c -6.25  -4.72c   +63.0986
iter: 411 12:19:03  -851.676681c -5.32  -4.62c   +63.2181
iter: 412 12:20:31  -851.663379c -3.92  -4.57c   +63.7380
iter: 413 12:21:59  -851.663083c -4.79  -3.73    +63.7632
iter: 414 12:23:26  -851.662286c -5.00  -3.70    +63.8009
iter: 415 12:24:53  -851.662042c -5.26  -3.64    +63.8160
iter: 416 12:26:21  -851.662169c -5.47  -3.60    +63.8157
iter: 417 12:27:49  -851.663230c -5.39  -3.58    +63.8078
iter: 418 12:29:16  -851.663208c -6.02  -3.51    +63.8070
iter: 419 12:30:44  -851.662762c -5.45  -3.54    +63.8042
iter: 420 12:32:12  -851.663698c -5.46  -3.48    +63.7940
iter: 421 12:33:39  -851.663458c -5.26  -3.47    +63.7869
iter: 422 12:35:07  -851.661806c -5.40  -3.53    +63.7914
iter: 423 12:36:35  -851.661443c -5.76  -3.53    +63.7727
iter: 424 12:38:02  -851.661549c -5.86  -3.71    +63.7445
iter: 425 12:39:30  -851.662319c -5.81  -3.71    +63.7308
iter: 426 12:40:58  -851.661754c -5.66  -3.66    +63.7298
iter: 427 12:42:25  -851.661457c -5.84  -3.77    +63.7071
iter: 428 12:43:53  -851.663205c -5.69  -3.83    +63.6882
iter: 429 12:45:21  -851.661901c -5.86  -3.71    +63.6807
iter: 430 12:46:49  -851.662112c -6.02  -3.84    +63.6707
iter: 431 12:48:16  -851.662234c -6.20  -3.94    +63.6596
iter: 432 12:49:44  -851.662261c -6.46  -4.03c   +63.6384
iter: 433 12:51:11  -851.662867c -6.29  -4.22c   +63.6213
iter: 434 12:52:39  -851.662304c -6.71  -4.20c   +63.6384
iter: 435 12:54:07  -851.662866c -6.55  -4.19c   +63.6254
iter: 436 12:55:34  -851.662894c -6.58  -4.17c   +63.6177
iter: 437 12:57:02  -851.663164c -6.39  -4.14c   +63.5984
iter: 438 12:58:30  -851.663442c -6.44  -4.22c   +63.5904
iter: 439 12:59:58  -851.663543c -6.75  -4.25c   +63.5791
iter: 440 13:01:26  -851.664280c -6.20  -4.43c   +63.5583
iter: 441 13:02:55  -851.663481c -6.45  -4.36c   +63.5806
iter: 442 13:04:22  -851.661167c -5.17  -4.49c   +63.6625
iter: 443 13:05:51  -851.661435c -6.58  -4.25c   +63.6475
iter: 444 13:07:19  -851.662047c -6.33  -4.30c   +63.6212
iter: 445 13:08:47  -851.662110c -7.04  -4.36c   +63.6179
iter: 446 13:10:15  -851.662450c -6.68  -4.38c   +63.6039
iter: 447 13:11:44  -851.662677c -6.70  -4.41c   +63.5911
iter: 448 13:13:11  -851.662778c -7.38  -4.55c   +63.5870
iter: 449 13:14:39  -851.663056c -6.74  -4.59c   +63.5793
iter: 450 13:16:06  -851.663703c -6.20  -4.59c   +63.5614
iter: 451 13:17:34  -851.662828c -6.24  -4.62c   +63.5853
iter: 452 13:19:02  -851.660475c -5.09  -4.66c   +63.6543
iter: 453 13:20:30  -851.660436c -6.07  -4.13c   +63.6603
iter: 454 13:21:58  -851.660732c -6.78  -4.11c   +63.6486
iter: 455 13:23:25  -851.661611c -5.90  -4.19c   +63.6225
iter: 456 13:24:53  -851.662619c -5.73  -4.33c   +63.5956
iter: 457 13:26:21  -851.661979c -6.29  -4.54c   +63.6164
iter: 458 13:27:48  -851.663121c -5.77  -4.25c   +63.5804
iter: 459 13:29:15  -851.662421c -6.60  -4.82c   +63.5929
iter: 460 13:30:43  -851.662730c -7.07  -4.56c   +63.5823
iter: 461 13:32:11  -851.662117c -6.37  -4.76c   +63.6064
iter: 462 13:33:38  -851.660290c -5.20  -4.53c   +63.6959
iter: 463 13:35:06  -851.659585c -5.47  -4.09c   +63.7431
iter: 464 13:36:34  -851.658813c -5.28  -3.97    +63.8212
iter: 465 13:38:02  -851.658430c -5.15  -3.83    +63.9167
iter: 466 13:39:29  -851.658691c -6.16  -3.72    +63.8890
iter: 467 13:40:57  -851.659150c -6.31  -3.77    +63.9005
iter: 468 13:42:25  -851.658815c -6.48  -3.71    +63.8842
iter: 469 13:43:53  -851.658990c -6.50  -3.78    +63.8796
iter: 470 13:45:21  -851.660503c -5.82  -3.81    +63.8829
iter: 471 13:46:48  -851.659749c -5.41  -3.66    +63.8765
iter: 472 13:48:15  -851.659536c -5.96  -3.70    +63.8561
iter: 473 13:49:41  -851.659331c -5.95  -3.89    +63.8455
iter: 474 13:51:08  -851.659697c -6.07  -3.97    +63.8362
iter: 475 13:52:35  -851.659625c -6.39  -3.95    +63.8333
iter: 476 13:54:02  -851.660108c -6.21  -4.17c   +63.8290
iter: 477 13:55:30  -851.660256c -6.30  -4.09c   +63.8270
iter: 478 13:56:56  -851.660179c -6.42  -4.09c   +63.8164
iter: 479 13:58:23  -851.660737c -6.42  -4.18c   +63.8103
iter: 480 13:59:51  -851.660758c -6.53  -4.16c   +63.8120
iter: 481 14:01:18  -851.660895c -6.50  -4.33c   +63.8045
iter: 482 14:02:45  -851.660972c -6.80  -4.29c   +63.7998
iter: 483 14:04:11  -851.661396c -6.41  -4.46c   +63.7895
iter: 484 14:05:38  -851.661387c -7.22  -4.43c   +63.7914
iter: 485 14:07:05  -851.661517c -6.72  -4.42c   +63.7816
iter: 486 14:08:32  -851.661679c -6.97  -4.48c   +63.7769
iter: 487 14:09:59  -851.662217c -6.25  -4.55c   +63.7651
iter: 488 14:11:27  -851.661793c -6.87  -4.43c   +63.7733
iter: 489 14:12:54  -851.661619c -6.83  -4.63c   +63.7786
iter: 490 14:14:21  -851.662316c -6.10  -4.59c   +63.7585
iter: 491 14:15:48  -851.663478c -5.50  -4.53c   +63.7260
iter: 492 14:17:15  -851.664206c -5.75  -4.32c   +63.7042
iter: 493 14:18:43  -851.661520c -4.97  -4.15c   +63.7884
iter: 494 14:20:07  -851.660620c -5.39  -4.68c   +63.8195
iter: 495 14:21:31  -851.662859c -5.17  -4.47c   +63.7486
iter: 496 14:22:56  -851.662163c -6.60  -4.47c   +63.7671
iter: 497 14:24:21  -851.662541c -6.67  -4.81c   +63.7549
iter: 498 14:25:45  -851.662348c -7.43c -4.64c   +63.7610

Converged after 498 iterations.

Dipole moment: (-1.732405, 13.267609, 14.381834) |e|*Ang

Total magnetic moment: (0.000000, 0.000000, 63.761043)
Local magnetic moments:
   0 Co ( 0.000000,  0.000000,  1.121785)
   1 Fe ( 0.000000,  0.000000,  2.217626)
   2 Co ( 0.000000,  0.000000,  1.442556)
   3 Co ( 0.000000,  0.000000,  1.285920)
   4 Co ( 0.000000,  0.000000,  1.261391)
   5 Ni ( 0.000000,  0.000000,  0.211715)
   6 Fe ( 0.000000,  0.000000,  1.974434)
   7 Al ( 0.000000,  0.000000, -0.018101)
   8 Fe ( 0.000000,  0.000000, -1.531537)
   9 Cr ( 0.000000,  0.000000,  0.898896)
  10 Al ( 0.000000,  0.000000, -0.015104)
  11 Co ( 0.000000,  0.000000,  1.038901)
  12 Co ( 0.000000,  0.000000,  1.064547)
  13 Fe ( 0.000000,  0.000000,  2.249877)
  14 Al ( 0.000000,  0.000000, -0.030481)
  15 Co ( 0.000000,  0.000000,  1.247442)
  16 Co ( 0.000000,  0.000000,  1.299675)
  17 Co ( 0.000000,  0.000000,  1.132620)
  18 Co ( 0.000000,  0.000000,  1.082960)
  19 Al ( 0.000000,  0.000000, -0.041441)
  20 Fe ( 0.000000,  0.000000,  2.217185)
  21 Fe ( 0.000000,  0.000000,  2.055745)
  22 Cr ( 0.000000,  0.000000, -1.211111)
  23 Al ( 0.000000,  0.000000, -0.034792)
  24 Co ( 0.000000,  0.000000,  1.027016)
  25 Fe ( 0.000000,  0.000000,  2.232083)
  26 Fe ( 0.000000,  0.000000,  2.267360)
  27 Co ( 0.000000,  0.000000,  1.456223)
  28 Cr ( 0.000000,  0.000000, -2.089610)
  29 Ni ( 0.000000,  0.000000,  0.498857)
  30 Fe ( 0.000000,  0.000000,  1.985631)
  31 Fe ( 0.000000,  0.000000,  2.118521)
  32 Co ( 0.000000,  0.000000,  1.149828)
  33 Fe ( 0.000000,  0.000000,  1.809868)
  34 Co ( 0.000000,  0.000000,  1.151512)
  35 Cr ( 0.000000,  0.000000, -1.523915)
  36 Cr ( 0.000000,  0.000000, -1.599747)
  37 Cr ( 0.000000,  0.000000, -0.180702)
  38 Cr ( 0.000000,  0.000000,  0.785604)
  39 Cr ( 0.000000,  0.000000,  0.355088)
  40 Ni ( 0.000000,  0.000000,  0.287660)
  41 Ni ( 0.000000,  0.000000,  0.189178)
  42 Co ( 0.000000,  0.000000,  1.032006)
  43 Cr ( 0.000000,  0.000000,  0.475532)
  44 Cr ( 0.000000,  0.000000, -1.406308)
  45 Fe ( 0.000000,  0.000000,  1.575377)
  46 Fe ( 0.000000,  0.000000,  2.052932)
  47 Co ( 0.000000,  0.000000,  0.400384)
  48 Ni ( 0.000000,  0.000000,  0.270435)
  49 Al ( 0.000000,  0.000000, -0.023820)
  50 Fe ( 0.000000,  0.000000,  2.109241)
  51 Co ( 0.000000,  0.000000,  1.012917)
  52 Cr ( 0.000000,  0.000000, -1.714010)
  53 Fe ( 0.000000,  0.000000,  2.360864)
  54 Ni ( 0.000000,  0.000000,  0.136598)
  55 Fe ( 0.000000,  0.000000,  2.199653)
  56 Cr ( 0.000000,  0.000000, -1.430780)
  57 Ni ( 0.000000,  0.000000,  0.121526)
  58 Fe ( 0.000000,  0.000000,  1.753272)
  59 Fe ( 0.000000,  0.000000,  1.598330)
  60 Cr ( 0.000000,  0.000000, -1.763161)
  61 Ni ( 0.000000,  0.000000,  0.021502)
  62 Ni ( 0.000000,  0.000000,  0.299968)
  63 Co ( 0.000000,  0.000000,  1.168240)
  64 Fe ( 0.000000,  0.000000,  2.329792)
  65 Cr ( 0.000000,  0.000000, -1.660994)
  66 Ni ( 0.000000,  0.000000,  0.372626)
  67 Fe ( 0.000000,  0.000000,  2.130271)
  68 Al ( 0.000000,  0.000000, -0.051954)
  69 Fe ( 0.000000,  0.000000,  1.835174)
  70 Cr ( 0.000000,  0.000000,  0.685438)
  71 Ni ( 0.000000,  0.000000,  0.133885)
  72 Cr ( 0.000000,  0.000000, -0.252750)
  73 Fe ( 0.000000,  0.000000,  2.219947)
  74 Ni ( 0.000000,  0.000000,  0.299893)
  75 Co ( 0.000000,  0.000000,  0.607861)
  76 Ni ( 0.000000,  0.000000,  0.238932)
  77 Cr ( 0.000000,  0.000000,  0.978205)
  78 Cr ( 0.000000,  0.000000, -0.348179)
  79 Ni ( 0.000000,  0.000000,  0.194622)
  80 Fe ( 0.000000,  0.000000,  2.014913)
  81 Cr ( 0.000000,  0.000000, -1.159413)
  82 Cr ( 0.000000,  0.000000,  1.055877)
  83 Al ( 0.000000,  0.000000, -0.029311)
  84 Fe ( 0.000000,  0.000000,  1.774158)
  85 Cr ( 0.000000,  0.000000,  0.958762)
  86 Cr ( 0.000000,  0.000000, -1.812782)
  87 Ni ( 0.000000,  0.000000,  0.317669)
  88 Ni ( 0.000000,  0.000000,  0.334322)
  89 Fe ( 0.000000,  0.000000,  2.463847)
  90 Ni ( 0.000000,  0.000000,  0.148890)
  91 Ni ( 0.000000,  0.000000,  0.285448)
  92 Cr ( 0.000000,  0.000000,  0.138184)
  93 Ni ( 0.000000,  0.000000,  0.221802)
  94 Ni ( 0.000000,  0.000000,  0.147157)
  95 Cr ( 0.000000,  0.000000, -0.315583)
  96 Ni ( 0.000000,  0.000000,  0.064416)
  97 Al ( 0.000000,  0.000000, -0.016039)
  98 Co ( 0.000000,  0.000000,  1.227560)
  99 Ni ( 0.000000,  0.000000,  0.191547)
 100 Co ( 0.000000,  0.000000,  1.430873)
 101 Co ( 0.000000,  0.000000,  1.353993)
 102 Co ( 0.000000,  0.000000,  1.170520)
 103 Ni ( 0.000000,  0.000000,  0.321987)
 104 Al ( 0.000000,  0.000000, -0.017591)
 105 Ni ( 0.000000,  0.000000,  0.175960)
 106 Co ( 0.000000,  0.000000,  0.528982)
 107 Cr ( 0.000000,  0.000000, -0.986113)

Energy contributions relative to reference atoms: (reference = -3548577.034362)

Kinetic:       +183.055132
Potential:     -215.276384
External:        +0.000000
XC:            -853.123709
Entropy (-ST):   -4.546306
Local:          +35.955767
--------------------------
Free energy:   -853.935501
Extrapolated:  -851.662348

Spin contamination: 25.518406 electrons
Showing only first 2 kpts
                      Up                     Down
 Kpt  Band  Eigenvalues  Occupancy  Eigenvalues  Occupancy
  0   488      9.47313    0.99455     10.36095    0.02481
  0   489      9.48329    0.99397     10.37586    0.02145
  0   490      9.50380    0.99261     10.38695    0.01924
  0   491      9.52508    0.99087     10.39525    0.01773

  1   488      9.48424    0.99391     10.36913    0.02291
  1   489      9.48608    0.99380     10.38454    0.01970
  1   490      9.50023    0.99287     10.39055    0.01857
  1   491      9.50347    0.99263     10.40972    0.01538


Fermi level: 9.99381

No gap

Forces in eV/Ang:
  0 Co    0.03802    0.22946    0.07180
  1 Fe    0.12290   -0.01182   -0.34091
  2 Co   -0.13519   -0.44957   -0.15225
  3 Co    0.14278   -0.16060    0.30837
  4 Co   -0.42408   -0.13798    0.24896
  5 Ni   -0.44562    0.08664   -0.20722
  6 Fe   -0.20115   -0.51392    0.09779
  7 Al   -0.78708    0.77648    0.40283
  8 Fe    0.24738    0.24359   -0.51515
  9 Cr    0.06636    0.58240   -0.06236
 10 Al    0.27781   -0.04412   -0.78005
 11 Co    0.00707   -0.00001   -0.61083
 12 Co    0.09393   -0.40454    0.05926
 13 Fe    0.14515   -0.00969   -0.19626
 14 Al    0.00747    0.74432   -1.28621
 15 Co    0.13031   -0.30497    0.24380
 16 Co   -0.27497    0.22005    0.30940
 17 Co   -0.21173   -0.37091    0.04697
 18 Co   -0.01519    0.23271    0.13745
 19 Al    0.38033   -1.17539   -0.01437
 20 Fe    0.04177   -0.62490   -0.09757
 21 Fe   -0.15097   -0.47117    0.10430
 22 Cr    0.31986   -0.78655    0.10752
 23 Al   -0.25159    0.44978   -0.52250
 24 Co    0.44397   -0.00831    0.36451
 25 Fe    0.59504    0.08332   -0.27250
 26 Fe   -0.03657    0.04246   -0.44859
 27 Co    0.26576    0.25396    0.55598
 28 Cr   -1.14910    0.58172   -0.04344
 29 Ni   -0.43466    0.42212   -0.14780
 30 Fe   -0.25713    0.26557    0.00718
 31 Fe    0.02066    0.06250    0.08683
 32 Co    0.15272    0.60542    0.03815
 33 Fe    0.04213    0.07944   -0.30772
 34 Co    0.35784    0.28692   -0.02351
 35 Cr   -0.58738   -0.37623   -0.05977
 36 Cr    0.55122   -0.41218    0.74897
 37 Cr    0.19751   -0.05472   -0.07303
 38 Cr   -0.59505    0.31797    0.14443
 39 Cr    0.01781   -0.87007   -0.16791
 40 Ni   -0.11417    0.27535   -0.37740
 41 Ni   -0.14398   -0.07141    0.01991
 42 Co    0.17365   -0.03880    0.08477
 43 Cr   -0.09872    0.12089   -0.10018
 44 Cr   -0.31768    0.01631    0.78696
 45 Fe    0.07229   -0.14620   -0.22270
 46 Fe    0.38131   -0.36080    0.15927
 47 Co    0.10191    0.21392    0.41731
 48 Ni    0.04989   -0.22940   -0.33407
 49 Al    0.91816   -0.54017    0.17447
 50 Fe    0.25483   -0.51344    0.26534
 51 Co    0.34639    0.04152   -0.38272
 52 Cr    0.66844    0.10511   -0.04266
 53 Fe   -0.01949   -0.04688    0.14450
 54 Ni    0.17990    0.04949   -0.05986
 55 Fe   -0.34309   -0.99697   -0.55673
 56 Cr   -0.39418    0.01055    0.04979
 57 Ni   -0.16421   -0.24028   -0.16173
 58 Fe   -0.29305   -0.07148   -0.34835
 59 Fe   -0.33773   -0.46712   -0.23608
 60 Cr    0.10995    0.88052   -0.96861
 61 Ni   -0.17142    0.72423    0.12362
 62 Ni    0.25092    0.05417    0.01673
 63 Co   -0.15247    0.12465   -0.62033
 64 Fe   -0.33417   -0.11540    0.17149
 65 Cr    0.18425   -0.17474   -0.17445
 66 Ni   -0.20986    0.00800    0.04069
 67 Fe   -0.13821    0.37591   -0.04309
 68 Al   -0.08654    0.21326   -0.15473
 69 Fe    0.22240    0.95482   -0.11267
 70 Cr    0.58707    0.25980    0.52907
 71 Ni    0.09760    0.38134    0.03647
 72 Cr   -0.27729    0.45476   -0.64890
 73 Fe    0.17778   -0.13292    0.43818
 74 Ni   -0.20901    0.12532   -0.06876
 75 Co   -0.20509   -0.22794    0.08759
 76 Ni    0.08625    0.14671    0.14408
 77 Cr   -0.19277    0.30720   -0.14695
 78 Cr    0.31225   -0.22563   -0.09653
 79 Ni    0.08980    0.31336    0.28715
 80 Fe   -0.21177   -0.27992    0.03608
 81 Cr    0.00528   -0.36877    0.19369
 82 Cr   -0.03127    0.21723    0.33749
 83 Al    0.28864   -0.25642   -0.10388
 84 Fe    0.06224   -0.11872    0.06863
 85 Cr    0.89119    0.54788   -0.05503
 86 Cr    0.02493    0.11663    0.31339
 87 Ni    0.22179    0.05375    0.24616
 88 Ni    0.09956   -0.08708    0.26766
 89 Fe   -0.33833   -0.19827    0.00365
 90 Ni   -0.17911   -0.07644   -0.22518
 91 Ni   -0.00652   -0.52055    0.24422
 92 Cr   -0.67986    0.19547    0.14529
 93 Ni    0.05274   -0.31060   -0.19898
 94 Ni    0.11519   -0.22120    0.48848
 95 Cr    0.16753   -0.58976    0.52133
 96 Ni    0.11268   -0.00282    0.10884
 97 Al    0.69596   -0.28045    0.06945
 98 Co    0.44397   -0.58174    0.34901
 99 Ni   -0.31446    0.19766    0.14868
100 Co   -0.07509    0.06228    0.25457
101 Co   -0.04790   -0.10177    0.29345
102 Co   -0.54848    0.14784   -0.00444
103 Ni   -0.08819    0.19466    0.05528
104 Al   -1.26224   -0.16197    0.43133
105 Ni    0.32010    0.44961    0.17056
106 Co    0.26438    0.23938    0.02230
107 Cr    0.25129    0.79713   -0.06095

Timing:                              incl.     excl.
-----------------------------------------------------------
Forces:                             16.412    16.412   0.0% |
Hamiltonian:                         0.614     0.004   0.0% |
 Atomic:                             0.394     0.112   0.0% |
  XC Correction:                     0.283     0.283   0.0% |
 Calculate atomic Hamiltonians:      0.114     0.114   0.0% |
 Communicate:                        0.000     0.000   0.0% |
 Initialize Hamiltonian:             0.000     0.000   0.0% |
 Poisson:                            0.001     0.001   0.0% |
 XC 3D grid:                         0.100     0.100   0.0% |
LCAO initialization:               131.593     0.547   0.0% |
 LCAO eigensolver:                  13.240     0.011   0.0% |
  Calculate projections:             0.414     0.414   0.0% |
  DenseAtomicCorrection:             0.584     0.584   0.0% |
  Distribute overlap matrix:         1.263     1.263   0.0% |
  Orbital Layouts:                   6.322     6.322   0.0% |
  Potential matrix:                  4.055     4.055   0.0% |
  Sum over cells:                    0.591     0.591   0.0% |
 LCAO to grid:                     115.859   115.859   0.3% |
 Set positions (LCAO WFS):           1.946     1.069   0.0% |
  Basic WFS set positions:           0.003     0.003   0.0% |
  Basis functions set positions:     0.001     0.001   0.0% |
  P tci:                             0.501     0.501   0.0% |
  ST tci:                            0.153     0.153   0.0% |
  mktci:                             0.220     0.220   0.0% |
PWDescriptor:                        0.042     0.042   0.0% |
SCF-cycle:                       42287.413     5.214   0.0% |
 Davidson:                       41621.556 10642.595  25.1% |---------|
  Apply H:                         464.951   454.655   1.1% |
   HMM T:                           10.296    10.296   0.0% |
  Subspace diag:                  3989.199     0.304   0.0% |
   calc_h_matrix:                 1519.062   992.410   2.3% ||
    Apply H:                       526.653   515.567   1.2% |
     HMM T:                         11.086    11.086   0.0% |
   diagonalize:                    662.617   662.617   1.6% ||
   rotate_psi:                    1807.214  1807.214   4.3% |-|
  calc. matrices:                 8462.636  7645.435  18.0% |------|
   Apply H:                        817.202   796.832   1.9% ||
    HMM T:                          20.370    20.370   0.0% |
  diagonalize:                   14062.553 14062.553  33.1% |------------|
  rotate_psi:                     3999.621  3999.621   9.4% |---|
 Density:                          349.681     0.012   0.0% |
  Atomic density matrices:          11.681    11.681   0.0% |
  Mix:                              80.143    80.143   0.2% |
  Multipole moments:                 0.227     0.227   0.0% |
  Pseudo density:                  257.618   257.602   0.6% |
   Symmetrize density:               0.016     0.016   0.0% |
 Hamiltonian:                      302.231     1.770   0.0% |
  Atomic:                          193.712    50.004   0.1% |
   XC Correction:                  143.707   143.707   0.3% |
  Calculate atomic Hamiltonians:    59.787    59.787   0.1% |
  Communicate:                       1.275     1.275   0.0% |
  Poisson:                           0.307     0.307   0.0% |
  XC 3D grid:                       45.380    45.380   0.1% |
 Orthonormalize:                     8.731     0.001   0.0% |
  calc_s_matrix:                     1.190     1.190   0.0% |
  inverse-cholesky:                  0.515     0.515   0.0% |
  projections:                       5.075     5.075   0.0% |
  rotate_psi_s:                      1.950     1.950   0.0% |
Set symmetry:                        0.001     0.001   0.0% |
Other:                               2.900     2.900   0.0% |
-----------------------------------------------------------
Total:                                     42438.974 100.0%

Date: Mon Apr 17 14:26:02 2023
