
  ___ ___ ___ _ _ _  
 |   |   |_  | | | | 
 | | | | | . | | | | 
 |__ |  _|___|_____|  22.8.0
 |___|_|             

User:   c.zeng@d0050
Date:   Wed Apr 19 06:22:28 2023
Arch:   x86_64
Pid:    196867
CWD:    /home/c.zeng/projects/hea-corrosion/hea-mlp/data-curation/surface-mcmc/dft-jobs/175
Python: 3.8.1
gpaw:   /home/c.zeng/usr/installs/gpaw/source/gpaw-22.8.0/gpaw
_gpaw:  /home/c.zeng/usr/installs/gpaw/source/gpaw-22.8.0/
        _gpaw.cpython-38-x86_64-linux-gnu.so
ase:    /home/c.zeng/.local/lib/python3.8/site-packages/ase-3.22.1-py3.8.egg/ase (version 3.22.1)
numpy:  /home/c.zeng/.local/lib/python3.8/site-packages/numpy (version 1.24.2)
scipy:  /home/c.zeng/.local/lib/python3.8/site-packages/scipy (version 1.10.1)
libxc:  4.2.3
units:  Angstrom and eV
cores: 30
OpenMP: False
OMP_NUM_THREADS: 1

Input parameters:
  convergence: {energy: 0.0001}
  kpts: [2 2 1]
  maxiter: 666
  mode: {ecut: 350.0,
         name: pw}
  occupations: {fixmagmom: False,
                name: fermi-dirac,
                width: 0.1}
  poissonsolver: {dipolelayer: xy}
  spinpol: True
  symmetry: {point_group: False}
  xc: PBE

System changes: positions, numbers, cell, pbc, initial_charges, initial_magmoms 

Initialize ...

species:
  Ni:
    name: Nickel
    id: 0d9f38a9d6e76a2886f07bb4381f212b
    Z: 28.0
    valence: 16
    core: 12
    charge: 0.0
    file: /home/c.zeng/usr/data/gpaw-setups-0.9.20000/Ni.PBE.gz
    compensation charges: {type: gauss,
                           rc: 0.36,
                           lmax: 2}
    cutoffs: {filter: 2.14,
              core: 1.98}
    valence states:
      #              energy  rcut
      - 4s(2.00)    -5.642   1.164
      - 3p(6.00)   -71.394   1.207
      - 4p(0.00)    -1.226   1.207
      - 3d(8.00)    -8.875   1.138
      -  s          21.570   1.164
      -  d          18.337   1.138
  
    # Using partial waves for Ni as LCAO basis

  Cr:
    name: Chromium
    id: 33f258bda2ca9f93018e70263a35547b
    Z: 24.0
    valence: 6
    core: 18
    charge: 0.0
    file: /home/c.zeng/usr/data/gpaw-setups-0.9.20000/Cr.PBE.gz
    compensation charges: {type: gauss,
                           rc: 0.35,
                           lmax: 2}
    cutoffs: {filter: 2.14,
              core: 3.04}
    valence states:
      #              energy  rcut
      - 4s(1.00)    -4.007   1.164
      - 4p(0.00)    -0.989   1.217
      - 3d(5.00)    -2.913   1.111
      -  s          23.205   1.164
      -  p          26.223   1.217
      -  d          24.299   1.111
  
    # Using partial waves for Cr as LCAO basis

  Fe:
    name: Iron
    id: 37abbd8d6c3c35915a9b583b742da910
    Z: 26.0
    valence: 8
    core: 18
    charge: 0.0
    file: /home/c.zeng/usr/data/gpaw-setups-0.9.20000/Fe.PBE.gz
    compensation charges: {type: gauss,
                           rc: 0.33,
                           lmax: 2}
    cutoffs: {filter: 2.06,
              core: 2.67}
    valence states:
      #              energy  rcut
      - 4s(2.00)    -5.291   1.164
      - 4p(0.00)    -1.326   1.058
      - 3d(6.00)    -7.505   1.058
      -  s          21.920   1.164
      -  p          25.885   1.058
      -  d          19.706   1.058
  
    # Using partial waves for Fe as LCAO basis

  Al:
    name: Aluminium
    id: 0292cae29f5d6237e50f6abdd43a7bdd
    Z: 13.0
    valence: 3
    core: 10
    charge: 0.0
    file: /home/c.zeng/usr/data/gpaw-setups-0.9.20000/Al.PBE.gz
    compensation charges: {type: gauss,
                           rc: 0.34,
                           lmax: 2}
    cutoffs: {filter: 1.91,
              core: 2.36}
    valence states:
      #              energy  rcut
      - 3s(2.00)    -7.753   1.085
      - 3p(1.00)    -2.712   1.085
      -  s          19.459   1.085
      -  p          24.499   1.085
      -  d           0.000   1.085
  
    # Using partial waves for Al as LCAO basis

  Co:
    name: Cobalt
    id: 339d20d5b0b93d2de9531a1bee871d91
    Z: 27.0
    valence: 9
    core: 18
    charge: 0.0
    file: /home/c.zeng/usr/data/gpaw-setups-0.9.20000/Co.PBE.gz
    compensation charges: {type: gauss,
                           rc: 0.32,
                           lmax: 2}
    cutoffs: {filter: 1.87,
              core: 2.55}
    valence states:
      #              energy  rcut
      - 4s(2.00)    -5.469   1.005
      - 4p(0.00)    -1.277   1.058
      - 3d(7.00)    -8.205   1.005
      -  s          21.742   1.005
      -  p          25.934   1.058
      -  d          19.007   1.005
  
    # Using partial waves for Co as LCAO basis

Reference energy: -3927717.499734  # eV

Spin-polarized calculation.
Magnetic moment: 149.100000

Convergence criteria:
 Maximum [total energy] change in last 3 cyles: 0.0001 eV / electron
 Maximum integral of absolute [dens]ity change: 0.0001 electrons / valence electron
 Maximum integral of absolute [eigenst]ate change: 4e-08 eV^2 / valence electron
 Maximum number of scf [iter]ations: 666
 (Square brackets indicate name in SCF output, whereas a 'c' in
 the SCF output indicates the quantity has converged.)

Symmetries present (total): 1

  ( 1  0  0)
  ( 0  1  0)
  ( 0  0  1)

4 k-points: 2 x 2 x 1 Monkhorst-Pack grid
2 k-points in the irreducible part of the Brillouin zone
       k-points in crystal coordinates                weights
   0:     0.25000000   -0.25000000    0.00000000          2/4
   1:     0.25000000    0.25000000    0.00000000          2/4

Wave functions: Plane wave expansion
  Cutoff energy: 350.000 eV
  Number of coefficients (min, max): 60143, 60161
  Pulay-stress correction: 0.000000 eV/Ang^3 (de/decut=0.000000)
  Using FFTW library
  ScaLapack parameters: grid=1x1, blocksize=None
  Wavefunction extrapolation:
    Improved wavefunction reuse through dual PAW basis 

Occupation numbers: Fermi-Dirac:
  width: 0.1000  # eV
 

Eigensolver
   Davidson(niter=2) 

Densities:
  Coarse grid: 56*56*128 grid
  Fine grid: 112*112*256 grid
  Total Charge: 0.000000 

Density mixing:
  Method: difference
  Backend: pulay
  Linear mixing parameter: 0.05
  old densities: 5
  Damping of long wavelength oscillations: 50 

Hamiltonian:
  XC and Coulomb potentials evaluated on a 112*112*256 grid
  Using the PBE Exchange-Correlation functional
  External potential:
    NoExternalPotential
 

XC parameters: PBE with 2 nearest neighbor stencil

Memory estimate:
  Process memory now: 372.09 MiB
  Calculator: 2209.57 MiB
    Density: 18.91 MiB
      Arrays: 7.39 MiB
      Localized functions: 8.57 MiB
      Mixer: 2.95 MiB
    Hamiltonian: 5.75 MiB
      Arrays: 5.49 MiB
      XC: 0.00 MiB
      Poisson: 0.00 MiB
      vbar: 0.26 MiB
    Wavefunctions: 2184.92 MiB
      Arrays psit_nG: 1382.48 MiB
      Eigensolver: 782.37 MiB
      Projections: 3.31 MiB
      Projectors: 1.16 MiB
      PW-descriptor: 15.59 MiB

Total number of cores used: 30
Parallelization over k-points: 2
Domain decomposition: 1 x 3 x 5

Number of atoms: 125
Number of atomic orbitals: 1116
Number of bands in calculation: 753
Number of valence electrons: 1098
Bands to converge: occupied

... initialized

Initializing position-dependent things.

Density initialized from atomic densities
Creating initial wave functions:
  753 bands from LCAO basis set

                                                               
                                                               
                                                               
                                                               
                          Ni          Ni     Ni    Co          
                            Fe    Co    Cr    Co    Ni         
                                                               
                       Al    CFe   FNi   CCr   NCr   Cr        
                   Fe   CFe    Al    Co    Ni    Cr            
        Ni                       Cr                            
               Ni   FAl  CNCr  CCo   NNi    Cr    Ni           
          Ni    Fe   NAl   FCo   CCr   FFe   Cr                
           Ni    Co    Fe Ni  FeCo  Co       Al   Fe           
                Al    Co    ACo   FAl   CNi   Co    Cr         
            Fe   AFe   AFe    Al    Co    Fe                   
        Fe    Co    Ni    Co Ni Co Cr    Ni    Ni    Co        
             Co    Al   CFe    Cr    Fe    Fe    Ni            
         Cr    Cr   CAl   AFe   CFe   Ni     Ni                
                Fe          Ni                                 
               Cr     Cr          Co    Co                     
           Cr    Cr    Fe    Al     Ni                         
                                                               
                                                               
                                                               
                                                               
                                                               

Positions:
   0 Ni    12.638410    1.500640   10.473714    ( 0.0000,  0.0000,  0.0000)
   1 Cr     2.522937    1.464200   10.500925    ( 0.0000,  0.0000,  0.0000)
   2 Cr     5.053910    1.499679   10.110352    ( 0.0000,  0.0000,  0.0000)
   3 Fe     7.557679    1.474012   10.651858    ( 0.0000,  0.0000,  2.0000)
   4 Al    10.063098    1.480808   10.510582    ( 0.0000,  0.0000,  0.0000)
   5 Co    13.876684    3.701125   10.575129    ( 0.0000,  0.0000,  2.1000)
   6 Cr     3.765065    3.676845   10.563946    ( 0.0000,  0.0000,  2.1000)
   7 Cr     6.296333    3.639618   10.618367    ( 0.0000,  0.0000,  1.5000)
   8 Ni     8.839996    3.605986   10.672787    ( 0.0000,  0.0000,  2.0000)
   9 Co    11.352953    3.684964   10.549299    ( 0.0000,  0.0000,  1.5000)
  10 Ni    15.161276    5.824565   10.498577    ( 0.0000,  0.0000,  1.5000)
  11 Co     5.025278    5.836147   10.574572    ( 0.0000,  0.0000,  1.5000)
  12 Al     7.581095    5.809082   10.450437    ( 0.0000,  0.0000,  0.0000)
  13 Cr    10.115365    5.826084   10.611674    ( 0.0000,  0.0000,  0.0000)
  14 Ni    12.590175    5.838835   10.516863    ( 0.0000,  0.0000,  0.0000)
  15 Ni    16.389239    7.986063   10.611380    ( 0.0000,  0.0000,  2.0000)
  16 Co     6.336726    8.007129   10.633278    ( 0.0000,  0.0000,  2.0000)
  17 Cr     8.860477    8.041112   10.593798    ( 0.0000,  0.0000,  2.0000)
  18 Cr    11.352548    8.028917   10.631722    ( 0.0000,  0.0000,  2.1000)
  19 Fe    13.851584    7.983364   10.505680    ( 0.0000,  0.0000,  2.0000)
  20 Co    17.745314   10.116747   10.074659    ( 0.0000,  0.0000,  0.0000)
  21 Ni     7.636083   10.176440   10.530337    ( 0.0000,  0.0000,  1.5000)
  22 Cr    10.089221   10.193890   10.552029    ( 0.0000,  0.0000,  2.1000)
  23 Ni    12.605039   10.182297   10.523703    ( 0.0000,  0.0000,  2.1000)
  24 Ni    15.064141   10.171206   10.358709    ( 0.0000,  0.0000,  0.0000)
  25 Ni     6.302566   10.804692   12.567941    ( 0.0000,  0.0000,  0.0000)
  26 Co     8.851494   10.898072   12.591335    ( 0.0000,  0.0000,  2.0000)
  27 Fe     5.076351    0.044825   12.536856    ( 0.0000,  0.0000,  0.0000)
  28 Al    13.909654   10.893450   12.608008    ( 0.0000,  0.0000,  1.5000)
  29 Fe    16.352727   10.867270   12.510966    ( 0.0000,  0.0000,  0.0000)
  30 Cr     1.347779    2.234477   12.606775    ( 0.0000,  0.0000,  0.0000)
  31 Cr     3.839937    2.209280   12.530604    ( 0.0000,  0.0000,  2.1000)
  32 Al     6.320342    2.230959   12.618927    ( 0.0000,  0.0000,  0.0000)
  33 Fe     8.782195    2.170075   12.671851    ( 0.0000,  0.0000,  0.0000)
  34 Fe    11.261675    2.259871   12.615258    ( 0.0000,  0.0000,  0.0000)
  35 Co     2.575110    4.392020   12.601990    ( 0.0000,  0.0000,  1.5000)
  36 Al     5.033696    4.384579   12.606305    ( 0.0000,  0.0000,  2.1000)
  37 Fe     7.564379    4.363294   12.629230    ( 0.0000,  0.0000,  2.0000)
  38 Cr    10.052143    4.418954   12.638359    ( 0.0000,  0.0000,  2.0000)
  39 Fe    12.588573    4.408563   12.597529    ( 0.0000,  0.0000,  2.0000)
  40 Al     3.825223    6.539248   12.601110    ( 0.0000,  0.0000,  0.0000)
  41 Al     6.285427    6.556719   12.584144    ( 0.0000,  0.0000,  0.0000)
  42 Cr     8.820218    6.557845   12.561307    ( 0.0000,  0.0000,  2.0000)
  43 Al    11.348710    6.570170   12.593977    ( 0.0000,  0.0000,  2.0000)
  44 Fe    13.909132    6.548655   12.525790    ( 0.0000,  0.0000,  0.0000)
  45 Cr    17.626555    8.699096   12.604162    ( 0.0000,  0.0000,  0.0000)
  46 Al     7.618200    8.725899   12.612235    ( 0.0000,  0.0000,  1.5000)
  47 Fe    10.087472    8.739109   12.626412    ( 0.0000,  0.0000,  1.5000)
  48 Cr    12.639844    8.757204   12.602842    ( 0.0000,  0.0000,  2.1000)
  49 Co    15.116728    8.758580   12.586668    ( 0.0000,  0.0000,  0.0000)
  50 Fe     1.234973    0.732950   14.688585    ( 0.0000,  0.0000,  2.1000)
  51 Co     3.756660    0.776875   14.661198    ( 0.0000,  0.0000,  2.0000)
  52 Ni     6.353364    0.739044   14.685297    ( 0.0000,  0.0000,  2.0000)
  53 Co     8.843197    0.707504   14.667421    ( 0.0000,  0.0000,  1.5000)
  54 Co    11.308149    0.724265   14.667803    ( 0.0000,  0.0000,  2.1000)
  55 Fe     2.562577    2.918904   14.681980    ( 0.0000,  0.0000,  0.0000)
  56 Fe     5.047514    2.876224   14.673262    ( 0.0000,  0.0000,  2.0000)
  57 Fe     7.587094    2.887588   14.717057    ( 0.0000,  0.0000,  2.1000)
  58 Al    10.059655    2.923122   14.721842    ( 0.0000,  0.0000,  2.1000)
  59 Co    12.581173    2.902022   14.699768    ( 0.0000,  0.0000,  2.0000)
  60 Al     3.748435    5.096399   14.714592    ( 0.0000,  0.0000,  2.0000)
  61 Co     6.262723    5.033089   14.723016    ( 0.0000,  0.0000,  0.0000)
  62 Co     8.857244    5.082347   14.703790    ( 0.0000,  0.0000,  1.5000)
  63 Al    11.325799    5.051271   14.695776    ( 0.0000,  0.0000,  0.0000)
  64 Ni    13.876183    5.054495   14.660318    ( 0.0000,  0.0000,  2.1000)
  65 Ni     5.052567    7.279870   14.704259    ( 0.0000,  0.0000,  2.0000)
  66 Fe     7.623886    7.324091   14.709690    ( 0.0000,  0.0000,  0.0000)
  67 Co    10.091768    7.250248   14.682744    ( 0.0000,  0.0000,  1.5000)
  68 Fe    12.609710    7.231017   14.738808    ( 0.0000,  0.0000,  0.0000)
  69 Cr    15.165859    7.289737   14.678898    ( 0.0000,  0.0000,  0.0000)
  70 Cr     6.290924    9.483294   14.711891    ( 0.0000,  0.0000,  0.0000)
  71 Cr     8.799610    9.526006   14.705668    ( 0.0000,  0.0000,  2.0000)
  72 Ni    11.328536    9.524116   14.771390    ( 0.0000,  0.0000,  0.0000)
  73 Fe    13.905777    9.475951   14.693692    ( 0.0000,  0.0000,  2.0000)
  74 Ni    16.402593    9.490986   14.643939    ( 0.0000,  0.0000,  1.5000)
  75 Co    12.559989    1.424700   16.738106    ( 0.0000,  0.0000,  0.0000)
  76 Ni     2.519368    1.415325   16.732030    ( 0.0000,  0.0000,  2.1000)
  77 Co     5.058418    1.426623   16.724633    ( 0.0000,  0.0000,  2.1000)
  78 Fe     7.588593    1.431310   16.719262    ( 0.0000,  0.0000,  1.5000)
  79 Fe    10.080282    1.446990   16.712775    ( 0.0000,  0.0000,  2.1000)
  80 Fe    13.906517    3.636537   16.770219    ( 0.0000,  0.0000,  0.0000)
  81 Fe     3.830827    3.632472   16.750288    ( 0.0000,  0.0000,  2.1000)
  82 Al     6.307138    3.580352   16.791881    ( 0.0000,  0.0000,  2.0000)
  83 Co     8.837036    3.649693   16.760356    ( 0.0000,  0.0000,  1.5000)
  84 Cr    11.316239    3.632713   16.757567    ( 0.0000,  0.0000,  0.0000)
  85 Cr    15.124416    5.819298   16.794875    ( 0.0000,  0.0000,  1.5000)
  86 Fe     5.069314    5.825133   16.817741    ( 0.0000,  0.0000,  2.0000)
  87 Ni     7.591000    5.828182   16.790531    ( 0.0000,  0.0000,  1.5000)
  88 Co    10.100423    5.832104   16.795022    ( 0.0000,  0.0000,  2.1000)
  89 Ni    12.591819    5.816097   16.796049    ( 0.0000,  0.0000,  1.5000)
  90 Cr    16.393148    8.022678   16.766491    ( 0.0000,  0.0000,  0.0000)
  91 Co     6.343718    8.036435   16.784337    ( 0.0000,  0.0000,  2.1000)
  92 Al     8.869407    8.031059   16.785541    ( 0.0000,  0.0000,  1.5000)
  93 Al    11.350811    8.006966   16.850353    ( 0.0000,  0.0000,  0.0000)
  94 Cr    13.848456    8.043231   16.790120    ( 0.0000,  0.0000,  1.5000)
  95 Cr    17.664975   10.214378   16.704673    ( 0.0000,  0.0000,  1.5000)
  96 Co     7.577805   10.200216   16.752871    ( 0.0000,  0.0000,  0.0000)
  97 Fe    10.073950   10.240525   16.814835    ( 0.0000,  0.0000,  0.0000)
  98 Co    12.634825   10.205702   16.792879    ( 0.0000,  0.0000,  2.1000)
  99 Ni    15.128204   10.222671   16.717207    ( 0.0000,  0.0000,  2.1000)
 100 Ni     6.295996   10.895646   18.725164    ( 0.0000,  0.0000,  2.1000)
 101 Ni     2.531103    0.010731   18.808028    ( 0.0000,  0.0000,  0.0000)
 102 Ni    11.354102   10.922176   18.789712    ( 0.0000,  0.0000,  2.0000)
 103 Ni    13.893055   10.918669   18.754371    ( 0.0000,  0.0000,  1.5000)
 104 Co    16.407321   10.902924   18.697866    ( 0.0000,  0.0000,  2.0000)
 105 Ni     1.242615    2.122916   18.813664    ( 0.0000,  0.0000,  0.0000)
 106 Ni     3.777583    2.163727   18.725751    ( 0.0000,  0.0000,  2.0000)
 107 Al     6.316494    2.112186   18.751024    ( 0.0000,  0.0000,  1.5000)
 108 Cr     8.821019    2.135678   18.724841    ( 0.0000,  0.0000,  1.5000)
 109 Cr    11.346910    2.127920   18.772482    ( 0.0000,  0.0000,  0.0000)
 110 Ni    15.041821    4.389824   19.217240    ( 0.0000,  0.0000,  0.0000)
 111 Fe     5.122707    4.340730   18.947661    ( 0.0000,  0.0000,  0.0000)
 112 Fe     7.593428    4.391189   18.757570    ( 0.0000,  0.0000,  0.0000)
 113 Al    10.074524    4.387147   18.958463    ( 0.0000,  0.0000,  0.0000)
 114 Co    12.568500    4.377597   18.792178    ( 0.0000,  0.0000,  2.1000)
 115 Cr    16.401190    6.592941   18.854788    ( 0.0000,  0.0000,  0.0000)
 116 Al     6.333626    6.597181   18.774830    ( 0.0000,  0.0000,  2.1000)
 117 Fe     8.832315    6.612293   18.776708    ( 0.0000,  0.0000,  2.0000)
 118 Ni    11.357713    6.592056   18.807559    ( 0.0000,  0.0000,  1.5000)
 119 Cr    13.843649    6.600634   18.766083    ( 0.0000,  0.0000,  2.1000)
 120 Ni    17.672908    8.762055   18.787393    ( 0.0000,  0.0000,  1.5000)
 121 Fe     7.589466    8.752057   18.793733    ( 0.0000,  0.0000,  0.0000)
 122 Co    10.105305    8.758351   18.804653    ( 0.0000,  0.0000,  2.1000)
 123 Cr    12.605169    8.778467   18.827842    ( 0.0000,  0.0000,  2.0000)
 124 Co    15.105383    8.773889   18.800925    ( 0.0000,  0.0000,  1.5000)

Unit cell:
           periodic     x           y           z      points  spacing
  1. axis:    yes   12.614700    0.000000    0.000000    56     0.1951
  2. axis:    yes    6.308550   10.926700    0.000000    56     0.1951
  3. axis:    no     0.000000    0.000000   29.353100   128     0.2293

  Lengths:  12.614700  12.617075  29.353100
  Angles:   90.000000  90.000000  59.999934

Effective grid spacing dv^(1/3) = 0.2160

     iter     time        total  log10-change:  magmom
                         energy  eigst   dens
iter:   1 06:31:20 -1071.080692                  +148.4776
iter:   2 06:34:17 -1842.123558  +0.41  -1.14    +107.8791
iter:   3 06:37:13 -1785.583729  +0.93  -0.81    +76.8861
iter:   4 06:40:10 -1122.486677  -0.19  -0.82    +52.5625
iter:   5 06:43:06  -989.467653  -1.21  -1.15    +39.2319
iter:   6 06:46:02  -970.176654  -1.66  -1.29    +30.0498
iter:   7 06:48:58  -954.618420  -1.83  -1.31    +27.9221
iter:   8 06:51:55 -1177.720695  -0.59  -1.33    +28.7347
iter:   9 06:54:51 -1121.532460  -0.70  -1.01    +27.2945
iter:  10 06:57:48  -939.328036  -1.37  -1.04    +24.1558
iter:  11 07:00:41  -919.973962  -1.83  -1.39    +26.0567
iter:  12 07:03:37  -928.478756  -1.50  -1.48    +27.5118
iter:  13 07:06:33  -931.828526  -1.66  -1.47    +28.0210
iter:  14 07:09:30  -936.158560  -1.55  -1.45    +29.3910
iter:  15 07:12:26  -979.010842  -1.53  -1.46    +31.4706
iter:  16 07:15:22  -931.099112  -1.50  -1.29    +30.7522
iter:  17 07:18:19  -922.135045  -1.73  -1.54    +30.6461
iter:  18 07:21:15  -923.255450  -2.11  -1.63    +32.8055
iter:  19 07:24:11  -916.887665  -2.06  -1.61    +34.4068
iter:  20 07:27:08  -914.785468  -2.62  -1.69    +35.9492
iter:  21 07:30:05  -987.887632  -1.71  -1.73    +38.2408
iter:  22 07:33:03  -916.088861  -1.89  -1.26    +38.2312
iter:  23 07:35:59  -920.290676  -2.56  -1.74    +39.8123
iter:  24 07:38:57  -918.193894  -2.43  -1.67    +43.0506
iter:  25 07:41:56  -917.570424  -2.43  -1.76    +45.3753
iter:  26 07:44:55  -921.780130  -2.12  -1.87    +47.9629
iter:  27 07:47:56  -927.961591  -1.98  -1.74    +49.6960
iter:  28 07:50:56  -917.763393  -2.24  -1.66    +50.3180
iter:  29 07:53:56  -916.742024  -2.71  -1.94    +53.3039
iter:  30 07:56:56  -921.053515  -2.66  -2.08    +56.6887
iter:  31 07:59:54  -917.148188  -3.11  -1.82    +57.5905
iter:  32 08:03:00  -917.557763  -2.91  -2.12    +61.2968
iter:  33 08:06:07  -918.562745  -2.68  -2.17    +63.2407
iter:  34 08:09:18  -917.932426  -2.84  -2.17    +64.8379
iter:  35 08:12:17  -918.388727  -3.25  -2.25    +66.9222
iter:  36 08:15:16  -919.216181  -2.92  -2.24    +70.0991
iter:  37 08:18:16  -918.926569  -3.26  -2.16    +70.3914
iter:  38 08:21:18  -918.848652  -3.20  -2.28    +72.0069
iter:  39 08:24:20  -918.917198c -3.31  -2.37    +72.9547
iter:  40 08:27:19  -919.040726  -3.47  -2.47    +73.4384
iter:  41 08:30:16  -919.145115  -3.42  -2.44    +75.0216
iter:  42 08:33:15  -919.655154  -3.51  -2.51    +75.5049
iter:  43 08:36:14  -919.513942  -3.46  -2.32    +76.0735
iter:  44 08:39:15  -919.407906  -3.69  -2.41    +76.8225
iter:  45 08:42:15  -919.672036  -3.54  -2.56    +78.3946
iter:  46 08:45:13  -919.579852  -4.16  -2.54    +77.4476
iter:  47 08:48:12  -920.677509  -2.85  -2.52    +82.0229
iter:  48 08:51:09  -920.444685  -2.91  -2.42    +77.7777
iter:  49 08:54:08  -920.103334  -3.35  -2.22    +79.9268
iter:  50 08:57:07  -919.907005  -3.91  -2.47    +79.5802
iter:  51 09:00:07  -920.005771  -3.66  -2.53    +80.5296
iter:  52 09:03:07  -919.913469c -3.86  -2.52    +80.9779
iter:  53 09:06:05  -920.096621  -3.13  -2.64    +81.6656
iter:  54 09:09:06  -920.026342  -3.61  -2.53    +81.5273
iter:  55 09:12:05  -920.069970c -3.55  -2.59    +81.6203
iter:  56 09:15:05  -920.072827c -4.03  -2.63    +81.7013
iter:  57 09:18:04  -920.154503c -4.19  -2.80    +81.8173
iter:  58 09:21:01  -920.453678  -3.60  -2.72    +82.0183
iter:  59 09:24:01  -920.219824  -3.59  -2.55    +81.8149
iter:  60 09:27:00  -920.317644  -3.57  -2.57    +81.8940
iter:  61 09:29:59  -920.238739c -4.19  -2.61    +81.9580
iter:  62 09:32:51  -920.270205c -4.30  -2.65    +82.0847
iter:  63 09:35:50  -920.469223  -3.70  -2.69    +82.2126
iter:  64 09:38:50  -920.368984  -3.93  -2.52    +82.3057
iter:  65 09:41:50  -920.528475  -3.56  -2.63    +82.4024
iter:  66 09:44:49  -920.813779  -3.46  -2.54    +82.3902
iter:  67 09:47:49  -920.362442  -3.38  -2.37    +82.5527
iter:  68 09:50:44  -920.921477  -3.48  -2.57    +82.7083
iter:  69 09:53:41  -920.320455  -3.79  -2.32    +82.8294
iter:  70 09:56:38  -920.375241  -3.80  -2.72    +83.1210
iter:  71 09:59:35  -920.436464  -3.90  -2.70    +83.0972
iter:  72 10:02:32  -920.749414  -3.41  -2.68    +82.9197
iter:  73 10:05:29  -920.359306  -3.86  -2.42    +82.9876
iter:  74 10:08:24  -920.381789  -4.30  -3.01    +83.1543
iter:  75 10:11:19  -920.400561c -4.58  -3.03    +83.1669
iter:  76 10:14:18  -920.466462c -4.18  -3.02    +83.2025
iter:  77 10:17:17  -920.490046c -4.61  -2.90    +83.1709
iter:  78 10:20:17  -920.620013  -3.73  -2.76    +83.3867
iter:  79 10:23:17  -920.453487  -4.23  -2.61    +83.3454
iter:  80 10:26:19  -920.455127  -4.54  -3.00    +83.5197
iter:  81 10:29:21  -920.971275  -3.52  -3.03    +83.5536
iter:  82 10:32:27  -920.445030  -3.89  -2.38    +83.5451
iter:  83 10:35:36  -920.442791  -4.58  -3.07    +83.5739
iter:  84 10:38:46  -920.452047c -4.73  -3.11    +83.5654
iter:  85 10:41:56  -920.445352c -4.82  -3.02    +83.5030
iter:  86 10:45:07  -920.452771c -4.97  -3.18    +83.5030
iter:  87 10:48:21  -920.462614c -4.65  -3.17    +83.5369
iter:  88 10:51:39  -920.469384c -5.32  -3.18    +83.5219
iter:  89 10:54:49  -920.491914c -4.72  -3.16    +83.6382
iter:  90 10:58:00  -920.467561c -4.74  -2.93    +83.5228
iter:  91 11:01:10  -920.462240c -5.18  -3.18    +83.5469
iter:  92 11:04:21  -920.461651c -4.86  -3.21    +83.5952
iter:  93 11:07:31  -920.462808c -4.96  -3.26    +83.6497
iter:  94 11:10:41  -920.462987c -5.06  -3.29    +83.6810
iter:  95 11:13:59  -920.513138c -4.71  -3.34    +83.7260
iter:  96 11:17:11  -920.465445c -4.89  -2.85    +83.7666
iter:  97 11:20:21  -920.466643c -5.34  -3.37    +83.8318
iter:  98 11:23:31  -920.467049c -5.44  -3.44    +83.8544
iter:  99 11:26:40  -920.469056c -5.46  -3.47    +83.8778
iter: 100 11:30:04  -920.468789c -5.67  -3.47    +83.9080
iter: 101 11:33:16  -920.470012c -5.66  -3.53    +83.9348
iter: 102 11:36:26  -920.486878c -5.12  -3.55    +83.9416
iter: 103 11:39:36  -920.471255c -5.29  -3.08    +83.9484
iter: 104 11:42:46  -920.472132c -5.83  -3.56    +83.9999
iter: 105 11:46:03  -920.473218c -5.86  -3.61    +84.0268
iter: 106 11:49:18  -920.473845c -5.97  -3.60    +84.0393
iter: 107 11:52:29  -920.473545c -6.24  -3.59    +84.0537
iter: 108 11:55:39  -920.474793c -5.66  -3.67    +84.0861
iter: 109 11:58:49  -920.479583c -5.65  -3.58    +84.0927
iter: 110 12:02:04  -920.474551c -5.85  -3.40    +84.1072
iter: 111 12:05:20  -920.476453c -5.85  -3.90    +84.1322
iter: 112 12:08:30  -920.476297c -6.06  -3.83    +84.1470
iter: 113 12:11:41  -920.476843c -6.05  -4.01c   +84.1665
iter: 114 12:14:50  -920.477340c -6.27  -3.98    +84.1862
iter: 115 12:18:00  -920.479457c -5.95  -4.03c   +84.2026
iter: 116 12:21:18  -920.477966c -6.29  -3.51    +84.2142
iter: 117 12:24:34  -920.479406c -6.10  -4.03c   +84.2518
iter: 118 12:27:45  -920.478784c -6.78  -3.99    +84.2483
iter: 119 12:30:55  -920.480124c -6.23  -3.95    +84.2930
iter: 120 12:34:04  -920.480735c -6.36  -3.92    +84.3070
iter: 121 12:37:14  -920.482101c -6.12  -3.92    +84.3317
iter: 122 12:40:34  -920.482157c -6.35  -3.75    +84.3249
iter: 123 12:43:45  -920.482746c -6.04  -3.79    +84.3528
iter: 124 12:46:55  -920.483705c -5.87  -3.82    +84.3790
iter: 125 12:50:05  -920.483738c -6.37  -3.60    +84.3840
iter: 126 12:53:14  -920.484764c -5.52  -3.63    +84.4146
iter: 127 12:56:30  -920.484567c -5.89  -3.53    +84.4391
iter: 128 12:59:45  -920.485433c -5.79  -3.58    +84.4739
iter: 129 13:02:55  -920.486815c -5.69  -3.72    +84.4859
iter: 130 13:06:04  -920.486189c -6.27  -3.59    +84.4901
iter: 131 13:09:14  -920.487583c -6.11  -3.76    +84.5047
iter: 132 13:12:26  -920.489755c -5.94  -3.71    +84.5282
iter: 133 13:15:44  -920.487151c -6.17  -3.52    +84.5288
iter: 134 13:18:54  -920.489378c -5.80  -3.75    +84.5600
iter: 135 13:22:04  -920.490524c -6.36  -3.63    +84.5757
iter: 136 13:25:14  -920.492947c -6.13  -3.53    +84.5872
iter: 137 13:28:30  -920.489775c -5.84  -3.43    +84.5772
iter: 138 13:31:46  -920.496869c -5.46  -3.69    +84.6005
iter: 139 13:34:56  -920.490054c -5.24  -3.29    +84.5829
iter: 140 13:38:06  -920.489231c -5.62  -3.41    +84.5706
iter: 141 13:41:16  -920.489603c -6.07  -3.61    +84.5677
iter: 142 13:44:25  -920.488422c -6.13  -3.61    +84.5638
iter: 143 13:47:46  -920.489015c -6.05  -3.80    +84.5678
iter: 144 13:50:55  -920.488558c -6.25  -3.73    +84.5788
iter: 145 13:54:05  -920.488563c -6.09  -3.81    +84.5875
iter: 146 13:57:15  -920.489714c -6.07  -3.81    +84.5957
iter: 147 14:00:24  -920.505622c -5.22  -3.76    +84.6012
iter: 148 14:03:34  -920.488357c -5.52  -3.09    +84.6015
iter: 149 14:06:43  -920.488495c -6.61  -3.90    +84.6192
iter: 150 14:09:53  -920.488478c -6.86  -4.00    +84.6251
iter: 151 14:13:13  -920.488687c -6.68  -3.99    +84.6328
iter: 152 14:16:25  -920.488648c -6.60  -4.01c   +84.6431
iter: 153 14:19:35  -920.491323c -6.11  -3.90    +84.6474
iter: 154 14:22:45  -920.489065c -6.35  -3.61    +84.6515
iter: 155 14:25:55  -920.488663c -6.81  -4.03c   +84.6520
iter: 156 14:29:04  -920.488943c -6.72  -4.15c   +84.6640
iter: 157 14:32:14  -920.489036c -6.94  -4.06c   +84.6673
iter: 158 14:35:23  -920.489400c -6.63  -4.06c   +84.6744
iter: 159 14:38:33  -920.489081c -6.91  -4.15c   +84.6752
iter: 160 14:41:42  -920.490727c -6.27  -4.12c   +84.6801
iter: 161 14:44:58  -920.489202c -6.63  -3.71    +84.6824
iter: 162 14:48:13  -920.489381c -6.99  -4.36c   +84.6871
iter: 163 14:51:23  -920.489314c -7.18  -4.37c   +84.6891
iter: 164 14:54:32  -920.489194c -7.31  -4.49c   +84.6915
iter: 165 14:57:39  -920.489397c -7.63c -4.34c   +84.6948

Converged after 165 iterations.

Dipole moment: (55.642674, 42.166043, -0.026019) |e|*Ang

Total magnetic moment: (0.000000, 0.000000, 84.694798)
Local magnetic moments:
   0 Ni ( 0.000000,  0.000000,  0.409791)
   1 Cr ( 0.000000,  0.000000,  2.051388)
   2 Cr ( 0.000000,  0.000000, -2.731799)
   3 Fe ( 0.000000,  0.000000,  2.230366)
   4 Al ( 0.000000,  0.000000, -0.055960)
   5 Co ( 0.000000,  0.000000,  1.284689)
   6 Cr ( 0.000000,  0.000000,  0.873347)
   7 Cr ( 0.000000,  0.000000,  1.897899)
   8 Ni ( 0.000000,  0.000000,  0.175994)
   9 Co ( 0.000000,  0.000000,  1.426249)
  10 Ni ( 0.000000,  0.000000,  0.374206)
  11 Co ( 0.000000,  0.000000,  0.780143)
  12 Al ( 0.000000,  0.000000, -0.018863)
  13 Cr ( 0.000000,  0.000000, -1.920267)
  14 Ni ( 0.000000,  0.000000,  0.361637)
  15 Ni ( 0.000000,  0.000000,  0.446917)
  16 Co ( 0.000000,  0.000000,  0.966273)
  17 Cr ( 0.000000,  0.000000,  1.278244)
  18 Cr ( 0.000000,  0.000000,  1.789112)
  19 Fe ( 0.000000,  0.000000,  2.595918)
  20 Co ( 0.000000,  0.000000,  1.864896)
  21 Ni ( 0.000000,  0.000000,  0.216343)
  22 Cr ( 0.000000,  0.000000, -2.127286)
  23 Ni ( 0.000000,  0.000000,  0.084971)
  24 Ni ( 0.000000,  0.000000,  0.499145)
  25 Ni ( 0.000000,  0.000000,  0.390756)
  26 Co ( 0.000000,  0.000000,  0.924074)
  27 Fe ( 0.000000,  0.000000,  2.074042)
  28 Al ( 0.000000,  0.000000, -0.051004)
  29 Fe ( 0.000000,  0.000000,  2.382325)
  30 Cr ( 0.000000,  0.000000, -2.012659)
  31 Cr ( 0.000000,  0.000000, -1.187712)
  32 Al ( 0.000000,  0.000000, -0.038924)
  33 Fe ( 0.000000,  0.000000,  2.040729)
  34 Fe ( 0.000000,  0.000000,  2.354474)
  35 Co ( 0.000000,  0.000000,  0.552303)
  36 Al ( 0.000000,  0.000000, -0.033333)
  37 Fe ( 0.000000,  0.000000,  1.504683)
  38 Cr ( 0.000000,  0.000000,  0.104425)
  39 Fe ( 0.000000,  0.000000,  2.104963)
  40 Al ( 0.000000,  0.000000, -0.013057)
  41 Al ( 0.000000,  0.000000, -0.024755)
  42 Cr ( 0.000000,  0.000000,  0.229825)
  43 Al ( 0.000000,  0.000000, -0.016144)
  44 Fe ( 0.000000,  0.000000,  2.327854)
  45 Cr ( 0.000000,  0.000000,  1.605953)
  46 Al ( 0.000000,  0.000000, -0.030831)
  47 Fe ( 0.000000,  0.000000,  1.654218)
  48 Cr ( 0.000000,  0.000000, -1.911395)
  49 Co ( 0.000000,  0.000000,  0.910360)
  50 Fe ( 0.000000,  0.000000,  2.217252)
  51 Co ( 0.000000,  0.000000,  1.282494)
  52 Ni ( 0.000000,  0.000000,  0.443035)
  53 Co ( 0.000000,  0.000000,  1.256084)
  54 Co ( 0.000000,  0.000000,  1.190588)
  55 Fe ( 0.000000,  0.000000,  2.131230)
  56 Fe ( 0.000000,  0.000000,  2.019251)
  57 Fe ( 0.000000,  0.000000,  2.092072)
  58 Al ( 0.000000,  0.000000, -0.035061)
  59 Co ( 0.000000,  0.000000,  0.782394)
  60 Al ( 0.000000,  0.000000, -0.025711)
  61 Co ( 0.000000,  0.000000,  1.168982)
  62 Co ( 0.000000,  0.000000,  1.053021)
  63 Al ( 0.000000,  0.000000, -0.024832)
  64 Ni ( 0.000000,  0.000000,  0.175637)
  65 Ni ( 0.000000,  0.000000,  0.065331)
  66 Fe ( 0.000000,  0.000000,  2.001393)
  67 Co ( 0.000000,  0.000000,  0.942100)
  68 Fe ( 0.000000,  0.000000,  2.099085)
  69 Cr ( 0.000000,  0.000000, -1.624626)
  70 Cr ( 0.000000,  0.000000,  0.428776)
  71 Cr ( 0.000000,  0.000000, -1.395099)
  72 Ni ( 0.000000,  0.000000,  0.312264)
  73 Fe ( 0.000000,  0.000000,  2.235272)
  74 Ni ( 0.000000,  0.000000,  0.283640)
  75 Co ( 0.000000,  0.000000,  1.278740)
  76 Ni ( 0.000000,  0.000000,  0.503320)
  77 Co ( 0.000000,  0.000000,  1.347601)
  78 Fe ( 0.000000,  0.000000,  1.979088)
  79 Fe ( 0.000000,  0.000000,  2.022305)
  80 Fe ( 0.000000,  0.000000,  2.585057)
  81 Fe ( 0.000000,  0.000000,  2.353296)
  82 Al ( 0.000000,  0.000000, -0.069467)
  83 Co ( 0.000000,  0.000000,  0.994553)
  84 Cr ( 0.000000,  0.000000, -1.896811)
  85 Cr ( 0.000000,  0.000000, -1.463662)
  86 Fe ( 0.000000,  0.000000,  2.026618)
  87 Ni ( 0.000000,  0.000000,  0.352808)
  88 Co ( 0.000000,  0.000000,  1.019773)
  89 Ni ( 0.000000,  0.000000,  0.225694)
  90 Cr ( 0.000000,  0.000000,  1.308171)
  91 Co ( 0.000000,  0.000000,  0.826233)
  92 Al ( 0.000000,  0.000000, -0.052783)
  93 Al ( 0.000000,  0.000000, -0.034735)
  94 Cr ( 0.000000,  0.000000, -1.475180)
  95 Cr ( 0.000000,  0.000000, -1.272980)
  96 Co ( 0.000000,  0.000000,  1.148181)
  97 Fe ( 0.000000,  0.000000,  2.418210)
  98 Co ( 0.000000,  0.000000,  1.073522)
  99 Ni ( 0.000000,  0.000000,  0.394390)
 100 Ni ( 0.000000,  0.000000,  0.336663)
 101 Ni ( 0.000000,  0.000000,  0.542642)
 102 Ni ( 0.000000,  0.000000,  0.380536)
 103 Ni ( 0.000000,  0.000000,  0.218783)
 104 Co ( 0.000000,  0.000000,  1.362972)
 105 Ni ( 0.000000,  0.000000,  0.483599)
 106 Ni ( 0.000000,  0.000000,  0.570334)
 107 Al ( 0.000000,  0.000000, -0.035988)
 108 Cr ( 0.000000,  0.000000, -2.409439)
 109 Cr ( 0.000000,  0.000000,  2.183663)
 110 Ni ( 0.000000,  0.000000,  0.450160)
 111 Fe ( 0.000000,  0.000000,  2.500962)
 112 Fe ( 0.000000,  0.000000,  2.138202)
 113 Al ( 0.000000,  0.000000, -0.036550)
 114 Co ( 0.000000,  0.000000,  1.096415)
 115 Cr ( 0.000000,  0.000000, -2.467810)
 116 Al ( 0.000000,  0.000000, -0.060682)
 117 Fe ( 0.000000,  0.000000,  2.410759)
 118 Ni ( 0.000000,  0.000000,  0.269357)
 119 Cr ( 0.000000,  0.000000,  1.857210)
 120 Ni ( 0.000000,  0.000000,  0.265824)
 121 Fe ( 0.000000,  0.000000,  2.640267)
 122 Co ( 0.000000,  0.000000,  1.134141)
 123 Cr ( 0.000000,  0.000000,  1.806353)
 124 Co ( 0.000000,  0.000000,  1.091811)

Energy contributions relative to reference atoms: (reference = -3927717.499734)

Kinetic:       +385.343739
Potential:     -370.844682
External:        +0.000000
XC:            -970.701157
Entropy (-ST):   -5.123243
Local:          +38.274324
--------------------------
Free energy:   -923.051019
Extrapolated:  -920.489397

Dipole-layer corrected work functions: 4.845499, 4.879657 eV

Spin contamination: 32.913399 electrons
Showing all kpts
                      Up                     Down
 Kpt  Band  Eigenvalues  Occupancy  Eigenvalues  Occupancy
  0   547     -0.13669    0.99744      0.90605    0.01141
  0   548     -0.13204    0.99732      0.91015    0.01096
  0   549     -0.11676    0.99688      0.91930    0.01001
  0   550     -0.11052    0.99668      0.92658    0.00931

  1   547     -0.12983    0.99726      0.90292    0.01177
  1   548     -0.12590    0.99715      0.91186    0.01078
  1   549     -0.11876    0.99694      0.92885    0.00911
  1   550     -0.10290    0.99642      0.93635    0.00845


Fermi level: 0.45989

No gap

Forces in eV/Ang:
  0 Ni   -0.30565   -0.26574    0.57133
  1 Cr   -0.16058    0.08799    0.08370
  2 Cr    0.46666   -0.05022    0.53779
  3 Fe   -0.00004   -0.54982   -0.75506
  4 Al    0.46375   -0.25243   -0.82508
  5 Co   -0.04225   -0.07013    0.35963
  6 Cr   -0.58035   -0.00752    0.10509
  7 Cr   -0.34150   -0.06990   -1.21361
  8 Ni   -0.16864    0.26076   -0.45872
  9 Co    0.41829   -0.06185    0.56253
 10 Ni   -0.12498   -0.00756    0.29034
 11 Co    0.18449   -0.11093    0.24482
 12 Al   -0.44085   -0.14340   -1.13948
 13 Cr    0.06322   -0.47752   -0.94867
 14 Ni    0.19277   -0.18621    0.08975
 15 Ni    0.15031    0.39449   -0.44418
 16 Co   -0.39984    0.37306   -0.29944
 17 Cr   -0.00042   -0.31316   -0.57298
 18 Cr    0.27776    0.51651   -0.97583
 19 Fe    0.60268    0.25790    0.08550
 20 Co   -0.12109    0.00835    1.66762
 21 Ni   -0.76405    0.19605    0.10989
 22 Cr    0.21059   -0.12603    0.28194
 23 Ni    0.16037    0.16508   -0.08016
 24 Ni    0.58560    0.10774    0.75362
 25 Ni   -0.21437    0.99419   -0.15878
 26 Co    0.39618    0.50044    0.32079
 27 Fe   -0.90456   -0.53906    0.08589
 28 Al    0.16489   -0.08774   -0.18666
 29 Fe    0.82539    0.13035   -0.00509
 30 Cr   -0.57328   -0.04205   -0.22712
 31 Cr   -1.16543   -0.84590   -0.32625
 32 Al    0.14030   -0.92495    0.60547
 33 Fe    0.45008   -0.08234   -0.33676
 34 Fe    1.24944   -0.53586   -0.38227
 35 Co   -0.40687   -0.10770   -0.26767
 36 Al    0.33923   -0.41973    0.25778
 37 Fe    0.38575    0.49709    0.57067
 38 Cr   -0.65490   -0.21963   -1.29271
 39 Fe    0.53166   -0.60231   -0.49340
 40 Al   -1.86065    0.84748   -0.97231
 41 Al    1.10097   -0.31004    0.84763
 42 Cr    0.81805   -0.35097    0.87472
 43 Al    0.68106    0.21178    0.87136
 44 Fe   -0.20212   -0.10924    0.56046
 45 Cr   -0.10364    1.37142   -0.36569
 46 Al   -0.55320    1.27114   -0.05057
 47 Fe    0.32298    0.55404    0.84793
 48 Cr   -0.74364   -0.41926    0.34962
 49 Co    0.14876   -0.13332   -0.26147
 50 Fe   -0.30079    0.20329   -0.15923
 51 Co    0.29878   -0.14209   -0.16735
 52 Ni   -0.60639   -0.34459   -0.07440
 53 Co    0.07525   -0.21221    0.14898
 54 Co    0.56095   -0.20132   -0.46142
 55 Fe   -0.63414   -0.70316   -0.31949
 56 Fe   -0.06965   -0.07180    0.31519
 57 Fe   -0.26562    0.40754    0.28010
 58 Al   -0.46582   -1.17478   -0.40753
 59 Co    0.25605   -0.31118    0.08418
 60 Al    0.19120   -0.36426    0.53553
 61 Co    0.46398    0.24751   -0.18303
 62 Co   -0.76933    0.53935    0.12206
 63 Al    1.03646    1.11145    0.61010
 64 Ni   -0.10244    0.42252    0.18469
 65 Ni    0.28413    0.04008   -0.01037
 66 Fe   -0.47263   -0.59179   -0.05070
 67 Co   -0.07867    0.46456    0.13342
 68 Fe    0.48884    0.69633   -0.40517
 69 Cr   -1.12837    1.01574   -0.22049
 70 Cr   -0.25631    0.04294    0.27338
 71 Cr    0.94947    0.22245   -0.09285
 72 Ni    0.15249   -0.35352   -0.63517
 73 Fe   -0.20093   -0.58132    0.32545
 74 Ni   -0.00621   -0.23709   -0.03594
 75 Co    0.39679   -0.00487   -0.41338
 76 Ni   -0.14968    0.36891   -0.01998
 77 Co   -0.33259   -0.09263   -0.54906
 78 Fe    0.27954   -0.33906   -0.40109
 79 Fe   -0.02350   -0.22271    0.04222
 80 Fe   -0.33008   -0.04397    0.56191
 81 Fe   -0.51430   -0.21109    0.85893
 82 Al    0.26120    1.13523   -1.07636
 83 Co    0.10402    0.31524    0.09991
 84 Cr    0.58539   -0.44113    1.51083
 85 Cr   -0.41282   -0.37574    0.82820
 86 Fe   -0.07922   -0.11484   -0.29934
 87 Ni    0.00489   -0.02798   -0.95285
 88 Co   -0.58503   -0.50300   -0.11735
 89 Ni    0.31625   -0.24970   -0.20438
 90 Cr   -0.32664   -0.35061    0.02662
 91 Co   -0.23198   -0.00971   -0.72641
 92 Al   -1.04401   -0.27838   -0.34999
 93 Al    0.27743   -0.13507   -1.03876
 94 Cr    0.60083    0.54335    0.09696
 95 Cr    0.31167   -0.04873    0.27835
 96 Co   -0.16627    0.22835    0.11625
 97 Fe    0.20177    0.40981   -0.26430
 98 Co   -0.08085    0.14375   -0.18238
 99 Ni   -0.04403   -0.27946    0.18642
100 Ni   -0.07313    0.05672    0.18715
101 Ni   -0.05480   -0.24710   -0.18948
102 Ni   -0.21130   -0.18511    0.01279
103 Ni    0.16996   -0.16239   -0.09129
104 Co   -0.07243   -0.35367   -0.05932
105 Ni    0.14461    0.55462   -0.38292
106 Ni    0.00573    0.45858    0.17780
107 Al   -0.88232   -0.71569    1.97619
108 Cr    0.68689   -0.02983    0.26555
109 Cr    0.37127    0.31855    0.13376
110 Ni    0.17292   -0.23163   -1.50893
111 Fe   -0.73282    0.30165   -0.40090
112 Fe   -0.16568   -0.42912    0.28869
113 Al    0.34190    0.62852    0.55473
114 Co    0.34781   -0.27308   -0.23667
115 Cr   -0.59290   -0.05466    0.47345
116 Al    0.30087   -0.03127    1.04758
117 Fe    0.62186   -0.27012    0.37986
118 Ni   -0.11123   -0.25050    0.21793
119 Cr    0.57622   -0.78652   -0.23692
120 Ni   -0.14774    0.19664    0.16541
121 Fe   -0.02248    0.75308    0.24115
122 Co   -0.34012    0.32321    0.04946
123 Cr    0.34628    0.49315    0.59664
124 Co    0.39747    0.07071   -0.42254

Timing:                              incl.     excl.
-----------------------------------------------------------
Forces:                             68.656    68.656   0.2% |
Hamiltonian:                         2.242     0.017   0.0% |
 Atomic:                             0.396     0.002   0.0% |
  XC Correction:                     0.395     0.395   0.0% |
 Calculate atomic Hamiltonians:      1.108     1.108   0.0% |
 Communicate:                        0.118     0.118   0.0% |
 Initialize Hamiltonian:             0.000     0.000   0.0% |
 Poisson:                            0.129     0.129   0.0% |
 XC 3D grid:                         0.474     0.474   0.0% |
LCAO initialization:               332.298     0.589   0.0% |
 LCAO eigensolver:                  17.585     0.016   0.0% |
  Calculate projections:             0.000     0.000   0.0% |
  DenseAtomicCorrection:             0.000     0.000   0.0% |
  Distribute overlap matrix:        10.134    10.134   0.0% |
  Orbital Layouts:                   7.384     7.384   0.0% |
  Potential matrix:                  0.005     0.005   0.0% |
  Sum over cells:                    0.046     0.046   0.0% |
 LCAO to grid:                     311.629   311.629   1.0% |
 Set positions (LCAO WFS):           2.495     2.143   0.0% |
  Basic WFS set positions:           0.004     0.004   0.0% |
  Basis functions set positions:     0.001     0.001   0.0% |
  P tci:                             0.000     0.000   0.0% |
  ST tci:                            0.137     0.137   0.0% |
  mktci:                             0.210     0.210   0.0% |
PWDescriptor:                        0.131     0.131   0.0% |
SCF-cycle:                       30572.488     2.281   0.0% |
 Davidson:                       29253.384  8746.979  28.2% |----------|
  Apply H:                         550.075   540.505   1.7% ||
   HMM T:                            9.570     9.570   0.0% |
  Subspace diag:                  2882.792     0.080   0.0% |
   calc_h_matrix:                 1250.345   737.657   2.4% ||
    Apply H:                       512.688   502.962   1.6% ||
     HMM T:                          9.727     9.727   0.0% |
   diagonalize:                    238.834   238.834   0.8% |
   rotate_psi:                    1393.533  1393.533   4.5% |-|
  calc. matrices:                 6729.019  5767.152  18.6% |------|
   Apply H:                        961.867   942.063   3.0% ||
    HMM T:                          19.804    19.804   0.1% |
  diagonalize:                    7402.773  7402.773  23.9% |---------|
  rotate_psi:                     2941.746  2941.746   9.5% |---|
 Density:                          726.872     0.007   0.0% |
  Atomic density matrices:           5.114     5.114   0.0% |
  Mix:                             449.303   449.303   1.4% ||
  Multipole moments:                 0.140     0.140   0.0% |
  Pseudo density:                  272.309   272.300   0.9% |
   Symmetrize density:               0.010     0.010   0.0% |
 Hamiltonian:                      569.684     2.600   0.0% |
  Atomic:                           69.027     0.286   0.0% |
   XC Correction:                   68.741    68.741   0.2% |
  Calculate atomic Hamiltonians:   400.727   400.727   1.3% ||
  Communicate:                      17.386    17.386   0.1% |
  Poisson:                           8.622     8.622   0.0% |
  XC 3D grid:                       71.322    71.322   0.2% |
 Orthonormalize:                    20.266     0.001   0.0% |
  calc_s_matrix:                     2.472     2.472   0.0% |
  inverse-cholesky:                  0.906     0.906   0.0% |
  projections:                      12.631    12.631   0.0% |
  rotate_psi_s:                      4.256     4.256   0.0% |
Set symmetry:                        0.001     0.001   0.0% |
Other:                              13.518    13.518   0.0% |
-----------------------------------------------------------
Total:                                     30989.335 100.0%

Date: Wed Apr 19 14:58:57 2023
