
  ___ ___ ___ _ _ _  
 |   |   |_  | | | | 
 | | | | | . | | | | 
 |__ |  _|___|_____|  22.8.0
 |___|_|             

User:   c.zeng@d0102
Date:   Mon Apr 17 04:39:36 2023
Arch:   x86_64
Pid:    91112
CWD:    /home/c.zeng/projects/hea-corrosion/hea-mlp/data-curation/surface-md/dft-jobs/21
Python: 3.8.1
gpaw:   /home/c.zeng/usr/installs/gpaw/source/gpaw-22.8.0/gpaw
_gpaw:  /home/c.zeng/usr/installs/gpaw/source/gpaw-22.8.0/
        _gpaw.cpython-38-x86_64-linux-gnu.so
ase:    /home/c.zeng/.local/lib/python3.8/site-packages/ase-3.22.1-py3.8.egg/ase (version 3.22.1)
numpy:  /home/c.zeng/.local/lib/python3.8/site-packages/numpy (version 1.24.2)
scipy:  /home/c.zeng/.local/lib/python3.8/site-packages/scipy (version 1.10.1)
libxc:  4.2.3
units:  Angstrom and eV
cores: 30
OpenMP: False
OMP_NUM_THREADS: 1

Input parameters:
  convergence: {energy: 0.0001}
  kpts: [2 2 1]
  maxiter: 666
  mode: {ecut: 350.0,
         name: pw}
  occupations: {fixmagmom: False,
                name: fermi-dirac,
                width: 0.1}
  poissonsolver: {dipolelayer: xy}
  spinpol: True
  symmetry: {point_group: False}
  xc: PBE

System changes: positions, numbers, cell, pbc, initial_charges, initial_magmoms 

Initialize ...

species:
  Ni:
    name: Nickel
    id: 0d9f38a9d6e76a2886f07bb4381f212b
    Z: 28.0
    valence: 16
    core: 12
    charge: 0.0
    file: /home/c.zeng/usr/data/gpaw-setups-0.9.20000/Ni.PBE.gz
    compensation charges: {type: gauss,
                           rc: 0.36,
                           lmax: 2}
    cutoffs: {filter: 2.14,
              core: 1.98}
    valence states:
      #              energy  rcut
      - 4s(2.00)    -5.642   1.164
      - 3p(6.00)   -71.394   1.207
      - 4p(0.00)    -1.226   1.207
      - 3d(8.00)    -8.875   1.138
      -  s          21.570   1.164
      -  d          18.337   1.138
  
    # Using partial waves for Ni as LCAO basis

  Fe:
    name: Iron
    id: 37abbd8d6c3c35915a9b583b742da910
    Z: 26.0
    valence: 8
    core: 18
    charge: 0.0
    file: /home/c.zeng/usr/data/gpaw-setups-0.9.20000/Fe.PBE.gz
    compensation charges: {type: gauss,
                           rc: 0.33,
                           lmax: 2}
    cutoffs: {filter: 2.06,
              core: 2.67}
    valence states:
      #              energy  rcut
      - 4s(2.00)    -5.291   1.164
      - 4p(0.00)    -1.326   1.058
      - 3d(6.00)    -7.505   1.058
      -  s          21.920   1.164
      -  p          25.885   1.058
      -  d          19.706   1.058
  
    # Using partial waves for Fe as LCAO basis

  Co:
    name: Cobalt
    id: 339d20d5b0b93d2de9531a1bee871d91
    Z: 27.0
    valence: 9
    core: 18
    charge: 0.0
    file: /home/c.zeng/usr/data/gpaw-setups-0.9.20000/Co.PBE.gz
    compensation charges: {type: gauss,
                           rc: 0.32,
                           lmax: 2}
    cutoffs: {filter: 1.87,
              core: 2.55}
    valence states:
      #              energy  rcut
      - 4s(2.00)    -5.469   1.005
      - 4p(0.00)    -1.277   1.058
      - 3d(7.00)    -8.205   1.005
      -  s          21.742   1.005
      -  p          25.934   1.058
      -  d          19.007   1.005
  
    # Using partial waves for Co as LCAO basis

  Cr:
    name: Chromium
    id: 33f258bda2ca9f93018e70263a35547b
    Z: 24.0
    valence: 6
    core: 18
    charge: 0.0
    file: /home/c.zeng/usr/data/gpaw-setups-0.9.20000/Cr.PBE.gz
    compensation charges: {type: gauss,
                           rc: 0.35,
                           lmax: 2}
    cutoffs: {filter: 2.14,
              core: 3.04}
    valence states:
      #              energy  rcut
      - 4s(1.00)    -4.007   1.164
      - 4p(0.00)    -0.989   1.217
      - 3d(5.00)    -2.913   1.111
      -  s          23.205   1.164
      -  p          26.223   1.217
      -  d          24.299   1.111
  
    # Using partial waves for Cr as LCAO basis

  Al:
    name: Aluminium
    id: 0292cae29f5d6237e50f6abdd43a7bdd
    Z: 13.0
    valence: 3
    core: 10
    charge: 0.0
    file: /home/c.zeng/usr/data/gpaw-setups-0.9.20000/Al.PBE.gz
    compensation charges: {type: gauss,
                           rc: 0.34,
                           lmax: 2}
    cutoffs: {filter: 1.91,
              core: 2.36}
    valence states:
      #              energy  rcut
      - 3s(2.00)    -7.753   1.085
      - 3p(1.00)    -2.712   1.085
      -  s          19.459   1.085
      -  p          24.499   1.085
      -  d           0.000   1.085
  
    # Using partial waves for Al as LCAO basis

Reference energy: -4275894.041763  # eV

Spin-polarized calculation.
Magnetic moment: 165.900000

Convergence criteria:
 Maximum [total energy] change in last 3 cyles: 0.0001 eV / electron
 Maximum integral of absolute [dens]ity change: 0.0001 electrons / valence electron
 Maximum integral of absolute [eigenst]ate change: 4e-08 eV^2 / valence electron
 Maximum number of scf [iter]ations: 666
 (Square brackets indicate name in SCF output, whereas a 'c' in
 the SCF output indicates the quantity has converged.)

Symmetries present (total): 1

  ( 1  0  0)
  ( 0  1  0)
  ( 0  0  1)

4 k-points: 2 x 2 x 1 Monkhorst-Pack grid
2 k-points in the irreducible part of the Brillouin zone
       k-points in crystal coordinates                weights
   0:     0.25000000   -0.25000000    0.00000000          2/4
   1:     0.25000000    0.25000000    0.00000000          2/4

Wave functions: Plane wave expansion
  Cutoff energy: 350.000 eV
  Number of coefficients (min, max): 58901, 58943
  Pulay-stress correction: 0.000000 eV/Ang^3 (de/decut=0.000000)
  Using FFTW library
  ScaLapack parameters: grid=1x1, blocksize=None
  Wavefunction extrapolation:
    Improved wavefunction reuse through dual PAW basis 

Occupation numbers: Fermi-Dirac:
  width: 0.1000  # eV
 

Eigensolver
   Davidson(niter=2) 

Densities:
  Coarse grid: 54*54*128 grid
  Fine grid: 108*108*256 grid
  Total Charge: 0.000000 

Density mixing:
  Method: difference
  Backend: pulay
  Linear mixing parameter: 0.05
  old densities: 5
  Damping of long wavelength oscillations: 50 

Hamiltonian:
  XC and Coulomb potentials evaluated on a 108*108*256 grid
  Using the PBE Exchange-Correlation functional
  External potential:
    NoExternalPotential
 

XC parameters: PBE with 2 nearest neighbor stencil

Memory estimate:
  Process memory now: 367.76 MiB
  Calculator: 2335.53 MiB
    Density: 17.84 MiB
      Arrays: 6.75 MiB
      Localized functions: 8.39 MiB
      Mixer: 2.70 MiB
    Hamiltonian: 5.27 MiB
      Arrays: 5.01 MiB
      XC: 0.00 MiB
      Poisson: 0.00 MiB
      vbar: 0.25 MiB
    Wavefunctions: 2312.43 MiB
      Arrays psit_nG: 1458.82 MiB
      Eigensolver: 834.29 MiB
      Projections: 3.66 MiB
      Projectors: 1.14 MiB
      PW-descriptor: 14.51 MiB

Total number of cores used: 30
Parallelization over k-points: 2
Domain decomposition: 1 x 3 x 5

Number of atoms: 125
Number of atomic orbitals: 1185
Number of bands in calculation: 811
Number of valence electrons: 1179
Bands to converge: occupied

... initialized

Initializing position-dependent things.

Density initialized from atomic densities
Creating initial wave functions:
  811 bands from LCAO basis set

                                                                  
                                                                  
                                                                  
                                                                  
                             Co                       Ni          
                               Ni     Co    Cr    Co    Cr        
                                                    Fe            
                           Cr   CNi   CCo   AlCr  Fe    Fe        
                 Co   Cr   CCo   CFe   CrAl   Ni    Fe            
            Co    Co    Cr   FFe    Ni                            
              Fe    Ni Ni CrCo    CFe    Ni    Cr    Ni           
                   Fe   NCr   CCo   CFe   AlCo  Co                
              Ni    Fe    Ni    Fe     Ni      Ni                 
                    Fe   Ni    FNi   CNi   CFe   Cr               
               Ni    Fe   CCr   CFe    NCr  NCr   NCo   Co        
          Co     Ni   Co    FFe   FCo Co       Ni                 
                           Fe    Fe    CCr    Fe    Cr            
            Fe    Cr   ACr   NNi   CCr   Cr    Ni                 
       Al    Co    Ni    Fe    Co          Co                     
                               Fe    Cr                           
              Fe    Co    Fe    Co     Ni                         
                                                                  
                                                                  
                                                                  
                                                                  
                                                                  

Positions:
   0 Ni    12.429003    1.474764   10.326286    ( 0.0000,  0.0000,  1.5000)
   1 Fe     2.476093    1.421380   10.419998    ( 0.0000,  0.0000,  2.0000)
   2 Co     4.848953    1.464902   10.542757    ( 0.0000,  0.0000,  2.1000)
   3 Fe     7.411992    1.492383   10.461099    ( 0.0000,  0.0000,  2.0000)
   4 Co     9.895147    1.532661   10.635553    ( 0.0000,  0.0000,  2.1000)
   5 Co    13.765682    3.526132   10.567926    ( 0.0000,  0.0000,  2.1000)
   6 Ni     3.825011    3.763576   10.537295    ( 0.0000,  0.0000,  1.5000)
   7 Fe     6.309461    3.682538   10.524751    ( 0.0000,  0.0000,  2.0000)
   8 Fe     8.647694    3.573584   10.478967    ( 0.0000,  0.0000,  2.0000)
   9 Cr    11.317256    3.509801   10.417222    ( 0.0000,  0.0000,  0.0000)
  10 Ni    14.906969    5.818734   10.321370    ( 0.0000,  0.0000,  1.5000)
  11 Al     4.973713    5.963022   10.436728    ( 0.0000,  0.0000,  0.0000)
  12 Ni     7.431317    5.951365   10.674570    ( 0.0000,  0.0000,  1.5000)
  13 Co     9.867092    5.677042   10.759542    ( 0.0000,  0.0000,  2.1000)
  14 Cr    12.497615    5.654952   10.600433    ( 0.0000,  0.0000,  0.0000)
  15 Cr    16.152152    7.994356    9.945978    ( 0.0000,  0.0000,  0.0000)
  16 Fe     6.205986    8.177518   10.508264    ( 0.0000,  0.0000,  2.0000)
  17 Fe     8.646795    8.025949   10.586892    ( 0.0000,  0.0000,  2.0000)
  18 Cr    11.151524    7.802749   10.715004    ( 0.0000,  0.0000,  0.0000)
  19 Fe    13.705170    7.950709   10.615426    ( 0.0000,  0.0000,  2.0000)
  20 Co    17.280435   10.289453   10.522530    ( 0.0000,  0.0000,  2.1000)
  21 Co     7.449347   10.243462   10.533523    ( 0.0000,  0.0000,  2.1000)
  22 Co    10.068814   10.094469   10.495663    ( 0.0000,  0.0000,  2.1000)
  23 Ni    12.396659   10.114343   10.576225    ( 0.0000,  0.0000,  1.5000)
  24 Ni    14.917622   10.227006   10.489290    ( 0.0000,  0.0000,  1.5000)
  25 Al     0.009820   -0.004592   12.555717    ( 0.0000,  0.0000,  0.0000)
  26 Co     2.450710    0.054353   12.587661    ( 0.0000,  0.0000,  2.1000)
  27 Ni     4.928989    0.017559   12.476909    ( 0.0000,  0.0000,  1.5000)
  28 Ni    13.711623   10.843868   12.605240    ( 0.0000,  0.0000,  1.5000)
  29 Co     9.892751   -0.022820   12.598374    ( 0.0000,  0.0000,  2.1000)
  30 Fe     1.356036    2.112990   12.606087    ( 0.0000,  0.0000,  2.0000)
  31 Cr     3.688160    2.394833   12.449694    ( 0.0000,  0.0000,  0.0000)
  32 Cr     6.294104    2.193357   12.572724    ( 0.0000,  0.0000,  0.0000)
  33 Ni     8.702656    2.248930   12.696487    ( 0.0000,  0.0000,  1.5000)
  34 Cr    11.218277    2.119238   12.475298    ( 0.0000,  0.0000,  0.0000)
  35 Ni    14.935988    4.405046   12.579169    ( 0.0000,  0.0000,  1.5000)
  36 Cr     5.126703    4.406094   12.657012    ( 0.0000,  0.0000,  0.0000)
  37 Fe     7.545630    4.295232   12.652949    ( 0.0000,  0.0000,  2.0000)
  38 Fe     9.985096    4.210230   12.659692    ( 0.0000,  0.0000,  2.0000)
  39 Cr    12.433776    4.131024   12.537189    ( 0.0000,  0.0000,  0.0000)
  40 Co    16.241095    6.470243   12.454100    ( 0.0000,  0.0000,  2.1000)
  41 Co     6.230643    6.554176   12.768680    ( 0.0000,  0.0000,  2.1000)
  42 Co     8.716439    6.593977   12.652188    ( 0.0000,  0.0000,  2.1000)
  43 Ni    11.190994    6.591972   12.646594    ( 0.0000,  0.0000,  1.5000)
  44 Cr    13.616510    6.368090   12.513333    ( 0.0000,  0.0000,  0.0000)
  45 Al     5.017024    8.581495   12.694760    ( 0.0000,  0.0000,  0.0000)
  46 Fe     7.468046    8.707442   12.623581    ( 0.0000,  0.0000,  2.0000)
  47 Cr     9.901622    8.685878   12.642871    ( 0.0000,  0.0000,  0.0000)
  48 Co    12.322112    8.673452   12.550753    ( 0.0000,  0.0000,  2.1000)
  49 Cr    14.999956    8.540490   12.635484    ( 0.0000,  0.0000,  0.0000)
  50 Co     1.096936    0.527972   14.668163    ( 0.0000,  0.0000,  2.1000)
  51 Ni     3.698724    0.689712   14.603561    ( 0.0000,  0.0000,  1.5000)
  52 Co     6.035399    0.768156   14.494076    ( 0.0000,  0.0000,  2.1000)
  53 Fe     8.508512    0.770882   14.755196    ( 0.0000,  0.0000,  2.0000)
  54 Co    11.147507    0.714862   14.665196    ( 0.0000,  0.0000,  2.1000)
  55 Ni     2.449774    2.736223   14.794753    ( 0.0000,  0.0000,  1.5000)
  56 Fe     4.967333    2.772012   14.565307    ( 0.0000,  0.0000,  2.0000)
  57 Cr     7.475257    2.820690   14.767137    ( 0.0000,  0.0000,  0.0000)
  58 Fe     9.926884    2.873205   14.682529    ( 0.0000,  0.0000,  2.0000)
  59 Cr    12.568950    2.726628   14.655262    ( 0.0000,  0.0000,  0.0000)
  60 Fe     3.810456    5.135769   14.555743    ( 0.0000,  0.0000,  2.0000)
  61 Ni     6.132285    5.032521   14.645100    ( 0.0000,  0.0000,  1.5000)
  62 Ni     8.712050    5.102118   14.585829    ( 0.0000,  0.0000,  1.5000)
  63 Ni    11.201852    5.044452   14.534762    ( 0.0000,  0.0000,  1.5000)
  64 Fe    13.659841    4.905063   14.736674    ( 0.0000,  0.0000,  2.0000)
  65 Ni     5.186999    7.127433   14.831964    ( 0.0000,  0.0000,  1.5000)
  66 Cr     7.555315    7.175443   14.673451    ( 0.0000,  0.0000,  0.0000)
  67 Co    10.090420    7.211301   14.822240    ( 0.0000,  0.0000,  2.1000)
  68 Al    12.531333    7.098972   14.744838    ( 0.0000,  0.0000,  0.0000)
  69 Co    14.998935    7.257732   14.513386    ( 0.0000,  0.0000,  2.1000)
  70 Co     6.211668    9.305274   14.728653    ( 0.0000,  0.0000,  2.1000)
  71 Cr     8.748592    9.411505   14.820663    ( 0.0000,  0.0000,  0.0000)
  72 Ni    11.298488    9.338744   14.668224    ( 0.0000,  0.0000,  1.5000)
  73 Fe    13.713529    9.473856   14.698387    ( 0.0000,  0.0000,  2.0000)
  74 Ni    16.161701    9.378070   14.752883    ( 0.0000,  0.0000,  1.5000)
  75 Ni    12.473593    1.286435   16.646216    ( 0.0000,  0.0000,  1.5000)
  76 Ni     2.502208    1.458239   16.918110    ( 0.0000,  0.0000,  1.5000)
  77 Fe     4.952243    1.473466   16.709938    ( 0.0000,  0.0000,  2.0000)
  78 Ni     7.311957    1.206945   16.790608    ( 0.0000,  0.0000,  1.5000)
  79 Fe     9.958654    1.358520   16.650681    ( 0.0000,  0.0000,  2.0000)
  80 Co    13.885964    3.654821   16.873954    ( 0.0000,  0.0000,  2.1000)
  81 Fe     3.792069    3.691659   16.753552    ( 0.0000,  0.0000,  2.0000)
  82 Cr     6.276411    3.650121   16.688155    ( 0.0000,  0.0000,  0.0000)
  83 Co     8.657311    3.473052   16.663525    ( 0.0000,  0.0000,  2.1000)
  84 Fe    11.426214    3.474814   16.681323    ( 0.0000,  0.0000,  2.0000)
  85 Cr    14.936045    5.794876   16.672588    ( 0.0000,  0.0000,  0.0000)
  86 Ni     5.004837    5.697595   16.705127    ( 0.0000,  0.0000,  1.5000)
  87 Fe     7.409322    5.839706   16.764731    ( 0.0000,  0.0000,  2.0000)
  88 Fe    10.113433    5.626390   16.772614    ( 0.0000,  0.0000,  2.0000)
  89 Ni    12.505380    5.659274   16.810260    ( 0.0000,  0.0000,  1.5000)
  90 Fe    16.213204    7.937504   16.842208    ( 0.0000,  0.0000,  2.0000)
  91 Cr     6.261890    7.958825   16.963759    ( 0.0000,  0.0000,  0.0000)
  92 Cr     8.664090    7.847881   16.594931    ( 0.0000,  0.0000,  0.0000)
  93 Cr    10.977759    7.917941   16.859474    ( 0.0000,  0.0000,  0.0000)
  94 Ni    13.737009    7.963589   16.706019    ( 0.0000,  0.0000,  1.5000)
  95 Fe    17.467453    9.991791   16.800700    ( 0.0000,  0.0000,  2.0000)
  96 Cr     7.493814   10.064894   17.098913    ( 0.0000,  0.0000,  0.0000)
  97 Cr     9.934824   10.252040   16.792728    ( 0.0000,  0.0000,  0.0000)
  98 Al    12.301962   10.032789   16.741034    ( 0.0000,  0.0000,  0.0000)
  99 Fe    14.957028   10.035191   16.792818    ( 0.0000,  0.0000,  2.0000)
 100 Co     6.396637   10.777797   19.078632    ( 0.0000,  0.0000,  2.1000)
 101 Fe     2.698695    0.043505   18.873050    ( 0.0000,  0.0000,  2.0000)
 102 Ni     5.114769    0.031042   18.882914    ( 0.0000,  0.0000,  1.5000)
 103 Cr     7.467797    0.030627   18.876702    ( 0.0000,  0.0000,  0.0000)
 104 Ni    16.443839   10.665123   18.841438    ( 0.0000,  0.0000,  1.5000)
 105 Co     1.339969    2.110380   18.812215    ( 0.0000,  0.0000,  2.1000)
 106 Co     3.762023    2.141050   18.810091    ( 0.0000,  0.0000,  2.1000)
 107 Cr     6.202182    2.189886   18.852528    ( 0.0000,  0.0000,  0.0000)
 108 Fe     8.823025    2.178397   18.813658    ( 0.0000,  0.0000,  2.0000)
 109 Ni    11.176825    2.238002   18.781740    ( 0.0000,  0.0000,  1.5000)
 110 Co     2.802030    4.421756   18.819941    ( 0.0000,  0.0000,  2.1000)
 111 Cr     5.154841    4.248840   18.697092    ( 0.0000,  0.0000,  0.0000)
 112 Co     7.558869    4.479602   18.808530    ( 0.0000,  0.0000,  2.1000)
 113 Fe     9.956285    4.308427   18.688337    ( 0.0000,  0.0000,  2.0000)
 114 Al    12.597346    4.272856   18.986503    ( 0.0000,  0.0000,  0.0000)
 115 Fe    16.381131    6.667443   18.893233    ( 0.0000,  0.0000,  2.0000)
 116 Cr     6.304769    6.482370   18.822574    ( 0.0000,  0.0000,  0.0000)
 117 Ni     8.779263    6.426358   18.756323    ( 0.0000,  0.0000,  1.5000)
 118 Co    11.268605    6.446459   18.721600    ( 0.0000,  0.0000,  2.1000)
 119 Cr    13.999740    6.552092   18.666453    ( 0.0000,  0.0000,  0.0000)
 120 Cr    17.523951    8.668289   18.920234    ( 0.0000,  0.0000,  0.0000)
 121 Ni     7.730156    8.563041   18.704609    ( 0.0000,  0.0000,  1.5000)
 122 Co    10.218305    8.856955   18.819968    ( 0.0000,  0.0000,  2.1000)
 123 Cr    12.674357    8.693955   18.941766    ( 0.0000,  0.0000,  0.0000)
 124 Co    15.094627    8.650662   18.899551    ( 0.0000,  0.0000,  2.1000)

Unit cell:
           periodic     x           y           z      points  spacing
  1. axis:    yes   12.474800    0.000000    0.000000    54     0.2001
  2. axis:    yes    6.246240   10.818800    0.000000    54     0.2003
  3. axis:    no     0.000000    0.000000   29.353100   128     0.2293

  Lengths:  12.474800  12.492476  29.353100
  Angles:   90.000000  90.000000  59.999988

Effective grid spacing dv^(1/3) = 0.2198

     iter     time        total  log10-change:  magmom
                         energy  eigst   dens
iter:   1 04:46:52 -1203.535958                  +166.2219
iter:   2 04:49:19 -1060.718987  -0.14  -1.12    +90.0951
iter:   3 04:51:46 -1367.387856  -0.51  -1.16    +78.1595
iter:   4 04:54:13 -1587.794684  -0.03  -0.93    +70.2339
iter:   5 04:56:41 -1050.135928  -0.70  -0.86    +44.0636
iter:   6 04:59:08 -1008.213075  -1.42  -1.22    +37.7054
iter:   7 05:01:35  -995.780845  -1.69  -1.29    +37.9663
iter:   8 05:04:02  -991.252872  -1.55  -1.33    +40.5643
iter:   9 05:06:29  -977.178537  -0.97  -1.35    +41.2457
iter:  10 05:08:56  -984.804778  -1.53  -1.45    +41.8566
iter:  11 05:11:23 -1269.519377  -1.04  -1.43    +42.6005
iter:  12 05:13:51  -969.886716  -1.32  -1.01    +39.3984
iter:  13 05:16:18  -984.791640  -1.58  -1.56    +40.3636
iter:  14 05:18:46  -962.651895  -1.97  -1.47    +41.1361
iter:  15 05:21:14  -964.222404  -2.42  -1.62    +43.7450
iter:  16 05:23:42  -959.912324  -2.59  -1.62    +46.9775
iter:  17 05:26:11  -997.687913  -1.75  -1.70    +49.4519
iter:  18 05:28:39  -965.375407  -1.91  -1.42    +51.7078
iter:  19 05:31:07  -962.434224  -2.36  -1.66    +53.8014
iter:  20 05:33:36  -964.821604  -2.03  -1.75    +56.1104
iter:  21 05:36:04  -963.418191  -2.11  -1.78    +57.4566
iter:  22 05:38:33  -960.916077  -2.33  -1.82    +59.6515
iter:  23 05:41:01  -960.146599  -2.56  -1.86    +62.1152
iter:  24 05:43:29  -960.180736  -2.73  -1.95    +64.1888
iter:  25 05:45:58  -959.564665  -2.93  -1.99    +65.9879
iter:  26 05:48:26  -971.581621  -2.55  -2.05    +67.7908
iter:  27 05:50:54  -961.320799  -2.56  -1.68    +68.2303
iter:  28 05:53:22  -965.503118  -2.59  -2.02    +69.2955
iter:  29 05:55:51  -961.865110  -2.90  -1.85    +70.4160
iter:  30 05:58:19  -962.676002  -2.74  -2.08    +72.3765
iter:  31 06:00:48  -961.832584  -2.78  -2.07    +73.0074
iter:  32 06:03:16  -961.997168  -3.04  -2.10    +74.2229
iter:  33 06:05:44  -964.659510  -2.68  -2.25    +75.3755
iter:  34 06:08:12  -962.330244  -2.78  -2.00    +75.6444
iter:  35 06:10:41  -963.050194  -3.06  -2.27    +75.7699
iter:  36 06:13:09  -962.785294  -3.08  -2.16    +76.4513
iter:  37 06:15:37  -962.781262  -2.99  -2.24    +76.8723
iter:  38 06:18:06  -962.129282  -3.56  -2.28    +77.1407
iter:  39 06:20:34  -962.364230  -3.69  -2.53    +77.6230
iter:  40 06:23:02  -962.325944  -3.77  -2.49    +78.0202
iter:  41 06:25:30  -962.354642c -4.09  -2.54    +78.4181
iter:  42 06:27:59  -962.460838  -3.91  -2.56    +78.7569
iter:  43 06:30:27  -962.718542  -3.72  -2.58    +79.1795
iter:  44 06:32:56  -962.528747  -4.31  -2.45    +79.1461
iter:  45 06:35:24  -962.589043  -3.94  -2.59    +79.1599
iter:  46 06:37:52  -962.607196c -3.94  -2.60    +79.3527
iter:  47 06:40:20  -962.967187  -3.54  -2.66    +79.3329
iter:  48 06:42:46  -962.616874  -3.75  -2.45    +79.3552
iter:  49 06:45:11  -962.632723  -4.01  -2.83    +79.3092
iter:  50 06:47:37  -962.629405c -4.12  -2.78    +79.3447
iter:  51 06:50:03  -962.576836c -4.52  -2.79    +79.4421
iter:  52 06:52:28  -962.587131c -4.81  -3.07    +79.5173
iter:  53 06:54:54  -962.593753c -4.72  -3.06    +79.6182
iter:  54 06:57:20  -962.588400c -5.00  -3.05    +79.6186
iter:  55 06:59:46  -962.616849c -4.66  -3.18    +79.6632
iter:  56 07:02:11  -962.625835c -4.68  -3.02    +79.6774
iter:  57 07:04:37  -962.604843c -4.80  -2.98    +79.7211
iter:  58 07:07:03  -962.611240c -4.93  -3.19    +79.7670
iter:  59 07:09:29  -962.611048c -5.20  -3.17    +79.7518
iter:  60 07:11:55  -962.614294c -5.29  -3.27    +79.8074
iter:  61 07:14:21  -962.620135c -5.38  -3.31    +79.8397
iter:  62 07:16:47  -962.652394c -4.90  -3.29    +79.7861
iter:  63 07:19:13  -962.640799c -4.59  -2.95    +79.8843
iter:  64 07:21:38  -962.637858c -5.04  -3.09    +79.9164
iter:  65 07:24:04  -962.642295c -4.97  -3.21    +79.9201
iter:  66 07:26:30  -962.656280c -4.75  -3.32    +80.0063
iter:  67 07:28:56  -962.649326c -5.37  -3.04    +80.0017
iter:  68 07:31:22  -962.659800c -4.67  -3.19    +79.9914
iter:  69 07:33:48  -962.656170c -5.07  -3.21    +80.0114
iter:  70 07:36:14  -962.655388c -5.24  -3.24    +80.0346
iter:  71 07:38:40  -962.656709c -5.32  -3.43    +80.0302
iter:  72 07:41:07  -962.662765c -5.39  -3.63    +80.0778
iter:  73 07:43:33  -962.662971c -5.66  -3.56    +80.1074
iter:  74 07:45:59  -962.668166c -5.44  -3.67    +80.1383
iter:  75 07:48:25  -962.671701c -5.78  -3.53    +80.1392
iter:  76 07:50:51  -962.671466c -5.21  -3.40    +80.1622
iter:  77 07:53:17  -962.672882c -5.56  -3.61    +80.1712
iter:  78 07:55:43  -962.687545c -5.18  -3.75    +80.1862
iter:  79 07:58:09  -962.678795c -5.25  -3.18    +80.1789
iter:  80 08:00:35  -962.677937c -5.62  -3.49    +80.1896
iter:  81 08:03:01  -962.680222c -5.68  -3.73    +80.1877
iter:  82 08:05:27  -962.682488c -5.78  -3.66    +80.2018
iter:  83 08:07:53  -962.692482c -4.80  -3.59    +80.2670
iter:  84 08:10:19  -962.688963c -5.74  -3.40    +80.2541
iter:  85 08:12:45  -962.697640c -5.50  -3.54    +80.2499
iter:  86 08:15:11  -962.687381c -5.49  -3.28    +80.2540
iter:  87 08:17:37  -962.690734c -5.65  -3.86    +80.2337
iter:  88 08:20:03  -962.688895c -5.60  -3.60    +80.2129
iter:  89 08:22:30  -962.689295c -6.14  -4.01c   +80.2002
iter:  90 08:24:56  -962.690680c -5.85  -4.13c   +80.1560
iter:  91 08:27:22  -962.691585c -5.89  -4.14c   +80.1128
iter:  92 08:29:48  -962.694345c -5.28  -4.15c   +80.0120
iter:  93 08:32:14  -962.699026c -4.97  -3.96    +79.8923
iter:  94 08:34:40  -962.695540c -5.59  -3.64    +79.9896
iter:  95 08:37:06  -962.697337c -6.10  -3.91    +79.9532
iter:  96 08:39:33  -962.696511c -6.61  -3.71    +79.9775
iter:  97 08:41:59  -962.700334c -5.49  -3.76    +79.8860
iter:  98 08:44:25  -962.699764c -6.21  -3.51    +79.8887
iter:  99 08:46:52  -962.701903c -5.67  -3.51    +79.8474
iter: 100 08:49:18  -962.699284c -5.61  -3.35    +79.8280
iter: 101 08:51:43  -962.698751c -5.88  -3.61    +79.7993
iter: 102 08:54:09  -962.718304c -5.04  -3.63    +79.7982
iter: 103 08:56:35  -962.698005c -5.35  -3.11    +79.7898
iter: 104 08:59:00  -962.698124c -5.82  -3.72    +79.7645
iter: 105 09:01:25  -962.698488c -5.70  -3.85    +79.7506
iter: 106 09:03:51  -962.698936c -6.12  -3.73    +79.7406
iter: 107 09:06:16  -962.698870c -6.33  -3.91    +79.7342
iter: 108 09:08:42  -962.699480c -6.10  -3.98    +79.7271
iter: 109 09:11:08  -962.699701c -6.34  -3.89    +79.7114
iter: 110 09:13:34  -962.699644c -6.29  -4.07c   +79.7055
iter: 111 09:15:59  -962.700137c -6.07  -4.06c   +79.7017
iter: 112 09:18:25  -962.699982c -6.30  -4.01c   +79.6884
iter: 113 09:20:51  -962.700163c -6.57  -4.14c   +79.6809
iter: 114 09:23:17  -962.700306c -6.63  -4.39c   +79.6756
iter: 115 09:25:43  -962.700315c -6.79  -4.31c   +79.6729
iter: 116 09:28:09  -962.700533c -6.71  -4.31c   +79.6617
iter: 117 09:30:36  -962.700646c -6.92  -4.40c   +79.6576
iter: 118 09:33:02  -962.701247c -5.67  -4.36c   +79.6224
iter: 119 09:35:28  -962.701661c -5.90  -4.13c   +79.5982
iter: 120 09:37:54  -962.702334c -5.60  -4.07c   +79.5592
iter: 121 09:40:21  -962.702808c -5.57  -3.94    +79.5261
iter: 122 09:42:47  -962.702919c -5.38  -3.86    +79.4824
iter: 123 09:45:14  -962.704064c -5.93  -3.79    +79.4696
iter: 124 09:47:40  -962.703108c -6.41  -3.68    +79.4729
iter: 125 09:50:07  -962.704113c -5.96  -3.76    +79.4658
iter: 126 09:52:34  -962.707088c -5.89  -3.51    +79.4665
iter: 127 09:55:00  -962.704951c -5.30  -3.35    +79.4518
iter: 128 09:57:27  -962.704996c -5.30  -3.58    +79.4259
iter: 129 09:59:54  -962.704452c -5.57  -3.55    +79.4312
iter: 130 10:02:20  -962.721030c -5.18  -3.51    +79.4080
iter: 131 10:04:46  -962.703138c -5.73  -3.14    +79.4204
iter: 132 10:07:13  -962.702719c -6.33  -3.82    +79.4269
iter: 133 10:09:39  -962.703182c -6.57  -4.02c   +79.4202
iter: 134 10:12:06  -962.703041c -6.45  -3.78    +79.4230
iter: 135 10:14:32  -962.703174c -6.50  -3.92    +79.4273
iter: 136 10:16:59  -962.710662c -5.51  -3.88    +79.4258
iter: 137 10:19:25  -962.702628c -5.74  -3.26    +79.4235
iter: 138 10:21:52  -962.703558c -6.01  -3.95    +79.4222
iter: 139 10:24:19  -962.702783c -6.35  -3.77    +79.4314
iter: 140 10:26:45  -962.702448c -6.67  -4.03c   +79.4275
iter: 141 10:29:12  -962.702349c -7.00  -4.19c   +79.4229
iter: 142 10:31:41  -962.702645c -7.21  -4.37c   +79.4235
iter: 143 10:34:09  -962.702322c -7.35  -4.13c   +79.4244
iter: 144 10:36:38  -962.702370c -6.79  -4.40c   +79.4238
iter: 145 10:39:07  -962.702660c -6.72  -4.03c   +79.4243
iter: 146 10:41:36  -962.702365c -7.05  -4.05c   +79.4269
iter: 147 10:44:06  -962.702370c -7.02  -4.47c   +79.4276
iter: 148 10:46:34  -962.702255c -7.30  -4.38c   +79.4214
iter: 149 10:49:03  -962.702325c -7.44c -4.29c   +79.4183

Converged after 149 iterations.

Dipole moment: (11.296759, 35.812831, -0.017611) |e|*Ang

Total magnetic moment: (0.000000, 0.000000, 79.418259)
Local magnetic moments:
   0 Ni ( 0.000000,  0.000000,  0.314570)
   1 Fe ( 0.000000,  0.000000,  2.692387)
   2 Co ( 0.000000,  0.000000,  1.299802)
   3 Fe ( 0.000000,  0.000000,  2.671538)
   4 Co ( 0.000000,  0.000000,  1.168500)
   5 Co ( 0.000000,  0.000000,  1.064078)
   6 Ni ( 0.000000,  0.000000,  0.173983)
   7 Fe ( 0.000000,  0.000000,  2.445332)
   8 Fe ( 0.000000,  0.000000,  2.599542)
   9 Cr ( 0.000000,  0.000000, -2.250918)
  10 Ni ( 0.000000,  0.000000,  0.174344)
  11 Al ( 0.000000,  0.000000, -0.028872)
  12 Ni ( 0.000000,  0.000000,  0.548662)
  13 Co ( 0.000000,  0.000000,  1.428566)
  14 Cr ( 0.000000,  0.000000,  1.796396)
  15 Cr ( 0.000000,  0.000000, -3.180554)
  16 Fe ( 0.000000,  0.000000,  2.499808)
  17 Fe ( 0.000000,  0.000000,  2.421885)
  18 Cr ( 0.000000,  0.000000, -2.013019)
  19 Fe ( 0.000000,  0.000000,  2.357449)
  20 Co ( 0.000000,  0.000000,  1.480388)
  21 Co ( 0.000000,  0.000000,  1.490095)
  22 Co ( 0.000000,  0.000000,  1.507719)
  23 Ni ( 0.000000,  0.000000,  0.551771)
  24 Ni ( 0.000000,  0.000000,  0.414563)
  25 Al ( 0.000000,  0.000000, -0.045129)
  26 Co ( 0.000000,  0.000000,  1.384376)
  27 Ni ( 0.000000,  0.000000,  0.447160)
  28 Ni ( 0.000000,  0.000000,  0.410003)
  29 Co ( 0.000000,  0.000000,  1.314452)
  30 Fe ( 0.000000,  0.000000,  2.063646)
  31 Cr ( 0.000000,  0.000000, -1.204914)
  32 Cr ( 0.000000,  0.000000, -1.386543)
  33 Ni ( 0.000000,  0.000000,  0.286122)
  34 Cr ( 0.000000,  0.000000,  0.465764)
  35 Ni ( 0.000000,  0.000000,  0.101202)
  36 Cr ( 0.000000,  0.000000, -0.839437)
  37 Fe ( 0.000000,  0.000000,  2.033436)
  38 Fe ( 0.000000,  0.000000,  1.954434)
  39 Cr ( 0.000000,  0.000000, -0.506763)
  40 Co ( 0.000000,  0.000000,  0.492423)
  41 Co ( 0.000000,  0.000000,  0.955887)
  42 Co ( 0.000000,  0.000000,  1.099026)
  43 Ni ( 0.000000,  0.000000,  0.066732)
  44 Cr ( 0.000000,  0.000000, -1.020920)
  45 Al ( 0.000000,  0.000000, -0.036167)
  46 Fe ( 0.000000,  0.000000,  1.962225)
  47 Cr ( 0.000000,  0.000000, -0.485675)
  48 Co ( 0.000000,  0.000000,  0.860847)
  49 Cr ( 0.000000,  0.000000, -1.975396)
  50 Co ( 0.000000,  0.000000,  1.125122)
  51 Ni ( 0.000000,  0.000000,  0.247512)
  52 Co ( 0.000000,  0.000000,  0.860367)
  53 Fe ( 0.000000,  0.000000,  2.075632)
  54 Co ( 0.000000,  0.000000,  1.240468)
  55 Ni ( 0.000000,  0.000000,  0.351382)
  56 Fe ( 0.000000,  0.000000,  1.691232)
  57 Cr ( 0.000000,  0.000000, -1.494909)
  58 Fe ( 0.000000,  0.000000,  2.205502)
  59 Cr ( 0.000000,  0.000000, -1.695108)
  60 Fe ( 0.000000,  0.000000,  2.309486)
  61 Ni ( 0.000000,  0.000000,  0.184755)
  62 Ni ( 0.000000,  0.000000,  0.273600)
  63 Ni ( 0.000000,  0.000000,  0.331924)
  64 Fe ( 0.000000,  0.000000,  2.109556)
  65 Ni ( 0.000000,  0.000000,  0.265003)
  66 Cr ( 0.000000,  0.000000, -0.819427)
  67 Co ( 0.000000,  0.000000,  0.600916)
  68 Al ( 0.000000,  0.000000, -0.024853)
  69 Co ( 0.000000,  0.000000,  0.853305)
  70 Co ( 0.000000,  0.000000,  0.882265)
  71 Cr ( 0.000000,  0.000000, -0.568006)
  72 Ni ( 0.000000,  0.000000,  0.187495)
  73 Fe ( 0.000000,  0.000000,  2.268093)
  74 Ni ( 0.000000,  0.000000,  0.400571)
  75 Ni ( 0.000000,  0.000000,  0.377980)
  76 Ni ( 0.000000,  0.000000,  0.442027)
  77 Fe ( 0.000000,  0.000000,  1.950073)
  78 Ni ( 0.000000,  0.000000,  0.178368)
  79 Fe ( 0.000000,  0.000000,  2.431724)
  80 Co ( 0.000000,  0.000000,  1.378559)
  81 Fe ( 0.000000,  0.000000,  2.073659)
  82 Cr ( 0.000000,  0.000000, -0.135164)
  83 Co ( 0.000000,  0.000000,  1.140377)
  84 Fe ( 0.000000,  0.000000,  2.502019)
  85 Cr ( 0.000000,  0.000000, -1.574050)
  86 Ni ( 0.000000,  0.000000,  0.248765)
  87 Fe ( 0.000000,  0.000000,  1.874867)
  88 Fe ( 0.000000,  0.000000,  2.328712)
  89 Ni ( 0.000000,  0.000000,  0.262744)
  90 Fe ( 0.000000,  0.000000,  2.209933)
  91 Cr ( 0.000000,  0.000000,  0.482614)
  92 Cr ( 0.000000,  0.000000,  0.292711)
  93 Cr ( 0.000000,  0.000000, -0.877094)
  94 Ni ( 0.000000,  0.000000,  0.256093)
  95 Fe ( 0.000000,  0.000000,  2.148806)
  96 Cr ( 0.000000,  0.000000, -0.396694)
  97 Cr ( 0.000000,  0.000000, -0.324127)
  98 Al ( 0.000000,  0.000000, -0.021211)
  99 Fe ( 0.000000,  0.000000,  2.224543)
 100 Co ( 0.000000,  0.000000,  1.560953)
 101 Fe ( 0.000000,  0.000000,  2.179017)
 102 Ni ( 0.000000,  0.000000,  0.037050)
 103 Cr ( 0.000000,  0.000000, -2.351791)
 104 Ni ( 0.000000,  0.000000,  0.385116)
 105 Co ( 0.000000,  0.000000,  1.665993)
 106 Co ( 0.000000,  0.000000,  1.313756)
 107 Cr ( 0.000000,  0.000000, -1.877070)
 108 Fe ( 0.000000,  0.000000,  2.683798)
 109 Ni ( 0.000000,  0.000000,  0.585703)
 110 Co ( 0.000000,  0.000000,  1.223784)
 111 Cr ( 0.000000,  0.000000, -0.441563)
 112 Co ( 0.000000,  0.000000,  0.928320)
 113 Fe ( 0.000000,  0.000000,  2.500037)
 114 Al ( 0.000000,  0.000000, -0.057094)
 115 Fe ( 0.000000,  0.000000,  2.067608)
 116 Cr ( 0.000000,  0.000000, -1.728904)
 117 Ni ( 0.000000,  0.000000,  0.346125)
 118 Co ( 0.000000,  0.000000,  1.147244)
 119 Cr ( 0.000000,  0.000000,  1.332665)
 120 Cr ( 0.000000,  0.000000, -1.879274)
 121 Ni ( 0.000000,  0.000000,  0.051508)
 122 Co ( 0.000000,  0.000000, -0.757471)
 123 Cr ( 0.000000,  0.000000,  2.365289)
 124 Co ( 0.000000,  0.000000,  1.196974)

Energy contributions relative to reference atoms: (reference = -4275894.041763)

Kinetic:       +327.672304
Potential:     -353.665917
External:        +0.000000
XC:            -976.471359
Entropy (-ST):   -5.459771
Local:          +42.492532
--------------------------
Free energy:   -965.432211
Extrapolated:  -962.702325

Dipole-layer corrected work functions: 4.881139, 4.904751 eV

Spin contamination: 38.973151 electrons
Showing all kpts
                      Up                     Down
 Kpt  Band  Eigenvalues  Occupancy  Eigenvalues  Occupancy
  0   587     -0.03959    0.99691      0.90442    0.02500
  0   588     -0.02954    0.99658      0.90898    0.02391
  0   589     -0.02252    0.99634      0.92212    0.02103
  0   590     -0.00866    0.99579      0.92946    0.01957

  1   587     -0.03828    0.99687      0.90648    0.02450
  1   588     -0.02907    0.99657      0.91565    0.02240
  1   589     -0.01839    0.99618      0.92124    0.02121
  1   590     -0.00648    0.99570      0.93453    0.01862


Fermi level: 0.53805

No gap

Forces in eV/Ang:
  0 Ni    0.05024   -0.43809    0.57025
  1 Fe    0.13661    0.19075   -0.04723
  2 Co    0.66734    0.37976    0.16332
  3 Fe   -0.15415   -0.48970    0.36178
  4 Co   -0.01429   -0.18324   -0.30763
  5 Co    0.16478    0.18432    0.12786
  6 Ni   -0.19817   -0.19652   -0.14115
  7 Fe   -0.87421    0.01622   -0.00614
  8 Fe    0.53726    0.45081    0.22474
  9 Cr   -0.89798    0.80188   -0.35189
 10 Ni    0.10409   -0.23783    1.02692
 11 Al    0.71897   -1.09327   -0.29390
 12 Ni   -0.13182   -0.53796    0.06524
 13 Co   -0.03222    0.26501   -0.07521
 14 Cr   -0.32492    0.25230   -0.06315
 15 Cr   -0.44151    1.26723    0.43131
 16 Fe    0.12366   -0.05964    0.11921
 17 Fe    0.48365    0.08560   -0.19704
 18 Cr    0.09497    0.62643   -1.20698
 19 Fe    0.03212    0.49771   -0.00146
 20 Co    0.78993   -0.60347    0.32922
 21 Co    0.16871   -0.81192   -0.05269
 22 Co   -1.14143   -0.10871    0.43578
 23 Ni    0.63530   -0.08198   -0.11070
 24 Ni   -0.29206   -0.61989    0.43213
 25 Al   -0.41206    0.16682    0.08762
 26 Co    0.87237   -0.45246   -0.33593
 27 Ni   -0.20432    0.32995    0.63442
 28 Ni   -0.14822   -0.38212   -0.25351
 29 Co    0.11067   -0.04879    0.10928
 30 Fe   -0.49056    0.65364   -0.03764
 31 Cr    0.69518   -1.23411    0.44298
 32 Cr   -0.60839   -0.25530   -0.57069
 33 Ni    0.11834   -1.37279   -0.61605
 34 Cr   -0.23219    0.87673    0.30687
 35 Ni    0.17673   -0.23241    0.19564
 36 Cr   -0.79948   -0.55893   -1.06147
 37 Fe   -0.59452    0.80947   -0.13819
 38 Fe    0.34349    1.06199   -0.87344
 39 Cr    0.00426    0.23970    0.42527
 40 Co   -0.63914    0.36528    0.41668
 41 Co    0.68901   -0.55616   -1.24057
 42 Co    0.19601   -0.12717    0.02346
 43 Ni   -0.18796   -1.32276    0.44369
 44 Cr    0.43973    0.24543   -0.54775
 45 Al   -0.81613    0.04440    0.07077
 46 Fe    0.64648   -0.31135    0.12507
 47 Cr   -0.09974    0.01253    0.39895
 48 Co    1.28440    0.22089    0.23838
 49 Cr   -1.37703    0.98740   -0.75442
 50 Co    0.93979    0.42537    0.27839
 51 Ni   -0.38998   -0.02430    0.10366
 52 Co    1.11921   -0.53349    0.56728
 53 Fe    1.03356   -0.50596   -0.85020
 54 Co   -0.15517   -0.33419   -0.33975
 55 Ni    0.53924    0.60202   -0.36924
 56 Fe   -0.26104    1.37527    0.32265
 57 Cr   -0.45495    0.33127   -0.38176
 58 Fe    0.65889    0.14212    0.12770
 59 Cr   -0.65923    0.39579    0.22260
 60 Fe   -1.11821   -0.56428    0.28102
 61 Ni    1.62642   -0.63155    0.64872
 62 Ni    0.33854   -0.41365    1.01679
 63 Ni    0.30619   -0.70014    0.88924
 64 Fe    0.82225   -0.21586   -0.41605
 65 Ni   -1.74104    1.23905   -0.19129
 66 Cr   -0.21264    0.41876   -0.07121
 67 Co   -0.74634   -0.15534   -1.20052
 68 Al   -0.03321    0.85044    0.08379
 69 Co    0.07735   -0.62235    0.72975
 70 Co    0.43160    0.36206    0.52264
 71 Cr    0.03507   -0.30111   -0.33305
 72 Ni   -0.76135    0.07955   -0.12623
 73 Fe    0.38920   -0.56291   -0.85651
 74 Ni    0.37623   -0.05855   -0.23711
 75 Ni    0.14470    0.39819    1.12777
 76 Ni   -0.36043    0.21772   -1.44704
 77 Fe   -0.31145    0.64974    0.32658
 78 Ni    0.62713    1.38091   -0.06133
 79 Fe    0.12444   -0.04320    0.90311
 80 Co   -0.42411   -0.66554   -0.22621
 81 Fe   -0.26008   -0.93941   -0.25182
 82 Cr    0.00550   -0.25607    0.94857
 83 Co    0.48292    0.58755    0.76854
 84 Fe   -0.72057    0.32569   -0.08873
 85 Cr    0.56706    0.09360    0.16920
 86 Ni   -0.21444    0.88166    0.78005
 87 Fe    0.74503   -1.36877    0.06713
 88 Fe   -1.17682   -0.07037   -1.01647
 89 Ni    0.08329    0.57797   -0.22090
 90 Fe   -0.20943   -0.57001   -0.73682
 91 Cr   -0.62440   -0.25778   -1.35839
 92 Cr    0.40754    0.35864    0.93711
 93 Cr    0.55851   -0.47410    0.33773
 94 Ni   -0.35674   -0.06361    0.15464
 95 Fe    0.33155    0.75241   -0.25126
 96 Cr   -0.22709    0.91821   -1.60496
 97 Cr   -1.11193   -0.98418    0.12048
 98 Al    1.47088    0.19948   -0.08136
 99 Fe   -0.10042    0.32686    0.83186
100 Co    0.07172    0.50044   -0.86916
101 Fe   -0.68692   -0.18482    0.49128
102 Ni   -0.43301    0.50706   -0.22181
103 Cr    1.71871   -0.67735    0.36982
104 Ni   -0.89113    1.74183   -0.12256
105 Co   -0.51440    0.12809    0.06699
106 Co    0.49585    0.40333   -0.12969
107 Cr    0.12075    0.79607   -0.17965
108 Fe   -0.78712   -0.24284   -0.49781
109 Ni    0.80303   -0.82584   -0.33360
110 Co   -0.81822   -0.24479    0.05967
111 Cr   -0.37966   -0.17833   -0.19289
112 Co   -0.22153   -1.30675   -0.64534
113 Fe    0.34117    0.01379    0.54785
114 Al    0.03602    0.23875    0.13035
115 Fe    0.44604   -1.60520   -0.42015
116 Cr    0.47154   -0.18464    0.14805
117 Ni    0.78291    0.82748   -0.14574
118 Co    0.19528    0.51620    0.49327
119 Cr   -0.63264   -0.67245    0.06393
120 Cr    0.70212    0.16464    0.27482
121 Ni    0.01198    0.20286    2.40232
122 Co   -0.59107   -1.56444   -0.59293
123 Cr   -0.74280   -0.23019    0.24267
124 Co   -0.28547    0.58891   -0.48857

Timing:                              incl.     excl.
-----------------------------------------------------------
Forces:                             39.357    39.357   0.2% |
Hamiltonian:                         1.331     0.011   0.0% |
 Atomic:                             0.398     0.001   0.0% |
  XC Correction:                     0.396     0.396   0.0% |
 Calculate atomic Hamiltonians:      0.434     0.434   0.0% |
 Communicate:                        0.090     0.090   0.0% |
 Initialize Hamiltonian:             0.000     0.000   0.0% |
 Poisson:                            0.085     0.085   0.0% |
 XC 3D grid:                         0.314     0.314   0.0% |
LCAO initialization:               268.099     0.538   0.0% |
 LCAO eigensolver:                  13.903     0.014   0.0% |
  Calculate projections:             0.000     0.000   0.0% |
  DenseAtomicCorrection:             0.000     0.000   0.0% |
  Distribute overlap matrix:         8.801     8.801   0.0% |
  Orbital Layouts:                   5.059     5.059   0.0% |
  Potential matrix:                  0.003     0.003   0.0% |
  Sum over cells:                    0.026     0.026   0.0% |
 LCAO to grid:                     251.521   251.521   1.1% |
 Set positions (LCAO WFS):           2.137     1.845   0.0% |
  Basic WFS set positions:           0.004     0.004   0.0% |
  Basis functions set positions:     0.001     0.001   0.0% |
  P tci:                             0.000     0.000   0.0% |
  ST tci:                            0.113     0.113   0.0% |
  mktci:                             0.175     0.175   0.0% |
PWDescriptor:                        0.098     0.098   0.0% |
SCF-cycle:                       21894.349     4.898   0.0% |
 Davidson:                       21294.415  6858.854  30.9% |-----------|
  Apply H:                         366.626   360.509   1.6% ||
   HMM T:                            6.117     6.117   0.0% |
  Subspace diag:                  2315.566     0.048   0.0% |
   calc_h_matrix:                  933.184   607.472   2.7% ||
    Apply H:                       325.712   319.790   1.4% ||
     HMM T:                          5.923     5.923   0.0% |
   diagonalize:                    211.940   211.940   1.0% |
   rotate_psi:                    1170.394  1170.394   5.3% |-|
  calc. matrices:                 5408.162  4814.394  21.7% |--------|
   Apply H:                        593.768   581.500   2.6% ||
    HMM T:                          12.267    12.267   0.1% |
  diagonalize:                    3864.196  3864.196  17.4% |------|
  rotate_psi:                     2481.011  2481.011  11.2% |---|
 Density:                          322.934     0.004   0.0% |
  Atomic density matrices:           3.678     3.678   0.0% |
  Mix:                             149.708   149.708   0.7% |
  Multipole moments:                 0.097     0.097   0.0% |
  Pseudo density:                  169.446   169.440   0.8% |
   Symmetrize density:               0.006     0.006   0.0% |
 Hamiltonian:                      253.887     1.532   0.0% |
  Atomic:                           58.205     0.226   0.0% |
   XC Correction:                   57.978    57.978   0.3% |
  Calculate atomic Hamiltonians:   128.527   128.527   0.6% |
  Communicate:                      14.715    14.715   0.1% |
  Poisson:                           5.330     5.330   0.0% |
  XC 3D grid:                       45.578    45.578   0.2% |
 Orthonormalize:                    18.215     0.000   0.0% |
  calc_s_matrix:                     2.261     2.261   0.0% |
  inverse-cholesky:                  0.892     0.892   0.0% |
  projections:                      11.108    11.108   0.1% |
  rotate_psi_s:                      3.954     3.954   0.0% |
Set symmetry:                        0.001     0.001   0.0% |
Other:                               6.928     6.928   0.0% |
-----------------------------------------------------------
Total:                                     22210.163 100.0%

Date: Mon Apr 17 10:49:46 2023
