
  ___ ___ ___ _ _ _  
 |   |   |_  | | | | 
 | | | | | . | | | | 
 |__ |  _|___|_____|  22.8.0
 |___|_|             

User:   c.zeng@d0107
Date:   Wed Apr 19 18:33:20 2023
Arch:   x86_64
Pid:    109176
CWD:    /home/c.zeng/projects/hea-corrosion/hea-mlp/data-curation/surface-mcmc/dft-jobs/221
Python: 3.8.1
gpaw:   /home/c.zeng/usr/installs/gpaw/source/gpaw-22.8.0/gpaw
_gpaw:  /home/c.zeng/usr/installs/gpaw/source/gpaw-22.8.0/
        _gpaw.cpython-38-x86_64-linux-gnu.so
ase:    /home/c.zeng/.local/lib/python3.8/site-packages/ase-3.22.1-py3.8.egg/ase (version 3.22.1)
numpy:  /home/c.zeng/.local/lib/python3.8/site-packages/numpy (version 1.24.2)
scipy:  /home/c.zeng/.local/lib/python3.8/site-packages/scipy (version 1.10.1)
libxc:  4.2.3
units:  Angstrom and eV
cores: 30
OpenMP: False
OMP_NUM_THREADS: 1

Input parameters:
  convergence: {energy: 0.0001}
  kpts: [2 2 1]
  maxiter: 666
  mode: {ecut: 350.0,
         name: pw}
  occupations: {fixmagmom: False,
                name: fermi-dirac,
                width: 0.1}
  poissonsolver: {dipolelayer: xy}
  spinpol: True
  symmetry: {point_group: False}
  xc: PBE

System changes: positions, numbers, cell, pbc, initial_charges, initial_magmoms 

Initialize ...

species:
  Co:
    name: Cobalt
    id: 339d20d5b0b93d2de9531a1bee871d91
    Z: 27.0
    valence: 9
    core: 18
    charge: 0.0
    file: /home/c.zeng/usr/data/gpaw-setups-0.9.20000/Co.PBE.gz
    compensation charges: {type: gauss,
                           rc: 0.32,
                           lmax: 2}
    cutoffs: {filter: 1.87,
              core: 2.55}
    valence states:
      #              energy  rcut
      - 4s(2.00)    -5.469   1.005
      - 4p(0.00)    -1.277   1.058
      - 3d(7.00)    -8.205   1.005
      -  s          21.742   1.005
      -  p          25.934   1.058
      -  d          19.007   1.005
  
    # Using partial waves for Co as LCAO basis

  Ni:
    name: Nickel
    id: 0d9f38a9d6e76a2886f07bb4381f212b
    Z: 28.0
    valence: 16
    core: 12
    charge: 0.0
    file: /home/c.zeng/usr/data/gpaw-setups-0.9.20000/Ni.PBE.gz
    compensation charges: {type: gauss,
                           rc: 0.36,
                           lmax: 2}
    cutoffs: {filter: 2.14,
              core: 1.98}
    valence states:
      #              energy  rcut
      - 4s(2.00)    -5.642   1.164
      - 3p(6.00)   -71.394   1.207
      - 4p(0.00)    -1.226   1.207
      - 3d(8.00)    -8.875   1.138
      -  s          21.570   1.164
      -  d          18.337   1.138
  
    # Using partial waves for Ni as LCAO basis

  Cr:
    name: Chromium
    id: 33f258bda2ca9f93018e70263a35547b
    Z: 24.0
    valence: 6
    core: 18
    charge: 0.0
    file: /home/c.zeng/usr/data/gpaw-setups-0.9.20000/Cr.PBE.gz
    compensation charges: {type: gauss,
                           rc: 0.35,
                           lmax: 2}
    cutoffs: {filter: 2.14,
              core: 3.04}
    valence states:
      #              energy  rcut
      - 4s(1.00)    -4.007   1.164
      - 4p(0.00)    -0.989   1.217
      - 3d(5.00)    -2.913   1.111
      -  s          23.205   1.164
      -  p          26.223   1.217
      -  d          24.299   1.111
  
    # Using partial waves for Cr as LCAO basis

  Al:
    name: Aluminium
    id: 0292cae29f5d6237e50f6abdd43a7bdd
    Z: 13.0
    valence: 3
    core: 10
    charge: 0.0
    file: /home/c.zeng/usr/data/gpaw-setups-0.9.20000/Al.PBE.gz
    compensation charges: {type: gauss,
                           rc: 0.34,
                           lmax: 2}
    cutoffs: {filter: 1.91,
              core: 2.36}
    valence states:
      #              energy  rcut
      - 3s(2.00)    -7.753   1.085
      - 3p(1.00)    -2.712   1.085
      -  s          19.459   1.085
      -  p          24.499   1.085
      -  d           0.000   1.085
  
    # Using partial waves for Al as LCAO basis

  Fe:
    name: Iron
    id: 37abbd8d6c3c35915a9b583b742da910
    Z: 26.0
    valence: 8
    core: 18
    charge: 0.0
    file: /home/c.zeng/usr/data/gpaw-setups-0.9.20000/Fe.PBE.gz
    compensation charges: {type: gauss,
                           rc: 0.33,
                           lmax: 2}
    cutoffs: {filter: 2.06,
              core: 2.67}
    valence states:
      #              energy  rcut
      - 4s(2.00)    -5.291   1.164
      - 4p(0.00)    -1.326   1.058
      - 3d(6.00)    -7.505   1.058
      -  s          21.920   1.164
      -  p          25.885   1.058
      -  d          19.706   1.058
  
    # Using partial waves for Fe as LCAO basis

Reference energy: -3726899.091688  # eV

Spin-polarized calculation.
Magnetic moment: 140.000000

Convergence criteria:
 Maximum [total energy] change in last 3 cyles: 0.0001 eV / electron
 Maximum integral of absolute [dens]ity change: 0.0001 electrons / valence electron
 Maximum integral of absolute [eigenst]ate change: 4e-08 eV^2 / valence electron
 Maximum number of scf [iter]ations: 666
 (Square brackets indicate name in SCF output, whereas a 'c' in
 the SCF output indicates the quantity has converged.)

Symmetries present (total): 1

  ( 1  0  0)
  ( 0  1  0)
  ( 0  0  1)

4 k-points: 2 x 2 x 1 Monkhorst-Pack grid
2 k-points in the irreducible part of the Brillouin zone
       k-points in crystal coordinates                weights
   0:     0.25000000   -0.25000000    0.00000000          2/4
   1:     0.25000000    0.25000000    0.00000000          2/4

Wave functions: Plane wave expansion
  Cutoff energy: 350.000 eV
  Number of coefficients (min, max): 60935, 60955
  Pulay-stress correction: 0.000000 eV/Ang^3 (de/decut=0.000000)
  Using FFTW library
  ScaLapack parameters: grid=1x1, blocksize=None
  Wavefunction extrapolation:
    Improved wavefunction reuse through dual PAW basis 

Occupation numbers: Fermi-Dirac:
  width: 0.1000  # eV
 

Eigensolver
   Davidson(niter=2) 

Densities:
  Coarse grid: 56*56*128 grid
  Fine grid: 112*112*256 grid
  Total Charge: 0.000000 

Density mixing:
  Method: difference
  Backend: pulay
  Linear mixing parameter: 0.05
  old densities: 5
  Damping of long wavelength oscillations: 50 

Hamiltonian:
  XC and Coulomb potentials evaluated on a 112*112*256 grid
  Using the PBE Exchange-Correlation functional
  External potential:
    NoExternalPotential
 

XC parameters: PBE with 2 nearest neighbor stencil

Memory estimate:
  Process memory now: 368.07 MiB
  Calculator: 2131.41 MiB
    Density: 19.02 MiB
      Arrays: 7.39 MiB
      Localized functions: 8.68 MiB
      Mixer: 2.95 MiB
    Hamiltonian: 5.75 MiB
      Arrays: 5.49 MiB
      XC: 0.00 MiB
      Poisson: 0.00 MiB
      vbar: 0.26 MiB
    Wavefunctions: 2106.64 MiB
      Arrays psit_nG: 1335.62 MiB
      Eigensolver: 751.15 MiB
      Projections: 3.10 MiB
      Projectors: 1.18 MiB
      PW-descriptor: 15.59 MiB

Total number of cores used: 30
Parallelization over k-points: 2
Domain decomposition: 1 x 3 x 5

Number of atoms: 125
Number of atomic orbitals: 1075
Number of bands in calculation: 718
Number of valence electrons: 1050
Bands to converge: occupied

... initialized

Initializing position-dependent things.

Density initialized from atomic densities
Creating initial wave functions:
  718 bands from LCAO basis set

                                                                  
                                                                  
                                                                  
                                                                  
                          Fe    Al           Cr    Fe             
                                  Cr                              
                      Cr    Ni          Cr    Cr                  
                       Al    NAl   CFe   AAl    Fe    Al          
                   Al   NCr   CrAl   CNi   NFe   Ni               
        Al                 Fe    Co                               
               Ni   CCo  NNi   CCr    NCr   FAl   Cr              
                Fe   AAl   CCr   CFe     Cr   Ni                  
           Ni    Co     Al    AlCo  Ni  Cr               Co       
                 Ni   CFe   FAl   ACo   CFe    Co                 
            Co   CFe    Fe    CCo   NAl                           
        Ni    Al    Ni    Cr Fe Co Al    CCr    Co    Al          
             Al    Ni   FNi    Cr    FFe   Fe    Fe               
               Fe   AAl   CNi   FFe    Ni    Co                   
                 Fe          Ni        Cr                         
                Cr    CAl   Co    Al    Co                        
           Ni    Cr     Cr    Ni    Co                            
                                                                  
                                                                  
                                                                  
                                                                  
                                                                  

Positions:
   0 Co    12.697578    1.490688   10.582791    ( 0.0000,  0.0000,  2.1000)
   1 Ni     2.542164    1.500437   10.627261    ( 0.0000,  0.0000,  2.0000)
   2 Cr     5.051596    1.499469   10.598054    ( 0.0000,  0.0000,  2.1000)
   3 Cr     7.634905    1.492702   10.546246    ( 0.0000,  0.0000,  2.0000)
   4 Ni    10.187798    1.493538   10.639090    ( 0.0000,  0.0000,  2.1000)
   5 Co    13.968644    3.696637   10.562654    ( 0.0000,  0.0000,  2.0000)
   6 Cr     3.815030    3.662669   10.568965    ( 0.0000,  0.0000,  2.1000)
   7 Cr     6.371550    3.676864   10.379256    ( 0.0000,  0.0000,  0.0000)
   8 Co     8.929883    3.680660   10.627114    ( 0.0000,  0.0000,  2.1000)
   9 Al    11.419281    3.649344   10.658345    ( 0.0000,  0.0000,  2.1000)
  10 Co    15.274513    5.897370   10.548477    ( 0.0000,  0.0000,  2.0000)
  11 Al     5.059810    5.865944   10.632192    ( 0.0000,  0.0000,  2.0000)
  12 Co     7.645770    5.857944   10.631253    ( 0.0000,  0.0000,  2.1000)
  13 Fe    10.112359    5.849582   10.633748    ( 0.0000,  0.0000,  2.1000)
  14 Cr    12.664006    5.872612   10.350226    ( 0.0000,  0.0000,  0.0000)
  15 Fe    16.518089    8.029617   10.573985    ( 0.0000,  0.0000,  2.0000)
  16 Fe     6.372474    8.042931   10.433618    ( 0.0000,  0.0000,  0.0000)
  17 Co     8.899359    8.058149   10.655528    ( 0.0000,  0.0000,  2.1000)
  18 Fe    11.347730    8.053396   10.581235    ( 0.0000,  0.0000,  0.0000)
  19 Fe    13.974474    8.072476   10.508234    ( 0.0000,  0.0000,  1.5000)
  20 Al    17.786763   10.267487   10.540522    ( 0.0000,  0.0000,  1.5000)
  21 Fe     7.620185   10.288537   10.551618    ( 0.0000,  0.0000,  1.5000)
  22 Al    10.097013   10.262150   10.527196    ( 0.0000,  0.0000,  0.0000)
  23 Co    12.628341   10.288140   10.200907    ( 0.0000,  0.0000,  0.0000)
  24 Co    15.305799   10.302687   10.215701    ( 0.0000,  0.0000,  0.0000)
  25 Co    18.929799   10.964438   12.614348    ( 0.0000,  0.0000,  0.0000)
  26 Co     8.907314   10.932825   12.633339    ( 0.0000,  0.0000,  0.0000)
  27 Fe     5.161938    0.027744   12.591364    ( 0.0000,  0.0000,  0.0000)
  28 Al     7.639849   -0.017272   12.455019    ( 0.0000,  0.0000,  2.0000)
  29 Ni    10.112151   -0.034156   12.574340    ( 0.0000,  0.0000,  0.0000)
  30 Ni    13.898459    2.274577   12.629494    ( 0.0000,  0.0000,  0.0000)
  31 Fe     3.834283    2.207500   12.641705    ( 0.0000,  0.0000,  1.5000)
  32 Al     6.373751    2.258204   12.578625    ( 0.0000,  0.0000,  1.5000)
  33 Ni     8.903971    2.228935   12.670354    ( 0.0000,  0.0000,  0.0000)
  34 Fe    11.398903    2.240324   12.667418    ( 0.0000,  0.0000,  2.1000)
  35 Al     2.693918    4.433332   12.569320    ( 0.0000,  0.0000,  0.0000)
  36 Ni     5.180997    4.392564   12.579271    ( 0.0000,  0.0000,  2.0000)
  37 Ni     7.640404    4.433761   12.623682    ( 0.0000,  0.0000,  1.5000)
  38 Cr    10.149737    4.418753   12.659728    ( 0.0000,  0.0000,  2.1000)
  39 Fe    12.642941    4.469149   12.588547    ( 0.0000,  0.0000,  0.0000)
  40 Co     3.879740    6.581821   12.636392    ( 0.0000,  0.0000,  2.0000)
  41 Ni     6.395207    6.593022   12.619455    ( 0.0000,  0.0000,  0.0000)
  42 Cr     8.882544    6.578464   12.632987    ( 0.0000,  0.0000,  2.0000)
  43 Ni    11.378039    6.588192   12.568968    ( 0.0000,  0.0000,  1.5000)
  44 Cr    13.955999    6.597324   12.503922    ( 0.0000,  0.0000,  0.0000)
  45 Co     5.115939    8.711196   12.577128    ( 0.0000,  0.0000,  2.0000)
  46 Fe     7.617963    8.744371   12.628555    ( 0.0000,  0.0000,  1.5000)
  47 Al    10.162962    8.726392   12.644406    ( 0.0000,  0.0000,  1.5000)
  48 Cr    12.676321    8.832597   12.504509    ( 0.0000,  0.0000,  1.5000)
  49 Co    15.240247    8.741951   12.606188    ( 0.0000,  0.0000,  0.0000)
  50 Ni     1.269616    0.713733   14.695512    ( 0.0000,  0.0000,  2.1000)
  51 Al     3.799097    0.728240   14.717292    ( 0.0000,  0.0000,  0.0000)
  52 Ni     6.399959    0.810401   14.610329    ( 0.0000,  0.0000,  2.1000)
  53 Cr     8.880072    0.764388   14.691902    ( 0.0000,  0.0000,  1.5000)
  54 Co    11.370392    0.737436   14.704406    ( 0.0000,  0.0000,  1.5000)
  55 Co     2.596190    2.870472   14.732086    ( 0.0000,  0.0000,  0.0000)
  56 Fe     5.091424    2.954792   14.649428    ( 0.0000,  0.0000,  0.0000)
  57 Fe     7.608212    2.991224   14.707811    ( 0.0000,  0.0000,  2.1000)
  58 Co    10.154418    2.949686   14.778640    ( 0.0000,  0.0000,  2.1000)
  59 Al    12.643335    2.944834   14.730413    ( 0.0000,  0.0000,  0.0000)
  60 Ni     3.883223    5.134376   14.743182    ( 0.0000,  0.0000,  0.0000)
  61 Fe     6.365651    5.154303   14.674026    ( 0.0000,  0.0000,  2.1000)
  62 Al     8.874207    5.127400   14.687176    ( 0.0000,  0.0000,  2.1000)
  63 Co    11.381160    5.128401   14.701764    ( 0.0000,  0.0000,  1.5000)
  64 Fe    13.994437    5.150045   14.709073    ( 0.0000,  0.0000,  0.0000)
  65 Al     5.105303    7.314819   14.691491    ( 0.0000,  0.0000,  0.0000)
  66 Co     7.621049    7.313641   14.679104    ( 0.0000,  0.0000,  2.0000)
  67 Co    10.101824    7.296971   14.657206    ( 0.0000,  0.0000,  0.0000)
  68 Cr    12.701036    7.418890   14.544344    ( 0.0000,  0.0000,  0.0000)
  69 Ni    15.272539    7.347367   14.706285    ( 0.0000,  0.0000,  2.0000)
  70 Ni     6.372338    9.509071   14.708838    ( 0.0000,  0.0000,  0.0000)
  71 Co     8.874214    9.489484   14.713828    ( 0.0000,  0.0000,  1.5000)
  72 Ni    11.385336    9.581859   14.631493    ( 0.0000,  0.0000,  2.1000)
  73 Fe    13.954574    9.609885   14.606455    ( 0.0000,  0.0000,  2.1000)
  74 Cr    16.558825    9.502579   14.642677    ( 0.0000,  0.0000,  0.0000)
  75 Ni    12.678535    1.403816   16.741746    ( 0.0000,  0.0000,  0.0000)
  76 Ni     2.534863    1.419242   16.733997    ( 0.0000,  0.0000,  2.1000)
  77 Co     5.032024    1.508844   16.664371    ( 0.0000,  0.0000,  1.5000)
  78 Al     7.624501    1.526769   16.714506    ( 0.0000,  0.0000,  2.0000)
  79 Al    10.140089    1.502748   16.858366    ( 0.0000,  0.0000,  2.0000)
  80 Cr    14.024748    3.670735   16.858777    ( 0.0000,  0.0000,  0.0000)
  81 Cr     3.842392    3.667775   16.756276    ( 0.0000,  0.0000,  0.0000)
  82 Al     6.334927    3.681056   16.705378    ( 0.0000,  0.0000,  0.0000)
  83 Cr     8.882482    3.670933   16.761471    ( 0.0000,  0.0000,  2.1000)
  84 Fe    11.419526    3.695856   16.803945    ( 0.0000,  0.0000,  2.0000)
  85 Al    15.257368    5.911564   16.801303    ( 0.0000,  0.0000,  1.5000)
  86 Cr     5.087177    5.870422   16.771246    ( 0.0000,  0.0000,  0.0000)
  87 Ni     7.609371    5.857537   16.712716    ( 0.0000,  0.0000,  2.0000)
  88 Cr    10.109019    5.830149   16.764730    ( 0.0000,  0.0000,  1.5000)
  89 Cr    12.675452    5.872392   16.756129    ( 0.0000,  0.0000,  2.1000)
  90 Ni    16.524277    8.015940   16.738312    ( 0.0000,  0.0000,  2.1000)
  91 Ni     6.365933    8.035031   16.712716    ( 0.0000,  0.0000,  2.1000)
  92 Cr     8.835843    8.056003   16.741658    ( 0.0000,  0.0000,  2.0000)
  93 Co    11.351160    8.059051   16.752372    ( 0.0000,  0.0000,  0.0000)
  94 Ni    13.956058    8.042161   16.704057    ( 0.0000,  0.0000,  1.5000)
  95 Al    17.805404   10.218279   16.745210    ( 0.0000,  0.0000,  0.0000)
  96 Ni     7.627525   10.221888   16.720318    ( 0.0000,  0.0000,  2.1000)
  97 Co    10.100033   10.295513   16.718880    ( 0.0000,  0.0000,  1.5000)
  98 Al    12.667792   10.363481   16.695163    ( 0.0000,  0.0000,  0.0000)
  99 Fe    15.313358   10.247516   16.718322    ( 0.0000,  0.0000,  0.0000)
 100 Fe     6.385878   10.951211   18.797109    ( 0.0000,  0.0000,  0.0000)
 101 Al     8.871549   10.998570   18.734029    ( 0.0000,  0.0000,  0.0000)
 102 Fe     5.012222    0.026603   18.714245    ( 0.0000,  0.0000,  2.0000)
 103 Cr    13.906085   10.955272   18.815278    ( 0.0000,  0.0000,  0.0000)
 104 Fe    16.555065   10.890208   19.190793    ( 0.0000,  0.0000,  0.0000)
 105 Al     1.301962    2.175788   18.880296    ( 0.0000,  0.0000,  0.0000)
 106 Ni     3.763381    2.154408   18.701741    ( 0.0000,  0.0000,  2.0000)
 107 Co     6.282513    2.143955   18.673151    ( 0.0000,  0.0000,  1.5000)
 108 Fe     8.786510    2.178935   18.943933    ( 0.0000,  0.0000,  0.0000)
 109 Co    11.486117    2.202240   18.868055    ( 0.0000,  0.0000,  0.0000)
 110 Fe    15.251278    4.387183   18.855257    ( 0.0000,  0.0000,  1.5000)
 111 Al     5.107352    4.303073   18.990839    ( 0.0000,  0.0000,  0.0000)
 112 Cr     7.597350    4.408838   18.714597    ( 0.0000,  0.0000,  2.0000)
 113 Al    10.211555    4.416706   18.931135    ( 0.0000,  0.0000,  0.0000)
 114 Ni    12.733768    4.452313   18.836295    ( 0.0000,  0.0000,  1.5000)
 115 Fe    16.467351    6.659351   18.958316    ( 0.0000,  0.0000,  0.0000)
 116 Al     6.329237    6.609791   18.727483    ( 0.0000,  0.0000,  1.5000)
 117 Al     8.815790    6.680885   18.889219    ( 0.0000,  0.0000,  0.0000)
 118 Fe    11.427553    6.639820   18.779556    ( 0.0000,  0.0000,  2.0000)
 119 Al    13.906938    6.631006   18.740193    ( 0.0000,  0.0000,  0.0000)
 120 Cr     5.095653    8.774950   18.707200    ( 0.0000,  0.0000,  2.0000)
 121 Ni     7.571098    8.829550   18.729127    ( 0.0000,  0.0000,  1.5000)
 122 Cr    10.146396    8.866884   18.778117    ( 0.0000,  0.0000,  1.5000)
 123 Cr    12.685104    8.811284   18.742072    ( 0.0000,  0.0000,  2.0000)
 124 Cr    15.188299    8.776017   18.730565    ( 0.0000,  0.0000,  2.0000)

Unit cell:
           periodic     x           y           z      points  spacing
  1. axis:    yes   12.688900    0.000000    0.000000    56     0.1962
  2. axis:    yes    6.352870   11.003500    0.000000    56     0.1965
  3. axis:    no     0.000000    0.000000   29.353100   128     0.2293

  Lengths:  12.688900  12.705746  29.353100
  Angles:   90.000000  90.000000  60.000014

Effective grid spacing dv^(1/3) = 0.2169

     iter     time        total  log10-change:  magmom
                         energy  eigst   dens
iter:   1 18:41:13 -1041.851383                  +139.3097
iter:   2 18:44:02 -3292.824622  +1.22  -1.10    +98.0068
iter:   3 18:46:50 -1011.197779  +0.73  -0.55    +68.2986
iter:   4 18:49:39  -965.471140  +0.47  -1.09    +47.4572
iter:   5 18:52:28  -940.852743  -0.14  -1.18    +42.3601
iter:   6 18:55:16  -918.119448  -0.87  -1.23    +41.2519
iter:   7 18:58:05  -929.939745  -1.20  -1.29    +41.3581
iter:   8 19:00:53 -1187.572321  -0.73  -1.24    +42.0464
iter:   9 19:03:42  -924.572201  -0.96  -0.99    +39.0093
iter:  10 19:06:30  -908.486572  -1.63  -1.28    +38.7546
iter:  11 19:09:17  -900.559111  -1.36  -1.37    +40.6616
iter:  12 19:12:06  -922.558159  -1.62  -1.45    +41.2464
iter:  13 19:14:54  -903.584850  -1.58  -1.33    +43.5318
iter:  14 19:17:43  -899.872666  -1.64  -1.48    +42.7137
iter:  15 19:21:24  -896.144072  -1.74  -1.56    +40.5007
iter:  16 19:24:12  -892.936013  -2.12  -1.58    +41.7936
iter:  17 19:27:01  -908.295017  -1.93  -1.65    +43.8007
iter:  18 19:29:50  -892.335924  -2.19  -1.48    +42.9023
iter:  19 19:32:38  -903.526743  -1.88  -1.70    +42.1213
iter:  20 19:35:26  -890.367384  -2.26  -1.52    +43.9288
iter:  21 19:38:15  -893.555546  -2.40  -1.77    +46.6321
iter:  22 19:41:03  -890.785754  -2.50  -1.72    +46.2451
iter:  23 19:43:52  -890.154067  -2.80  -1.81    +45.6719
iter:  24 19:46:40  -890.768358  -2.88  -1.85    +47.1925
iter:  25 19:49:28  -905.244219  -2.19  -1.85    +47.5139
iter:  26 19:52:16  -893.746806  -2.21  -1.55    +49.2815
iter:  27 19:55:05  -892.186999  -2.78  -1.78    +49.4628
iter:  28 19:58:00  -894.079762  -2.57  -1.89    +49.6800
iter:  29 20:01:40  -897.529178  -2.47  -1.86    +50.0380
iter:  30 20:04:28  -893.560930  -2.46  -1.76    +49.1821
iter:  31 20:07:17  -892.578254  -2.49  -1.91    +48.8578
iter:  32 20:10:06  -896.222404  -2.42  -2.19    +50.3825
iter:  33 20:12:54  -895.366746  -2.60  -1.87    +50.8797
iter:  34 20:15:43  -893.103447  -2.92  -1.92    +51.4623
iter:  35 20:18:32  -893.204395  -3.13  -2.31    +51.8609
iter:  36 20:21:19  -893.440754  -3.28  -2.32    +53.8869
iter:  37 20:24:08  -893.456400  -3.47  -2.31    +54.9159
iter:  38 20:26:56  -893.799295  -3.31  -2.40    +56.5053
iter:  39 20:30:04  -894.174245  -3.42  -2.35    +56.7898
iter:  40 20:33:30  -894.014628  -3.36  -2.27    +56.8573
iter:  41 20:36:19  -893.883875  -3.52  -2.34    +57.4580
iter:  42 20:39:13  -893.943941  -3.62  -2.51    +58.0113
iter:  43 20:42:07  -893.929264c -4.01  -2.54    +57.8803
iter:  44 20:45:00  -894.052661  -3.61  -2.60    +58.2443
iter:  45 20:47:53  -894.140848  -3.78  -2.55    +58.4216
iter:  46 20:50:46  -894.083611c -3.85  -2.49    +59.2792
iter:  47 20:53:38  -894.190203  -4.01  -2.58    +59.3309
iter:  48 20:56:31  -894.196346  -3.96  -2.53    +59.0825
iter:  49 20:59:24  -894.397679  -3.59  -2.57    +59.1843
iter:  50 21:02:19  -894.303680  -3.52  -2.44    +59.3796
iter:  51 21:05:11  -894.769228  -3.39  -2.51    +59.5319
iter:  52 21:08:05  -894.214632  -3.73  -2.28    +60.0621
iter:  53 21:10:59  -894.555041  -3.54  -2.60    +60.0472
iter:  54 21:13:48  -894.222941  -3.93  -2.38    +59.8117
iter:  55 21:16:39  -894.292136  -4.12  -2.63    +59.5918
iter:  56 21:19:27  -894.285180c -4.02  -2.59    +59.3876
iter:  57 21:22:19  -894.359557c -3.77  -2.62    +59.2552
iter:  58 21:25:07  -894.389044c -3.64  -2.58    +59.5166
iter:  59 21:27:56  -894.329953c -3.88  -2.54    +59.3635
iter:  60 21:30:44  -894.282759  -4.02  -2.64    +58.5935
iter:  61 21:33:36  -894.321298c -3.90  -2.77    +58.4363
iter:  62 21:36:24  -894.409851  -4.00  -2.69    +58.4972
iter:  63 21:39:15  -894.277093  -4.16  -2.57    +58.3360
iter:  64 21:42:07  -894.315008  -4.03  -2.89    +58.3192
iter:  65 21:45:00  -894.345769c -4.21  -2.81    +58.3670
iter:  66 21:48:09  -894.290677c -4.39  -2.76    +58.1269
iter:  67 21:51:08  -894.318491c -4.32  -3.04    +58.0376
iter:  68 21:54:05  -894.646260  -3.77  -2.92    +57.9786
iter:  69 21:57:02  -894.303911  -4.10  -2.40    +57.9730
iter:  70 21:59:58  -894.314891  -4.49  -3.10    +57.8843
iter:  71 22:02:54  -894.303851c -4.94  -3.04    +57.8580
iter:  72 22:05:50  -894.311218c -5.14  -3.17    +57.8689
iter:  73 22:08:48  -894.330711c -4.72  -3.19    +57.8162
iter:  74 22:11:40  -894.415980c -4.45  -3.07    +57.8361
iter:  75 22:14:29  -894.337302c -4.45  -2.66    +57.8069
iter:  76 22:17:17  -894.338350c -4.95  -3.06    +57.7387
iter:  77 22:20:06  -894.341180c -5.31  -3.08    +57.7033
iter:  78 22:22:54  -894.357204c -4.42  -3.08    +57.6840
iter:  79 22:25:43  -894.342947c -4.93  -2.98    +57.6402
iter:  80 22:28:38  -894.770098  -3.83  -3.09    +57.5912
iter:  81 22:31:27  -894.351873  -4.05  -2.36    +57.6150
iter:  82 22:34:19  -894.355007  -4.54  -3.03    +57.4982
iter:  83 22:37:08  -894.345745c -5.39  -3.04    +57.4500
iter:  84 22:39:57  -894.346921c -5.21  -3.13    +57.4107
iter:  85 22:42:45  -894.346614c -4.99  -3.17    +57.4416
iter:  86 22:45:35  -894.365918c -4.59  -3.17    +57.4410
iter:  87 22:48:23  -894.439763c -4.22  -2.99    +57.3701
iter:  88 22:51:20  -894.343403c -4.57  -2.67    +57.4403
iter:  89 22:54:10  -894.342218c -5.22  -3.37    +57.4327
iter:  90 22:57:04  -894.341334c -5.55  -3.50    +57.4727
iter:  91 23:00:01  -894.341539c -5.85  -3.51    +57.5232
iter:  92 23:02:58  -894.341403c -6.02  -3.60    +57.5472
iter:  93 23:05:53  -894.347703c -5.61  -3.62    +57.5798
iter:  94 23:08:49  -894.343055c -5.54  -3.31    +57.5528
iter:  95 23:11:41  -894.342291c -5.74  -3.47    +57.5666
iter:  96 23:14:31  -894.343208c -5.67  -3.63    +57.5889
iter:  97 23:17:29  -894.343036c -5.76  -3.65    +57.5935
iter:  98 23:20:19  -894.343260c -5.97  -3.65    +57.6194
iter:  99 23:23:16  -894.343204c -6.04  -3.69    +57.6157
iter: 100 23:26:13  -894.343243c -6.30  -3.56    +57.6261
iter: 101 23:29:10  -894.343215c -6.44  -3.77    +57.6213
iter: 102 23:32:07  -894.343296c -7.02  -3.81    +57.6329
iter: 103 23:35:04  -894.344002c -6.15  -3.83    +57.6628
iter: 104 23:38:01  -894.344259c -5.89  -3.78    +57.6562
iter: 105 23:40:54  -894.345630c -5.93  -3.83    +57.6673
iter: 106 23:43:48  -894.345333c -5.72  -3.68    +57.6402
iter: 107 23:46:46  -894.344042c -6.07  -3.45    +57.6566
iter: 108 23:49:42  -894.344138c -6.35  -4.10c   +57.6590
iter: 109 23:52:33  -894.344016c -7.08  -3.92    +57.6668
iter: 110 23:55:30  -894.344206c -6.88  -4.12c   +57.6873
iter: 111 23:58:27  -894.344442c -6.65  -4.13c   +57.7084
iter: 112 00:01:20  -894.346444c -5.93  -4.13c   +57.7399
iter: 113 00:04:08  -894.344589c -6.47  -3.68    +57.7101
iter: 114 00:07:04  -894.344607c -6.99  -4.22c   +57.7065
iter: 115 00:09:59  -894.344804c -6.97  -4.21c   +57.7140
iter: 116 00:12:54  -894.344782c -6.92  -4.18c   +57.7136
iter: 117 00:15:48  -894.344887c -6.55  -4.22c   +57.7080
iter: 118 00:18:44  -894.345003c -6.88  -3.94    +57.7196
iter: 119 00:21:41  -894.344838c -6.88  -4.43c   +57.7198
iter: 120 00:24:39  -894.345048c -7.20  -4.18c   +57.7203
iter: 121 00:27:28  -894.345005c -7.13  -4.45c   +57.7182
iter: 122 00:30:16  -894.344992c -7.37  -4.22c   +57.7222
iter: 123 00:33:06  -894.345393c -7.02  -4.50c   +57.7219
iter: 124 00:36:04  -894.345143c -7.49c -4.26c   +57.7198

Converged after 124 iterations.

Dipole moment: (64.140775, 51.988595, 0.048518) |e|*Ang

Total magnetic moment: (0.000000, 0.000000, 57.719850)
Local magnetic moments:
   0 Co ( 0.000000,  0.000000,  1.579905)
   1 Ni ( 0.000000,  0.000000,  0.445926)
   2 Cr ( 0.000000,  0.000000,  1.632592)
   3 Cr ( 0.000000,  0.000000,  2.410107)
   4 Ni ( 0.000000,  0.000000,  0.454909)
   5 Co ( 0.000000,  0.000000,  1.239599)
   6 Cr ( 0.000000,  0.000000,  1.944270)
   7 Cr ( 0.000000,  0.000000, -2.694615)
   8 Co ( 0.000000,  0.000000,  1.233865)
   9 Al ( 0.000000,  0.000000, -0.042705)
  10 Co ( 0.000000,  0.000000,  1.100920)
  11 Al ( 0.000000,  0.000000, -0.045839)
  12 Co ( 0.000000,  0.000000,  1.282658)
  13 Fe ( 0.000000,  0.000000,  2.332597)
  14 Cr ( 0.000000,  0.000000, -2.861357)
  15 Fe ( 0.000000,  0.000000,  2.526664)
  16 Fe ( 0.000000,  0.000000,  2.693609)
  17 Co ( 0.000000,  0.000000,  1.247797)
  18 Fe ( 0.000000,  0.000000,  2.338771)
  19 Fe ( 0.000000,  0.000000,  2.522466)
  20 Al ( 0.000000,  0.000000, -0.065980)
  21 Fe ( 0.000000,  0.000000,  2.636430)
  22 Al ( 0.000000,  0.000000, -0.058376)
  23 Co ( 0.000000,  0.000000,  1.449779)
  24 Co ( 0.000000,  0.000000,  1.586738)
  25 Co ( 0.000000,  0.000000,  1.633941)
  26 Co ( 0.000000,  0.000000,  1.410537)
  27 Fe ( 0.000000,  0.000000,  2.138533)
  28 Al ( 0.000000,  0.000000, -0.022417)
  29 Ni ( 0.000000,  0.000000,  0.243395)
  30 Ni ( 0.000000,  0.000000,  0.473688)
  31 Fe ( 0.000000,  0.000000,  1.832869)
  32 Al ( 0.000000,  0.000000, -0.017135)
  33 Ni ( 0.000000,  0.000000,  0.245409)
  34 Fe ( 0.000000,  0.000000,  2.416572)
  35 Al ( 0.000000,  0.000000, -0.041918)
  36 Ni ( 0.000000,  0.000000,  0.137436)
  37 Ni ( 0.000000,  0.000000,  0.306465)
  38 Cr ( 0.000000,  0.000000, -1.578790)
  39 Fe ( 0.000000,  0.000000,  2.026696)
  40 Co ( 0.000000,  0.000000,  1.248791)
  41 Ni ( 0.000000,  0.000000,  0.427287)
  42 Cr ( 0.000000,  0.000000,  1.059021)
  43 Ni ( 0.000000,  0.000000,  0.255133)
  44 Cr ( 0.000000,  0.000000,  1.175425)
  45 Co ( 0.000000,  0.000000,  1.340357)
  46 Fe ( 0.000000,  0.000000,  2.510144)
  47 Al ( 0.000000,  0.000000, -0.039179)
  48 Cr ( 0.000000,  0.000000, -1.414508)
  49 Co ( 0.000000,  0.000000,  1.211382)
  50 Ni ( 0.000000,  0.000000,  0.405306)
  51 Al ( 0.000000,  0.000000, -0.020929)
  52 Ni ( 0.000000,  0.000000,  0.050714)
  53 Cr ( 0.000000,  0.000000, -1.779357)
  54 Co ( 0.000000,  0.000000,  0.916901)
  55 Co ( 0.000000,  0.000000,  0.878882)
  56 Fe ( 0.000000,  0.000000, -1.869885)
  57 Fe ( 0.000000,  0.000000,  1.649384)
  58 Co ( 0.000000,  0.000000,  0.752644)
  59 Al ( 0.000000,  0.000000, -0.031978)
  60 Ni ( 0.000000,  0.000000,  0.116766)
  61 Fe ( 0.000000,  0.000000,  2.193727)
  62 Al ( 0.000000,  0.000000, -0.011492)
  63 Co ( 0.000000,  0.000000,  0.891509)
  64 Fe ( 0.000000,  0.000000,  2.268097)
  65 Al ( 0.000000,  0.000000, -0.019527)
  66 Co ( 0.000000,  0.000000,  1.070673)
  67 Co ( 0.000000,  0.000000,  0.913403)
  68 Cr ( 0.000000,  0.000000, -1.237564)
  69 Ni ( 0.000000,  0.000000,  0.103622)
  70 Ni ( 0.000000,  0.000000,  0.207051)
  71 Co ( 0.000000,  0.000000,  1.408500)
  72 Ni ( 0.000000,  0.000000,  0.238887)
  73 Fe ( 0.000000,  0.000000,  2.122387)
  74 Cr ( 0.000000,  0.000000, -1.890578)
  75 Ni ( 0.000000,  0.000000, -0.068565)
  76 Ni ( 0.000000,  0.000000,  0.075948)
  77 Co ( 0.000000,  0.000000, -0.846008)
  78 Al ( 0.000000,  0.000000,  0.015189)
  79 Al ( 0.000000,  0.000000,  0.011451)
  80 Cr ( 0.000000,  0.000000, -1.722348)
  81 Cr ( 0.000000,  0.000000,  1.471761)
  82 Al ( 0.000000,  0.000000, -0.012015)
  83 Cr ( 0.000000,  0.000000, -1.182149)
  84 Fe ( 0.000000,  0.000000,  1.685373)
  85 Al ( 0.000000,  0.000000, -0.005810)
  86 Cr ( 0.000000,  0.000000, -1.675544)
  87 Ni ( 0.000000,  0.000000,  0.150636)
  88 Cr ( 0.000000,  0.000000,  1.003318)
  89 Cr ( 0.000000,  0.000000,  0.920448)
  90 Ni ( 0.000000,  0.000000,  0.057726)
  91 Ni ( 0.000000,  0.000000,  0.127955)
  92 Cr ( 0.000000,  0.000000, -1.594532)
  93 Co ( 0.000000,  0.000000,  0.514072)
  94 Ni ( 0.000000,  0.000000,  0.178165)
  95 Al ( 0.000000,  0.000000,  0.004652)
  96 Ni ( 0.000000,  0.000000,  0.123404)
  97 Co ( 0.000000,  0.000000,  1.036344)
  98 Al ( 0.000000,  0.000000, -0.014254)
  99 Fe ( 0.000000,  0.000000,  1.218707)
 100 Fe ( 0.000000,  0.000000, -2.400527)
 101 Al ( 0.000000,  0.000000, -0.006651)
 102 Fe ( 0.000000,  0.000000,  2.039595)
 103 Cr ( 0.000000,  0.000000, -2.082223)
 104 Fe ( 0.000000,  0.000000, -2.676553)
 105 Al ( 0.000000,  0.000000,  0.018271)
 106 Ni ( 0.000000,  0.000000,  0.088176)
 107 Co ( 0.000000,  0.000000, -0.499725)
 108 Fe ( 0.000000,  0.000000, -2.299734)
 109 Co ( 0.000000,  0.000000, -1.217111)
 110 Fe ( 0.000000,  0.000000,  2.172961)
 111 Al ( 0.000000,  0.000000, -0.009686)
 112 Cr ( 0.000000,  0.000000,  2.163262)
 113 Al ( 0.000000,  0.000000, -0.005912)
 114 Ni ( 0.000000,  0.000000,  0.003166)
 115 Fe ( 0.000000,  0.000000, -2.022899)
 116 Al ( 0.000000,  0.000000, -0.004386)
 117 Al ( 0.000000,  0.000000, -0.014393)
 118 Fe ( 0.000000,  0.000000,  1.830397)
 119 Al ( 0.000000,  0.000000, -0.021237)
 120 Cr ( 0.000000,  0.000000,  2.481259)
 121 Ni ( 0.000000,  0.000000, -0.021066)
 122 Cr ( 0.000000,  0.000000,  1.755673)
 123 Cr ( 0.000000,  0.000000,  1.390796)
 124 Cr ( 0.000000,  0.000000,  1.726528)

Energy contributions relative to reference atoms: (reference = -3726899.091688)

Kinetic:       +421.862818
Potential:     -386.142339
External:        +0.000000
XC:            -962.835689
Entropy (-ST):   -5.026777
Local:          +35.283456
--------------------------
Free energy:   -896.858532
Extrapolated:  -894.345143

Dipole-layer corrected work functions: 4.857740, 4.794861 eV

Spin contamination: 41.834486 electrons
Showing all kpts
                      Up                     Down
 Kpt  Band  Eigenvalues  Occupancy  Eigenvalues  Occupancy
  0   523      0.02568    0.98507      0.75639    0.04237
  0   524      0.03219    0.98408      0.76098    0.04055
  0   525      0.04923    0.98118      0.77503    0.03542
  0   526      0.06285    0.97849      0.78130    0.03334

  1   523      0.00851    0.98739      0.74142    0.04888
  1   524      0.01591    0.98644      0.75787    0.04178
  1   525      0.02641    0.98496      0.76582    0.03871
  1   526      0.04109    0.98262      0.77681    0.03482


Fermi level: 0.44460

No gap

Forces in eV/Ang:
  0 Co    0.39648   -0.14325    0.55448
  1 Ni   -0.29275   -0.08473    0.30974
  2 Cr   -0.00672   -0.04341   -0.70153
  3 Cr    0.43015    0.15777   -1.32446
  4 Ni   -0.16763   -0.09978   -0.18227
  5 Co   -0.13270   -0.00151    0.60707
  6 Cr   -0.03910   -0.61195   -1.03700
  7 Cr    0.22455   -0.28788    0.12363
  8 Co    0.01517    0.23738    0.22702
  9 Al    0.05682   -0.66571   -1.95448
 10 Co   -0.43866   -0.08873    0.17208
 11 Al    0.45660    0.49190   -0.91602
 12 Co    0.17621    0.16076   -0.06730
 13 Fe   -0.28763   -0.29888   -0.55151
 14 Cr    0.34357    0.58769    0.45960
 15 Fe   -0.65657    0.44466    0.14678
 16 Fe    0.42572   -0.06360    0.47376
 17 Co   -0.18433    0.01906   -0.30866
 18 Fe    0.59283    0.22848   -0.46086
 19 Fe   -0.03336    0.56848   -0.10814
 20 Al   -0.32732    0.16126   -0.57171
 21 Fe   -0.17904    0.26627    0.45955
 22 Al    0.35468    0.34600   -1.07694
 23 Co    0.32628   -0.19582    1.22223
 24 Co   -0.50927   -0.42933    1.03198
 25 Co    0.98793    0.18643    0.51647
 26 Co   -0.40490    0.61378   -0.01202
 27 Fe   -0.50195   -0.42278   -0.26729
 28 Al    0.90575   -0.69603   -0.03212
 29 Ni    0.08282   -0.00334    0.36698
 30 Ni    0.42494   -0.48419   -0.08135
 31 Fe   -0.21850   -0.35891   -0.06645
 32 Al    0.16870    0.63437    0.69120
 33 Ni   -0.28707   -0.11364   -0.15925
 34 Fe   -0.15582   -0.98036    0.24091
 35 Al   -1.01666   -0.26145    1.19757
 36 Ni   -0.36330   -0.13047    0.41952
 37 Ni    0.06647   -0.15752   -0.33116
 38 Cr   -0.05106   -0.01299   -0.07331
 39 Fe    0.67283   -0.07335    0.34924
 40 Co   -0.65762    0.64376    0.08243
 41 Ni   -0.02697   -0.04705   -0.04429
 42 Cr   -0.54165   -0.68075   -0.20373
 43 Ni    0.65599    0.04259    0.45628
 44 Cr    0.17884    0.86391    0.35442
 45 Co   -0.05219    0.46619    0.10049
 46 Fe   -0.70786    0.68177    0.30272
 47 Al   -0.21009    0.65112    0.94755
 48 Cr    0.40899   -0.72529   -0.33930
 49 Co    0.14518    0.01251    0.00749
 50 Ni   -0.17393   -0.13144   -0.32094
 51 Al   -0.10130   -0.26227   -0.35976
 52 Ni   -0.31266   -0.24688    0.07630
 53 Cr    0.56539   -0.02835   -0.50537
 54 Co   -0.11878   -0.42377   -0.53888
 55 Co   -0.44946    0.69988   -0.28332
 56 Fe   -0.37872    0.28568    0.19137
 57 Fe    0.54448   -0.42474   -0.15016
 58 Co   -0.27476   -0.21074   -0.26019
 59 Al    0.53338   -0.20986   -0.10869
 60 Ni   -0.43082   -0.28224   -0.48022
 61 Fe   -0.41397    0.05733   -0.24525
 62 Al   -0.18663    0.23188    0.11947
 63 Co    0.41716    0.63309    0.08961
 64 Fe   -0.23310   -0.31288   -0.37889
 65 Al    0.30001    0.10510   -0.54968
 66 Co    0.43055    0.15396   -0.24692
 67 Co    0.61880    0.05550    0.45707
 68 Cr   -0.38905   -0.55611    0.48213
 69 Ni   -0.50722   -0.02762   -0.77048
 70 Ni   -0.04085    0.27587   -0.64759
 71 Co   -0.25985    0.01151   -0.21318
 72 Ni    0.28784   -0.44405    0.30160
 73 Fe    0.43877   -0.66661   -0.02751
 74 Cr   -1.00652    0.68116   -0.79424
 75 Ni    0.14417    0.53363    0.21730
 76 Ni   -0.36669    0.36707   -0.17580
 77 Co    0.01463    0.15920    0.49927
 78 Al   -0.58165   -0.57155    0.56284
 79 Al    1.20289   -0.41544    0.52862
 80 Cr    0.02699    0.24223   -0.44358
 81 Cr   -0.58099   -0.34822   -0.40502
 82 Al   -0.25330   -0.01476   -0.15611
 83 Cr    0.43302    0.76762    0.62494
 84 Fe    0.35707    0.03617    0.13894
 85 Al    0.45533    0.33635   -1.05299
 86 Cr   -0.30953   -0.67112    0.11950
 87 Ni   -0.04118    0.48727   -0.00553
 88 Cr    0.83977    0.53367   -0.04716
 89 Cr   -1.13041    0.03600   -0.88450
 90 Ni   -0.13276    0.45342    0.13728
 91 Ni   -0.03273    0.05424    0.00540
 92 Cr    0.53367    0.38940   -0.75600
 93 Co    0.39950   -0.03649   -0.22837
 94 Ni   -0.14948    0.59219   -0.35108
 95 Al    0.39870    0.30838   -0.54555
 96 Ni   -0.00304    0.33299   -0.19869
 97 Co    0.52885   -0.66321    0.29043
 98 Al   -0.51448   -1.42599   -1.02771
 99 Fe   -0.56678    0.12711    0.18507
100 Fe   -1.05525    0.58384    0.19754
101 Al    0.14470   -0.34342    0.78170
102 Fe    0.11599    0.23162   -0.17957
103 Cr    0.16626   -0.04071    0.52703
104 Fe    0.00019    0.52809   -0.84782
105 Al   -0.76647    0.45584    0.73087
106 Ni    0.27736    0.35722    0.30505
107 Co    0.47414   -0.05568   -0.02398
108 Fe    0.43637    0.33064   -0.23346
109 Co   -0.49846   -0.37490   -0.47193
110 Fe   -0.24219    0.21772   -0.30082
111 Al   -0.90957   -0.30393    0.73948
112 Cr    0.95297   -1.05147    0.43567
113 Al    0.46342   -0.69629    0.72665
114 Ni   -0.13276   -0.37547    0.02570
115 Fe    0.22429   -0.05049   -0.54929
116 Al    0.20471    0.39382    1.30460
117 Al    0.67597   -0.01480    0.81486
118 Fe   -0.50890    0.05904   -0.28792
119 Al   -0.06221   -0.52409    2.28675
120 Cr   -0.46937    0.07595    1.39462
121 Ni    0.34756   -0.33264    0.22423
122 Cr    0.64114   -0.54915   -0.45365
123 Cr   -0.23579    0.11809   -0.03411
124 Cr    0.18275    0.47918    0.00830

Timing:                              incl.     excl.
-----------------------------------------------------------
Forces:                             48.853    48.853   0.2% |
Hamiltonian:                         2.750     0.017   0.0% |
 Atomic:                             0.450     0.002   0.0% |
  XC Correction:                     0.447     0.447   0.0% |
 Calculate atomic Hamiltonians:      1.556     1.556   0.0% |
 Communicate:                        0.063     0.063   0.0% |
 Initialize Hamiltonian:             0.001     0.001   0.0% |
 Poisson:                            0.166     0.166   0.0% |
 XC 3D grid:                         0.499     0.499   0.0% |
LCAO initialization:               285.030     0.659   0.0% |
 LCAO eigensolver:                  18.259     0.030   0.0% |
  Calculate projections:             0.000     0.000   0.0% |
  DenseAtomicCorrection:             0.000     0.000   0.0% |
  Distribute overlap matrix:         9.561     9.561   0.0% |
  Orbital Layouts:                   8.610     8.610   0.0% |
  Potential matrix:                  0.005     0.005   0.0% |
  Sum over cells:                    0.053     0.053   0.0% |
 LCAO to grid:                     263.809   263.809   1.2% |
 Set positions (LCAO WFS):           2.303     1.915   0.0% |
  Basic WFS set positions:           0.004     0.004   0.0% |
  Basis functions set positions:     0.001     0.001   0.0% |
  P tci:                             0.001     0.001   0.0% |
  ST tci:                            0.154     0.154   0.0% |
  mktci:                             0.229     0.229   0.0% |
PWDescriptor:                        0.167     0.167   0.0% |
SCF-cycle:                       21469.734     1.889   0.0% |
 Davidson:                       20603.474  6075.387  27.8% |----------|
  Apply H:                         416.534   408.119   1.9% ||
   HMM T:                            8.415     8.415   0.0% |
  Subspace diag:                  1967.497     0.106   0.0% |
   calc_h_matrix:                  886.268   489.670   2.2% ||
    Apply H:                       396.598   385.846   1.8% ||
     HMM T:                         10.751    10.751   0.0% |
   diagonalize:                    167.876   167.876   0.8% |
   rotate_psi:                     913.247   913.247   4.2% |-|
  calc. matrices:                 4546.111  3796.549  17.4% |------|
   Apply H:                        749.562   728.979   3.3% ||
    HMM T:                          20.583    20.583   0.1% |
  diagonalize:                    5598.680  5598.680  25.7% |---------|
  rotate_psi:                     1999.264  1999.264   9.2% |---|
 Density:                          500.929     0.006   0.0% |
  Atomic density matrices:           4.039     4.039   0.0% |
  Mix:                             288.372   288.372   1.3% ||
  Multipole moments:                 0.133     0.133   0.0% |
  Pseudo density:                  208.379   208.366   1.0% |
   Symmetrize density:               0.013     0.013   0.0% |
 Hamiltonian:                      345.173     2.735   0.0% |
  Atomic:                           55.578     0.281   0.0% |
   XC Correction:                   55.296    55.296   0.3% |
  Calculate atomic Hamiltonians:   210.901   210.901   1.0% |
  Communicate:                       7.612     7.612   0.0% |
  Poisson:                           6.844     6.844   0.0% |
  XC 3D grid:                       61.504    61.504   0.3% |
 Orthonormalize:                    18.269     0.001   0.0% |
  calc_s_matrix:                     2.198     2.198   0.0% |
  inverse-cholesky:                  0.747     0.747   0.0% |
  projections:                      11.698    11.698   0.1% |
  rotate_psi_s:                      3.625     3.625   0.0% |
Set symmetry:                        0.001     0.001   0.0% |
Other:                              10.966    10.966   0.1% |
-----------------------------------------------------------
Total:                                     21817.500 100.0%

Date: Thu Apr 20 00:36:58 2023
