
  ___ ___ ___ _ _ _  
 |   |   |_  | | | | 
 | | | | | . | | | | 
 |__ |  _|___|_____|  22.8.0
 |___|_|             

User:   c.zeng@d0117
Date:   Sat Apr 15 11:43:13 2023
Arch:   x86_64
Pid:    207207
CWD:    /home/c.zeng/projects/hea-corrosion/hea-mlp/data-curation/bulk-mcmc/dft-jobs/32
Python: 3.8.1
gpaw:   /home/c.zeng/usr/installs/gpaw/source/gpaw-22.8.0/gpaw
_gpaw:  /home/c.zeng/usr/installs/gpaw/source/gpaw-22.8.0/
        _gpaw.cpython-38-x86_64-linux-gnu.so
ase:    /home/c.zeng/.local/lib/python3.8/site-packages/ase-3.22.1-py3.8.egg/ase (version 3.22.1)
numpy:  /shared/centos7/python/3.8.1/lib/python3.8/site-packages/numpy (version 1.17.4)
scipy:  /shared/centos7/python/3.8.1/lib/python3.8/site-packages/scipy (version 1.4.1)
libxc:  4.2.3
units:  Angstrom and eV
cores: 30
OpenMP: False
OMP_NUM_THREADS: 1

Input parameters:
  convergence: {energy: 0.0001}
  kpts: [2 2 2]
  maxiter: 666
  mode: {ecut: 350.0,
         name: pw}
  occupations: {fixmagmom: False,
                name: fermi-dirac,
                width: 0.1}
  spinpol: True
  xc: PBE

System changes: positions, numbers, cell, pbc, initial_charges, initial_magmoms 

Initialize ...

species:
  Co:
    name: Cobalt
    id: 339d20d5b0b93d2de9531a1bee871d91
    Z: 27.0
    valence: 9
    core: 18
    charge: 0.0
    file: /home/c.zeng/usr/data/gpaw-setups-0.9.20000/Co.PBE.gz
    compensation charges: {type: gauss,
                           rc: 0.32,
                           lmax: 2}
    cutoffs: {filter: 1.87,
              core: 2.55}
    valence states:
      #              energy  rcut
      - 4s(2.00)    -5.469   1.005
      - 4p(0.00)    -1.277   1.058
      - 3d(7.00)    -8.205   1.005
      -  s          21.742   1.005
      -  p          25.934   1.058
      -  d          19.007   1.005
  
    # Using partial waves for Co as LCAO basis

  Fe:
    name: Iron
    id: 37abbd8d6c3c35915a9b583b742da910
    Z: 26.0
    valence: 8
    core: 18
    charge: 0.0
    file: /home/c.zeng/usr/data/gpaw-setups-0.9.20000/Fe.PBE.gz
    compensation charges: {type: gauss,
                           rc: 0.33,
                           lmax: 2}
    cutoffs: {filter: 2.06,
              core: 2.67}
    valence states:
      #              energy  rcut
      - 4s(2.00)    -5.291   1.164
      - 4p(0.00)    -1.326   1.058
      - 3d(6.00)    -7.505   1.058
      -  s          21.920   1.164
      -  p          25.885   1.058
      -  d          19.706   1.058
  
    # Using partial waves for Fe as LCAO basis

  Cr:
    name: Chromium
    id: 33f258bda2ca9f93018e70263a35547b
    Z: 24.0
    valence: 6
    core: 18
    charge: 0.0
    file: /home/c.zeng/usr/data/gpaw-setups-0.9.20000/Cr.PBE.gz
    compensation charges: {type: gauss,
                           rc: 0.35,
                           lmax: 2}
    cutoffs: {filter: 2.14,
              core: 3.04}
    valence states:
      #              energy  rcut
      - 4s(1.00)    -4.007   1.164
      - 4p(0.00)    -0.989   1.217
      - 3d(5.00)    -2.913   1.111
      -  s          23.205   1.164
      -  p          26.223   1.217
      -  d          24.299   1.111
  
    # Using partial waves for Cr as LCAO basis

  Ni:
    name: Nickel
    id: 0d9f38a9d6e76a2886f07bb4381f212b
    Z: 28.0
    valence: 16
    core: 12
    charge: 0.0
    file: /home/c.zeng/usr/data/gpaw-setups-0.9.20000/Ni.PBE.gz
    compensation charges: {type: gauss,
                           rc: 0.36,
                           lmax: 2}
    cutoffs: {filter: 2.14,
              core: 1.98}
    valence states:
      #              energy  rcut
      - 4s(2.00)    -5.642   1.164
      - 3p(6.00)   -71.394   1.207
      - 4p(0.00)    -1.226   1.207
      - 3d(8.00)    -8.875   1.138
      -  s          21.570   1.164
      -  d          18.337   1.138
  
    # Using partial waves for Ni as LCAO basis

Reference energy: -3846758.590871  # eV

Spin-polarized calculation.
Magnetic moment: 151.200000

Convergence criteria:
 Maximum [total energy] change in last 3 cyles: 0.0001 eV / electron
 Maximum integral of absolute [dens]ity change: 0.0001 electrons / valence electron
 Maximum integral of absolute [eigenst]ate change: 4e-08 eV^2 / valence electron
 Maximum number of scf [iter]ations: 666
 (Square brackets indicate name in SCF output, whereas a 'c' in
 the SCF output indicates the quantity has converged.)

Symmetries present (total): 1

  ( 1  0  0)
  ( 0  1  0)
  ( 0  0  1)

8 k-points: 2 x 2 x 2 Monkhorst-Pack grid
4 k-points in the irreducible part of the Brillouin zone
       k-points in crystal coordinates                weights
   0:     0.25000000   -0.25000000   -0.25000000          2/8
   1:     0.25000000   -0.25000000    0.25000000          2/8
   2:     0.25000000    0.25000000   -0.25000000          2/8
   3:     0.25000000    0.25000000    0.25000000          2/8

Wave functions: Plane wave expansion
  Cutoff energy: 350.000 eV
  Number of coefficients (min, max): 17755, 17755
  Pulay-stress correction: 0.000000 eV/Ang^3 (de/decut=0.000000)
  Using FFTW library
  ScaLapack parameters: grid=1x1, blocksize=None
  Wavefunction extrapolation:
    Improved wavefunction reuse through dual PAW basis 

Occupation numbers: Fermi-Dirac:
  width: 0.1000  # eV
 

Eigensolver
   Davidson(niter=2) 

Densities:
  Coarse grid: 48*48*48 grid
  Fine grid: 96*96*96 grid
  Total Charge: 0.000000 

Density mixing:
  Method: difference
  Backend: pulay
  Linear mixing parameter: 0.05
  old densities: 5
  Damping of long wavelength oscillations: 50 

Hamiltonian:
  XC and Coulomb potentials evaluated on a 96*96*96 grid
  Using the PBE Exchange-Correlation functional
  External potential:
    NoExternalPotential
 

XC parameters: PBE with 2 nearest neighbor stencil

Memory estimate:
  Process memory now: 237.83 MiB
  Calculator: 1084.22 MiB
    Density: 5.08 MiB
      Arrays: 2.05 MiB
      Localized functions: 2.21 MiB
      Mixer: 0.82 MiB
    Hamiltonian: 1.59 MiB
      Arrays: 1.52 MiB
      XC: 0.00 MiB
      Poisson: 0.00 MiB
      vbar: 0.06 MiB
    Wavefunctions: 1077.55 MiB
      Arrays psit_nG: 787.83 MiB
      Eigensolver: 278.98 MiB
      Projections: 5.75 MiB
      Projectors: 0.60 MiB
      PW-descriptor: 4.38 MiB

Total number of cores used: 30
Parallelization over k-points: 2
Domain decomposition: 5 x 3 x 1

Number of atoms: 108
Number of atomic orbitals: 1053
Number of bands in calculation: 727
Number of valence electrons: 1053
Bands to converge: occupied

... initialized

Initializing position-dependent things.

Density initialized from atomic densities
Creating initial wave functions:
  727 bands from LCAO basis set

        .-------------------------.  
       /|  Cr       Cr      Ni    |  
      / |   NiFe     Ni           |  
     /  |       Co      Fe       Fe  
    /   |Ni      CFe       Co     Cr 
   /    | Co       Cr       NFe   |  
  /  CCo|  FeNi     CoNi          |  
 *    CrCr    FeCr   FeCrCo       |  
 |      |CoNi   FeFeNi  CoCrFe   Ni  
 |      | CrCo     CoNiFeNiCrNi   |  
 |    Co|  CoFeCr   CoCrFe   CrCo |  
 |      Cr    CrNiNi CrNiNi     Ni|  
 |      |FeFe  CoFeNi   FeNiFe   Cr  
 |      .-FeCo-----NiCrFe--NiCr---Co 
 |   Cro     Fe       Cr         /   
 |    CrCo     Cor     CNie     /    
 |   /    Co               Ni  /     
 |  /      Fe       Fe    CrFe/      
 | / Fe     Ni       CrNi    /       
 |/            Co       Cr  /        
 *--------Co------Co-------*         

Positions:
   0 Co    -0.012479   -0.003723   10.616104    ( 0.0000,  0.0000,  2.1000)
   1 Fe    -0.011321    1.761305    1.763386    ( 0.0000,  0.0000,  2.1000)
   2 Fe     1.758365    0.001326    1.769011    ( 0.0000,  0.0000,  2.0000)
   3 Co     1.752686    1.779222   10.610436    ( 0.0000,  0.0000,  2.0000)
   4 Co     3.541196    0.004726   10.616104    ( 0.0000,  0.0000,  0.0000)
   5 Fe     3.534711    1.782438    1.778999    ( 0.0000,  0.0000,  0.0000)
   6 Cr     5.305717   10.600629    1.767950    ( 0.0000,  0.0000,  2.1000)
   7 Co     5.324780    1.765604   10.614618    ( 0.0000,  0.0000,  0.0000)
   8 Co     7.089121    0.014598   10.619926    ( 0.0000,  0.0000,  2.0000)
   9 Fe     7.085279    1.771219    1.773543    ( 0.0000,  0.0000,  1.5000)
  10 Ni     8.850554    0.011470    1.768756    ( 0.0000,  0.0000,  1.5000)
  11 Cr     8.842381    1.777333   10.615680    ( 0.0000,  0.0000,  2.1000)
  12 Fe    10.590535    3.538203   -0.001956    ( 0.0000,  0.0000,  0.0000)
  13 Ni    10.624277    5.310674    1.769786    ( 0.0000,  0.0000,  2.0000)
  14 Co     1.761379    3.535623    1.784572    ( 0.0000,  0.0000,  0.0000)
  15 Ni     1.770200    5.301408   10.611753    ( 0.0000,  0.0000,  2.0000)
  16 Ni     3.556003    3.551407   10.618333    ( 0.0000,  0.0000,  1.5000)
  17 Fe     3.539370    5.311290    1.775199    ( 0.0000,  0.0000,  2.1000)
  18 Cr     5.320142    3.545059    1.779678    ( 0.0000,  0.0000,  1.5000)
  19 Fe     5.306980    5.314654   10.602720    ( 0.0000,  0.0000,  0.0000)
  20 Cr     7.081585    3.529127   10.614725    ( 0.0000,  0.0000,  2.1000)
  21 Cr     7.069241    5.303361    1.781271    ( 0.0000,  0.0000,  1.5000)
  22 Fe     8.841447    3.542671    1.781600    ( 0.0000,  0.0000,  2.1000)
  23 Cr     8.850893    5.290379    0.000220    ( 0.0000,  0.0000,  0.0000)
  24 Cr     0.005868    7.083411   10.614937    ( 0.0000,  0.0000,  2.0000)
  25 Cr    10.601043    8.849694    1.772960    ( 0.0000,  0.0000,  2.1000)
  26 Fe     1.773713    7.072329    1.777184    ( 0.0000,  0.0000,  0.0000)
  27 Cr     1.755520    8.842943   10.608324    ( 0.0000,  0.0000,  0.0000)
  28 Fe     3.544009    7.063116   10.610489    ( 0.0000,  0.0000,  2.0000)
  29 Co     3.542225    8.826820    1.785580    ( 0.0000,  0.0000,  0.0000)
  30 Ni     5.309835    7.081776    1.776600    ( 0.0000,  0.0000,  2.1000)
  31 Cr     5.331945    8.840321   10.604673    ( 0.0000,  0.0000,  2.1000)
  32 Co     7.068434    7.069028   10.623110    ( 0.0000,  0.0000,  0.0000)
  33 Fe     7.083750    8.846796    1.774509    ( 0.0000,  0.0000,  1.5000)
  34 Ni     8.841404    7.058180    1.777173    ( 0.0000,  0.0000,  1.5000)
  35 Ni     8.835524    8.853600   10.611753    ( 0.0000,  0.0000,  0.0000)
  36 Ni    -0.009351   10.618864    3.531070    ( 0.0000,  0.0000,  2.0000)
  37 Fe    10.602508    1.764818    5.300452    ( 0.0000,  0.0000,  1.5000)
  38 Cr     1.756720    0.001379    5.295867    ( 0.0000,  0.0000,  0.0000)
  39 Co     1.766506    1.767154    3.539222    ( 0.0000,  0.0000,  2.0000)
  40 Co     3.539742    0.013881    3.542873    ( 0.0000,  0.0000,  2.0000)
  41 Fe     3.548944    1.788658    5.306237    ( 0.0000,  0.0000,  2.1000)
  42 Fe     5.320174   -0.004685    5.301386    ( 0.0000,  0.0000,  0.0000)
  43 Co     5.316862    1.765551    3.538935    ( 0.0000,  0.0000,  2.0000)
  44 Ni     7.081086   -0.000289    3.531325    ( 0.0000,  0.0000,  2.0000)
  45 Ni     7.072902    1.777407    5.300537    ( 0.0000,  0.0000,  2.0000)
  46 Fe     8.840544    0.012372    5.307851    ( 0.0000,  0.0000,  1.5000)
  47 Ni     8.833592    1.767928    3.534318    ( 0.0000,  0.0000,  2.1000)
  48 Cr    -0.004066    3.525285    3.545951    ( 0.0000,  0.0000,  0.0000)
  49 Co    -0.001689    5.317934    5.307787    ( 0.0000,  0.0000,  1.5000)
  50 Cr     1.769043    3.555101    5.297279    ( 0.0000,  0.0000,  2.0000)
  51 Fe     1.773692    5.305929    3.538266    ( 0.0000,  0.0000,  2.1000)
  52 Co     3.542746    3.537364    3.547575    ( 0.0000,  0.0000,  2.1000)
  53 Fe     3.548477    5.306927    5.301153    ( 0.0000,  0.0000,  2.0000)
  54 Ni     5.316246    3.553031    5.303637    ( 0.0000,  0.0000,  2.0000)
  55 Fe     5.303286    5.303531    3.542385    ( 0.0000,  0.0000,  1.5000)
  56 Cr     7.074962    3.533023    3.537215    ( 0.0000,  0.0000,  1.5000)
  57 Cr     7.066046    5.306046    5.300081    ( 0.0000,  0.0000,  2.0000)
  58 Ni     8.834526    3.538160    5.294530    ( 0.0000,  0.0000,  2.1000)
  59 Ni     8.846255    5.300452    3.537672    ( 0.0000,  0.0000,  1.5000)
  60 Ni    -0.000719    7.085066    3.531080    ( 0.0000,  0.0000,  1.5000)
  61 Ni    10.598060    8.841075    5.303085    ( 0.0000,  0.0000,  2.0000)
  62 Cr     1.779986    7.059550    5.307522    ( 0.0000,  0.0000,  2.0000)
  63 Co     1.758184    8.847157    3.551513    ( 0.0000,  0.0000,  1.5000)
  64 Cr     3.552224    7.063180    3.551566    ( 0.0000,  0.0000,  2.0000)
  65 Fe     3.550250    8.826884    5.304900    ( 0.0000,  0.0000,  1.5000)
  66 Co     5.307914    7.068147    5.307139    ( 0.0000,  0.0000,  2.1000)
  67 Co     5.318635    8.854555    3.544115    ( 0.0000,  0.0000,  1.5000)
  68 Ni     7.066629    7.084918    3.542915    ( 0.0000,  0.0000,  2.0000)
  69 Co     7.081553    8.840290    5.311321    ( 0.0000,  0.0000,  2.1000)
  70 Cr     8.837572    7.062692    5.296886    ( 0.0000,  0.0000,  0.0000)
  71 Cr     8.843071    8.854534    3.541493    ( 0.0000,  0.0000,  1.5000)
  72 Cr    10.604514   10.614056    7.084249    ( 0.0000,  0.0000,  2.1000)
  73 Fe    -0.008023    1.757484    8.855341    ( 0.0000,  0.0000,  2.1000)
  74 Ni     1.751529   -0.001390    8.856848    ( 0.0000,  0.0000,  2.0000)
  75 Co     1.760307    1.763959    7.080715    ( 0.0000,  0.0000,  0.0000)
  76 Co     3.535761   -0.010530    7.075429    ( 0.0000,  0.0000,  0.0000)
  77 Ni     3.539498    1.775454    8.840321    ( 0.0000,  0.0000,  2.1000)
  78 Ni     5.320322   10.607507    8.848749    ( 0.0000,  0.0000,  2.0000)
  79 Cr     5.315397    1.771431    7.072096    ( 0.0000,  0.0000,  0.0000)
  80 Ni     7.084440    0.000044    7.076533    ( 0.0000,  0.0000,  1.5000)
  81 Ni     7.078613    1.760169    8.844238    ( 0.0000,  0.0000,  2.0000)
  82 Fe     8.843644    0.009542    8.845512    ( 0.0000,  0.0000,  2.1000)
  83 Fe     8.842126    1.772344    7.078645    ( 0.0000,  0.0000,  1.5000)
  84 Ni    10.597105    3.532333    7.067447    ( 0.0000,  0.0000,  0.0000)
  85 Co     0.007690    5.315153    8.846499    ( 0.0000,  0.0000,  2.1000)
  86 Cr     1.767854    3.539243    8.836978    ( 0.0000,  0.0000,  0.0000)
  87 Co     1.775932    5.314431    7.075301    ( 0.0000,  0.0000,  1.5000)
  88 Co     3.547204    3.559803    7.058042    ( 0.0000,  0.0000,  0.0000)
  89 Ni     3.538765    5.307267    8.841850    ( 0.0000,  0.0000,  2.0000)
  90 Cr     5.316841    3.538797    8.836012    ( 0.0000,  0.0000,  1.5000)
  91 Fe     5.312542    5.317584    7.078199    ( 0.0000,  0.0000,  2.1000)
  92 Ni     7.082519    3.540410    7.075418    ( 0.0000,  0.0000,  1.5000)
  93 Ni     7.071130    5.304220    8.839313    ( 0.0000,  0.0000,  1.5000)
  94 Co     8.837997    3.524669    8.843389    ( 0.0000,  0.0000,  1.5000)
  95 Cr     8.833772    5.299051    7.076862    ( 0.0000,  0.0000,  0.0000)
  96 Cr     0.012168    7.080333    7.083835    ( 0.0000,  0.0000,  1.5000)
  97 Fe    -0.017034    8.848707    8.843941    ( 0.0000,  0.0000,  2.1000)
  98 Co     1.777938    7.075503    8.840194    ( 0.0000,  0.0000,  2.0000)
  99 Fe     1.758800    8.840035    7.069803    ( 0.0000,  0.0000,  0.0000)
 100 Fe     3.549921    7.066194    7.070090    ( 0.0000,  0.0000,  2.1000)
 101 Co     3.553137    8.839111    8.836776    ( 0.0000,  0.0000,  0.0000)
 102 Cr     5.304189    7.079929    8.840215    ( 0.0000,  0.0000,  2.0000)
 103 Co     5.321946    8.832180    7.082997    ( 0.0000,  0.0000,  2.1000)
 104 Cr     7.057077    7.072149    7.064167    ( 0.0000,  0.0000,  1.5000)
 105 Fe     7.082402    8.855500    8.837487    ( 0.0000,  0.0000,  2.1000)
 106 Co     8.846786    7.077881    8.846732    ( 0.0000,  0.0000,  0.0000)
 107 Ni     8.839313    8.848272    7.075153    ( 0.0000,  0.0000,  0.0000)

Unit cell:
           periodic     x           y           z      points  spacing
  1. axis:    yes   10.614300    0.000000    0.000000    48     0.2211
  2. axis:    yes    0.000000   10.614300    0.000000    48     0.2211
  3. axis:    yes    0.000000    0.000000   10.614300    48     0.2211

  Lengths:  10.614300  10.614300  10.614300
  Angles:   90.000000  90.000000  90.000000

Effective grid spacing dv^(1/3) = 0.2211

     iter     time        total  log10-change:  magmom
                         energy  eigst   dens
iter:   1 11:49:46  -969.103931                  +151.1491
iter:   2 11:52:47  -949.491186  -0.54  -1.35    +115.4315
iter:   3 11:55:48  -925.108060  -0.93  -1.32    +84.2128
iter:   4 11:58:49  -896.711574  -1.32  -1.38    +71.0863
iter:   5 12:01:50  -892.108328  -1.93  -1.48    +64.0708
iter:   6 12:04:51  -894.595112  -1.96  -1.52    +60.1028
iter:   7 12:07:52  -896.238389  -1.69  -1.55    +57.4951
iter:   8 12:10:53  -890.500853  -1.79  -1.59    +56.0832
iter:   9 12:13:54  -896.135159  -1.84  -1.71    +55.3243
iter:  10 12:16:54  -888.758302  -2.01  -1.71    +54.3771
iter:  11 12:19:55  -887.544083  -2.50  -1.87    +54.0500
iter:  12 12:22:56  -887.637404  -2.64  -1.93    +54.5798
iter:  13 12:25:57  -888.325400  -2.77  -1.98    +55.0243
iter:  14 12:28:58  -889.630132  -2.63  -2.00    +55.4669
iter:  15 12:31:59  -889.903397  -2.63  -1.97    +55.7795
iter:  16 12:34:58  -891.504741  -2.43  -2.03    +56.3522
iter:  17 12:37:57  -889.545994  -2.65  -1.99    +56.5403
iter:  18 12:40:58  -889.764302  -2.77  -2.17    +56.7091
iter:  19 12:43:59  -890.040392  -2.83  -2.21    +57.1477
iter:  20 12:47:00  -889.960092  -2.88  -2.20    +57.4419
iter:  21 12:50:01  -889.636883  -3.21  -2.23    +57.9148
iter:  22 12:53:02  -889.884597  -3.21  -2.34    +58.1217
iter:  23 12:56:03  -889.615307  -3.65  -2.31    +58.3426
iter:  24 12:59:04  -889.788651  -3.63  -2.43    +58.8564
iter:  25 13:02:05  -890.009374  -3.54  -2.44    +59.3219
iter:  26 13:05:06  -890.144126  -3.51  -2.44    +59.4734
iter:  27 13:08:07  -890.440525  -3.30  -2.44    +59.5113
iter:  28 13:11:08  -890.587728  -3.15  -2.40    +59.7295
iter:  29 13:14:08  -890.374608  -3.30  -2.40    +59.6225
iter:  30 13:17:09  -890.431151  -3.38  -2.51    +59.5238
iter:  31 13:20:10  -890.295433  -3.60  -2.50    +59.6570
iter:  32 13:23:11  -890.261989  -3.94  -2.60    +59.6876
iter:  33 13:26:11  -890.248882c -4.40  -2.64    +59.8464
iter:  34 13:29:11  -890.285921c -4.51  -2.70    +59.7931
iter:  35 13:32:10  -890.368802  -3.88  -2.71    +59.8489
iter:  36 13:35:11  -890.403944  -4.09  -2.70    +59.7236
iter:  37 13:38:12  -890.414283c -4.02  -2.75    +59.7061
iter:  38 13:41:12  -890.415881c -4.10  -2.89    +59.6669
iter:  39 13:44:14  -890.414490c -4.15  -2.91    +59.6301
iter:  40 13:47:14  -890.402352c -4.44  -2.98    +59.7134
iter:  41 13:50:15  -890.388178c -4.92  -3.07    +59.6315
iter:  42 13:53:15  -890.393852c -5.12  -3.28    +59.6234
iter:  43 13:56:15  -890.394788c -5.26  -3.25    +59.6198
iter:  44 13:59:15  -890.399452c -5.21  -3.31    +59.6026
iter:  45 14:02:13  -890.400692c -5.20  -3.31    +59.5987
iter:  46 14:05:15  -890.408612c -4.89  -3.35    +59.5710
iter:  47 14:08:15  -890.404279c -5.05  -3.29    +59.6017
iter:  48 14:11:16  -890.407081c -5.26  -3.40    +59.5756
iter:  49 14:14:17  -890.406765c -5.37  -3.45    +59.5413
iter:  50 14:17:17  -890.407376c -5.61  -3.51    +59.5352
iter:  51 14:20:18  -890.409851c -5.74  -3.58    +59.5094
iter:  52 14:23:20  -890.412568c -5.79  -3.64    +59.4860
iter:  53 14:26:20  -890.417363c -5.39  -3.68    +59.4338
iter:  54 14:29:21  -890.415408c -5.87  -3.60    +59.4486
iter:  55 14:32:22  -890.418122c -5.78  -3.83    +59.4109
iter:  56 14:35:23  -890.416891c -6.31  -3.93    +59.4310
iter:  57 14:38:22  -890.417969c -6.24  -3.98    +59.4436
iter:  58 14:41:22  -890.419434c -6.29  -4.02c   +59.4079
iter:  59 14:44:23  -890.422799c -5.80  -4.03c   +59.3688
iter:  60 14:47:24  -890.422892c -6.76  -3.96    +59.3741
iter:  61 14:50:25  -890.425721c -5.91  -3.93    +59.3508
iter:  62 14:53:26  -890.419733c -5.32  -3.84    +59.3765
iter:  63 14:56:27  -890.424377c -5.79  -4.04c   +59.3410
iter:  64 14:59:27  -890.425320c -6.44  -3.98    +59.3287
iter:  65 15:02:28  -890.431171c -5.35  -4.01c   +59.2593
iter:  66 15:05:29  -890.429589c -6.15  -3.75    +59.2794
iter:  67 15:08:29  -890.432013c -5.90  -3.90    +59.2338
iter:  68 15:11:30  -890.432619c -5.89  -3.92    +59.2330
iter:  69 15:14:30  -890.435087c -5.88  -3.65    +59.2332
iter:  70 15:17:29  -890.435166c -5.54  -3.71    +59.2363
iter:  71 15:20:31  -890.436714c -5.75  -3.81    +59.2074
iter:  72 15:23:32  -890.438432c -5.84  -3.91    +59.1830
iter:  73 15:26:32  -890.440437c -5.80  -3.87    +59.1369
iter:  74 15:29:33  -890.445763c -5.04  -3.81    +59.0163
iter:  75 15:32:34  -890.443864c -6.04  -3.58    +59.0520
iter:  76 15:35:35  -890.444776c -5.97  -3.73    +59.0221
iter:  77 15:38:35  -890.445662c -5.90  -3.80    +59.0106
iter:  78 15:41:36  -890.445819c -6.23  -3.76    +59.0185
iter:  79 15:44:37  -890.447384c -5.69  -3.87    +58.9989
iter:  80 15:47:37  -890.447806c -5.86  -3.86    +58.9938
iter:  81 15:50:39  -890.447605c -6.12  -3.81    +58.9851
iter:  82 15:53:39  -890.448061c -5.92  -3.90    +58.9876
iter:  83 15:56:40  -890.448273c -6.30  -4.00c   +58.9785
iter:  84 15:59:41  -890.448492c -6.63  -4.12c   +58.9745
iter:  85 16:02:41  -890.449237c -6.18  -4.19c   +58.9574
iter:  86 16:05:40  -890.450095c -6.05  -4.15c   +58.9567
iter:  87 16:08:41  -890.452269c -5.45  -4.16c   +58.9425
iter:  88 16:11:41  -890.451351c -6.48  -3.97    +58.9459
iter:  89 16:14:41  -890.451787c -6.08  -4.06c   +58.9333
iter:  90 16:17:42  -890.452374c -5.96  -4.12c   +58.9268
iter:  91 16:20:43  -890.453388c -5.72  -4.13c   +58.9180
iter:  92 16:23:44  -890.452719c -6.23  -4.01c   +58.9142
iter:  93 16:26:45  -890.453362c -6.20  -4.15c   +58.9114
iter:  94 16:29:44  -890.453147c -6.42  -4.03c   +58.9118
iter:  95 16:32:45  -890.452770c -6.46  -4.09c   +58.9032
iter:  96 16:35:46  -890.452879c -6.98  -4.22c   +58.9051
iter:  97 16:38:47  -890.452949c -7.07  -4.28c   +58.9076
iter:  98 16:41:48  -890.452989c -7.20  -4.31c   +58.9142
iter:  99 16:44:48  -890.453078c -7.18  -4.34c   +58.9158
iter: 100 16:47:49  -890.453227c -6.57  -4.34c   +58.9134
iter: 101 16:50:51  -890.453551c -6.20  -4.32c   +58.9138
iter: 102 16:53:52  -890.453609c -6.88  -4.20c   +58.9147
iter: 103 16:56:52  -890.453669c -6.92  -4.19c   +58.9159
iter: 104 16:59:52  -890.453672c -7.24  -4.19c   +58.9144
iter: 105 17:02:51  -890.453729c -7.25  -4.22c   +58.9180
iter: 106 17:05:52  -890.453577c -6.55  -4.27c   +58.9169
iter: 107 17:08:53  -890.453682c -6.96  -4.12c   +58.9159
iter: 108 17:11:53  -890.453651c -7.14  -4.39c   +58.9177
iter: 109 17:14:53  -890.453717c -7.21  -4.43c   +58.9179
iter: 110 17:17:54  -890.453720c -7.28  -4.43c   +58.9195
iter: 111 17:20:54  -890.453674c -7.46c -4.48c   +58.9163

Converged after 111 iterations.

Dipole moment: (6.468754, -1.901468, 0.737135) |e|*Ang

Total magnetic moment: (0.000000, 0.000000, 58.916278)
Local magnetic moments:
   0 Co ( 0.000000,  0.000000,  1.144806)
   1 Fe ( 0.000000,  0.000000,  2.234173)
   2 Fe ( 0.000000,  0.000000,  2.201739)
   3 Co ( 0.000000,  0.000000,  1.390651)
   4 Co ( 0.000000,  0.000000,  1.129246)
   5 Fe ( 0.000000,  0.000000,  2.211017)
   6 Cr ( 0.000000,  0.000000, -1.529804)
   7 Co ( 0.000000,  0.000000,  0.843903)
   8 Co ( 0.000000,  0.000000,  1.133920)
   9 Fe ( 0.000000,  0.000000,  2.002634)
  10 Ni ( 0.000000,  0.000000,  0.347933)
  11 Cr ( 0.000000,  0.000000, -1.704651)
  12 Fe ( 0.000000,  0.000000,  2.157835)
  13 Ni ( 0.000000,  0.000000,  0.221113)
  14 Co ( 0.000000,  0.000000,  1.348173)
  15 Ni ( 0.000000,  0.000000,  0.352301)
  16 Ni ( 0.000000,  0.000000,  0.179098)
  17 Fe ( 0.000000,  0.000000,  2.094258)
  18 Cr ( 0.000000,  0.000000, -1.139581)
  19 Fe ( 0.000000,  0.000000, -1.580599)
  20 Cr ( 0.000000,  0.000000,  0.447583)
  21 Cr ( 0.000000,  0.000000,  0.649780)
  22 Fe ( 0.000000,  0.000000,  1.697629)
  23 Cr ( 0.000000,  0.000000, -0.995273)
  24 Cr ( 0.000000,  0.000000, -0.639056)
  25 Cr ( 0.000000,  0.000000,  0.917853)
  26 Fe ( 0.000000,  0.000000,  2.005825)
  27 Cr ( 0.000000,  0.000000, -1.494458)
  28 Fe ( 0.000000,  0.000000,  1.969338)
  29 Co ( 0.000000,  0.000000,  1.163107)
  30 Ni ( 0.000000,  0.000000,  0.191385)
  31 Cr ( 0.000000,  0.000000, -1.027705)
  32 Co ( 0.000000,  0.000000,  0.670704)
  33 Fe ( 0.000000,  0.000000,  2.257423)
  34 Ni ( 0.000000,  0.000000,  0.170084)
  35 Ni ( 0.000000,  0.000000,  0.314250)
  36 Ni ( 0.000000,  0.000000,  0.325923)
  37 Fe ( 0.000000,  0.000000,  1.938643)
  38 Cr ( 0.000000,  0.000000, -1.659198)
  39 Co ( 0.000000,  0.000000,  1.091654)
  40 Co ( 0.000000,  0.000000,  1.084391)
  41 Fe ( 0.000000,  0.000000,  2.164076)
  42 Fe ( 0.000000,  0.000000,  2.479210)
  43 Co ( 0.000000,  0.000000,  1.030126)
  44 Ni ( 0.000000,  0.000000,  0.393397)
  45 Ni ( 0.000000,  0.000000,  0.312926)
  46 Fe ( 0.000000,  0.000000,  2.320608)
  47 Ni ( 0.000000,  0.000000,  0.289491)
  48 Cr ( 0.000000,  0.000000, -1.653196)
  49 Co ( 0.000000,  0.000000,  0.668219)
  50 Cr ( 0.000000,  0.000000, -1.453156)
  51 Fe ( 0.000000,  0.000000,  1.866057)
  52 Co ( 0.000000,  0.000000,  1.065178)
  53 Fe ( 0.000000,  0.000000,  1.804469)
  54 Ni ( 0.000000,  0.000000,  0.359037)
  55 Fe ( 0.000000,  0.000000,  1.734088)
  56 Cr ( 0.000000,  0.000000, -1.036568)
  57 Cr ( 0.000000,  0.000000, -0.015193)
  58 Ni ( 0.000000,  0.000000,  0.128317)
  59 Ni ( 0.000000,  0.000000,  0.042207)
  60 Ni ( 0.000000,  0.000000,  0.119992)
  61 Ni ( 0.000000,  0.000000,  0.160641)
  62 Cr ( 0.000000,  0.000000, -0.964701)
  63 Co ( 0.000000,  0.000000,  1.015576)
  64 Cr ( 0.000000,  0.000000, -1.552928)
  65 Fe ( 0.000000,  0.000000,  2.037552)
  66 Co ( 0.000000,  0.000000,  1.148627)
  67 Co ( 0.000000,  0.000000,  1.308197)
  68 Ni ( 0.000000,  0.000000,  0.227936)
  69 Co ( 0.000000,  0.000000,  1.193438)
  70 Cr ( 0.000000,  0.000000,  0.755420)
  71 Cr ( 0.000000,  0.000000, -1.735686)
  72 Cr ( 0.000000,  0.000000, -1.606172)
  73 Fe ( 0.000000,  0.000000,  2.166079)
  74 Ni ( 0.000000,  0.000000,  0.389438)
  75 Co ( 0.000000,  0.000000,  0.912566)
  76 Co ( 0.000000,  0.000000,  1.319528)
  77 Ni ( 0.000000,  0.000000,  0.191829)
  78 Ni ( 0.000000,  0.000000,  0.375832)
  79 Cr ( 0.000000,  0.000000, -1.714103)
  80 Ni ( 0.000000,  0.000000,  0.401218)
  81 Ni ( 0.000000,  0.000000,  0.210724)
  82 Fe ( 0.000000,  0.000000,  2.109976)
  83 Fe ( 0.000000,  0.000000,  2.340481)
  84 Ni ( 0.000000,  0.000000,  0.236503)
  85 Co ( 0.000000,  0.000000,  0.856081)
  86 Cr ( 0.000000,  0.000000, -1.810860)
  87 Co ( 0.000000,  0.000000,  0.965100)
  88 Co ( 0.000000,  0.000000,  0.936621)
  89 Ni ( 0.000000,  0.000000,  0.167555)
  90 Cr ( 0.000000,  0.000000,  0.324918)
  91 Fe ( 0.000000,  0.000000,  1.654110)
  92 Ni ( 0.000000,  0.000000,  0.155432)
  93 Ni ( 0.000000,  0.000000,  0.037385)
  94 Co ( 0.000000,  0.000000,  0.734100)
  95 Cr ( 0.000000,  0.000000, -0.187291)
  96 Cr ( 0.000000,  0.000000, -0.809563)
  97 Fe ( 0.000000,  0.000000,  1.872116)
  98 Co ( 0.000000,  0.000000,  1.046865)
  99 Fe ( 0.000000,  0.000000,  1.860246)
 100 Fe ( 0.000000,  0.000000,  1.919198)
 101 Co ( 0.000000,  0.000000,  1.102198)
 102 Cr ( 0.000000,  0.000000, -0.950610)
 103 Co ( 0.000000,  0.000000,  1.160717)
 104 Cr ( 0.000000,  0.000000, -0.897345)
 105 Fe ( 0.000000,  0.000000,  2.100213)
 106 Co ( 0.000000,  0.000000,  0.368490)
 107 Ni ( 0.000000,  0.000000,  0.233169)

Energy contributions relative to reference atoms: (reference = -3846758.590871)

Kinetic:       +114.134011
Potential:     -182.409724
External:        +0.000000
XC:            -859.994007
Entropy (-ST):   -4.596065
Local:          +40.114079
--------------------------
Free energy:   -892.751706
Extrapolated:  -890.453674

Spin contamination: 32.710906 electrons
Showing only first 2 kpts
                      Up                     Down
 Kpt  Band  Eigenvalues  Occupancy  Eigenvalues  Occupancy
  0   524      9.85772    0.99307     10.68810    0.03426
  0   525      9.86850    0.99229     10.70313    0.02962
  0   526      9.88828    0.99062     10.70864    0.02808
  0   527      9.89187    0.99028     10.71888    0.02542

  1   524      9.86772    0.99235     10.69243    0.03286
  1   525      9.89010    0.99045     10.69649    0.03159
  1   526      9.89753    0.98972     10.71194    0.02719
  1   527      9.91181    0.98816     10.72571    0.02378


Fermi level: 10.35422

No gap

Forces in eV/Ang:
  0 Co    0.14239   -0.05189   -0.02035
  1 Fe    0.11066   -0.02176    0.11863
  2 Fe    0.44984   -0.17398    0.04088
  3 Co    0.15266   -0.03615    0.03572
  4 Co    0.00608   -0.08903   -0.06031
  5 Fe    0.13203    0.04199   -0.00357
  6 Cr   -0.18795    0.29298    0.21725
  7 Co   -0.05852    0.08923    0.01792
  8 Co   -0.28830    0.05501   -0.01082
  9 Fe   -0.31221   -0.10709    0.06769
 10 Ni   -0.13153   -0.11473   -0.22303
 11 Cr    0.07007    0.02465    0.10365
 12 Fe    0.07498    0.40830    0.01894
 13 Ni    0.11337   -0.03539   -0.15096
 14 Co   -0.08381    0.03191    0.04712
 15 Ni   -0.08189    0.11938    0.04402
 16 Ni    0.01595   -0.33386   -0.15877
 17 Fe   -0.03866   -0.30197   -0.19425
 18 Cr   -0.28338   -0.22322   -0.30906
 19 Fe    0.28527   -0.21826    0.09752
 20 Cr   -0.10711    0.12986   -0.43290
 21 Cr   -0.35653    0.39803   -0.02043
 22 Fe    0.19010   -0.02611    0.21514
 23 Cr   -0.12511   -0.06816   -0.48336
 24 Cr   -0.05003   -0.36288   -0.31516
 25 Cr    0.23517    0.03376   -0.07151
 26 Fe    0.05735   -0.00283   -0.00494
 27 Cr    0.37093    0.15939   -0.11926
 28 Fe   -0.01652    0.36329   -0.03484
 29 Co   -0.13932    0.33340   -0.03464
 30 Ni    0.00098    0.03911   -0.16026
 31 Cr   -0.45795   -0.12147   -0.09446
 32 Co    0.02951   -0.04960   -0.13265
 33 Fe    0.01479   -0.04785   -0.22892
 34 Ni   -0.05037    0.07205   -0.14602
 35 Ni    0.10684   -0.21430    0.12089
 36 Ni    0.15279    0.10750    0.06191
 37 Fe    0.49797    0.10125    0.01852
 38 Cr    0.56601    0.08368   -0.40193
 39 Co    0.12699    0.22761    0.09307
 40 Co   -0.05726   -0.40604   -0.05881
 41 Fe   -0.39022   -0.00905   -0.13240
 42 Fe    0.15710   -0.06535   -0.04553
 43 Co   -0.28352    0.24317   -0.16640
 44 Ni   -0.12090    0.11108    0.04462
 45 Ni    0.00547   -0.07126    0.11491
 46 Fe   -0.16100   -0.26479    0.05415
 47 Ni    0.13660   -0.10781    0.00868
 48 Cr   -0.33269    0.09739   -0.37770
 49 Co    0.13472   -0.10297    0.12472
 50 Cr    0.35526   -0.10557    0.60153
 51 Fe   -0.13774   -0.24965    0.17367
 52 Co    0.02095   -0.02904   -0.04315
 53 Fe    0.03151   -0.19008    0.14765
 54 Ni   -0.07136   -0.13613    0.03915
 55 Fe   -0.00769    0.00611    0.17891
 56 Cr    0.49284   -0.25898    0.03698
 57 Cr   -0.19266    0.18074    0.13624
 58 Ni    0.09744    0.07138   -0.00036
 59 Ni    0.07040    0.16365    0.18767
 60 Ni    0.22910   -0.10452    0.22067
 61 Ni    0.19416    0.03784    0.00092
 62 Cr   -0.45005   -0.03992   -0.21569
 63 Co   -0.08746    0.01440   -0.05079
 64 Cr    0.19460    0.42290   -0.29541
 65 Fe   -0.07216    0.15170   -0.10477
 66 Co    0.29841    0.27430    0.00090
 67 Co   -0.06512   -0.12589    0.09775
 68 Ni   -0.15293   -0.07116    0.06854
 69 Co   -0.26964   -0.01296    0.05992
 70 Cr   -0.00515   -0.19568    0.28669
 71 Cr   -0.15128    0.04529    0.07681
 72 Cr   -0.12784   -0.00759    0.35905
 73 Fe    0.30318    0.11699   -0.14096
 74 Ni    0.16044   -0.06039    0.00064
 75 Co    0.16986   -0.00187   -0.28993
 76 Co   -0.05628    0.06482    0.28259
 77 Ni    0.06068   -0.05438    0.05237
 78 Ni   -0.11761   -0.11128    0.03921
 79 Cr   -0.28268   -0.12722   -0.15342
 80 Ni   -0.03900   -0.06880   -0.06491
 81 Ni    0.08889   -0.04576    0.00504
 82 Fe    0.02374   -0.28232    0.13308
 83 Fe   -0.20449    0.28185   -0.05689
 84 Ni    0.28033    0.14223    0.01477
 85 Co   -0.18388    0.04820   -0.10181
 86 Cr   -0.17826   -0.17926   -0.19895
 87 Co   -0.12306    0.01757   -0.17563
 88 Co   -0.13961   -0.12823    0.25339
 89 Ni   -0.07471    0.01023   -0.11637
 90 Cr   -0.35557    0.35936    0.24699
 91 Fe   -0.21668   -0.02820   -0.02877
 92 Ni   -0.19867    0.19215    0.05793
 93 Ni    0.23479    0.03635    0.05730
 94 Co    0.08487    0.15499    0.20927
 95 Cr    0.31239    0.10932    0.13704
 96 Cr    0.04941    0.09300    0.45199
 97 Fe    0.06568   -0.28954    0.11275
 98 Co   -0.28328    0.09423    0.06837
 99 Fe    0.07880    0.05905    0.11739
100 Fe   -0.03890   -0.10355    0.24048
101 Co   -0.07261    0.20732    0.07359
102 Cr    0.06748   -0.16218    0.21926
103 Co   -0.20411   -0.03162   -0.05057
104 Cr    0.30889    0.21764   -0.26213
105 Fe    0.02344   -0.19661    0.06114
106 Co   -0.01015    0.09747   -0.06133
107 Ni    0.04740   -0.20994   -0.16926

Timing:                              incl.     excl.
-----------------------------------------------------------
Forces:                             21.496    21.496   0.1% |
Hamiltonian:                         0.760     0.007   0.0% |
 Atomic:                             0.361     0.058   0.0% |
  XC Correction:                     0.303     0.303   0.0% |
 Calculate atomic Hamiltonians:      0.256     0.256   0.0% |
 Communicate:                        0.008     0.008   0.0% |
 Initialize Hamiltonian:             0.000     0.000   0.0% |
 Poisson:                            0.001     0.001   0.0% |
 XC 3D grid:                         0.126     0.126   0.0% |
LCAO initialization:               200.239     0.925   0.0% |
 LCAO eigensolver:                  32.138     0.047   0.0% |
  Calculate projections:             0.407     0.407   0.0% |
  DenseAtomicCorrection:             0.601     0.601   0.0% |
  Distribute overlap matrix:         2.452     2.452   0.0% |
  Orbital Layouts:                  19.613    19.613   0.1% |
  Potential matrix:                  7.290     7.290   0.0% |
  Sum over cells:                    1.728     1.728   0.0% |
 LCAO to grid:                     164.971   164.971   0.8% |
 Set positions (LCAO WFS):           2.205     1.163   0.0% |
  Basic WFS set positions:           0.003     0.003   0.0% |
  Basis functions set positions:     0.001     0.001   0.0% |
  P tci:                             0.509     0.509   0.0% |
  ST tci:                            0.243     0.243   0.0% |
  mktci:                             0.286     0.286   0.0% |
PWDescriptor:                        0.077     0.077   0.0% |
SCF-cycle:                       20057.955     1.359   0.0% |
 Davidson:                       19830.226  2961.117  14.6% |-----|
  Apply H:                         127.481   122.402   0.6% |
   HMM T:                            5.080     5.080   0.0% |
  Subspace diag:                  1295.594     0.158   0.0% |
   calc_h_matrix:                  480.772   293.903   1.4% ||
    Apply H:                       186.869   181.270   0.9% |
     HMM T:                          5.599     5.599   0.0% |
   diagonalize:                    289.833   289.833   1.4% ||
   rotate_psi:                     524.832   524.832   2.6% ||
  calc. matrices:                 2449.874  2212.213  10.9% |---|
   Apply H:                        237.661   227.399   1.1% |
    HMM T:                          10.262    10.262   0.1% |
  diagonalize:                   11849.969 11849.969  58.4% |----------------------|
  rotate_psi:                     1146.191  1146.191   5.7% |-|
 Density:                          122.441     0.005   0.0% |
  Atomic density matrices:           3.061     3.061   0.0% |
  Mix:                              46.144    46.144   0.2% |
  Multipole moments:                 0.048     0.048   0.0% |
  Pseudo density:                   73.184    73.177   0.4% |
   Symmetrize density:               0.006     0.006   0.0% |
 Hamiltonian:                       92.407     0.824   0.0% |
  Atomic:                           40.085     6.498   0.0% |
   XC Correction:                   33.588    33.588   0.2% |
  Calculate atomic Hamiltonians:    36.822    36.822   0.2% |
  Communicate:                       0.475     0.475   0.0% |
  Poisson:                           0.086     0.086   0.0% |
  XC 3D grid:                       14.114    14.114   0.1% |
 Orthonormalize:                    11.522     0.002   0.0% |
  calc_s_matrix:                     1.588     1.588   0.0% |
  inverse-cholesky:                  1.019     1.019   0.0% |
  projections:                       6.443     6.443   0.0% |
  rotate_psi_s:                      2.470     2.470   0.0% |
Set symmetry:                        0.001     0.001   0.0% |
Other:                               3.317     3.317   0.0% |
-----------------------------------------------------------
Total:                                     20283.844 100.0%

Date: Sat Apr 15 17:21:17 2023
