
  ___ ___ ___ _ _ _  
 |   |   |_  | | | | 
 | | | | | . | | | | 
 |__ |  _|___|_____|  22.8.0
 |___|_|             

User:   c.zeng@d0008
Date:   Mon Apr 17 05:52:09 2023
Arch:   x86_64
Pid:    228203
CWD:    /home/c.zeng/projects/hea-corrosion/hea-mlp/data-curation/surface-md/dft-jobs/27
Python: 3.8.1
gpaw:   /home/c.zeng/usr/installs/gpaw/source/gpaw-22.8.0/gpaw
_gpaw:  /home/c.zeng/usr/installs/gpaw/source/gpaw-22.8.0/
        _gpaw.cpython-38-x86_64-linux-gnu.so
ase:    /home/c.zeng/.local/lib/python3.8/site-packages/ase-3.22.1-py3.8.egg/ase (version 3.22.1)
numpy:  /home/c.zeng/.local/lib/python3.8/site-packages/numpy (version 1.24.2)
scipy:  /home/c.zeng/.local/lib/python3.8/site-packages/scipy (version 1.10.1)
libxc:  4.2.3
units:  Angstrom and eV
cores: 30
OpenMP: False
OMP_NUM_THREADS: 1

Input parameters:
  convergence: {energy: 0.0001}
  kpts: [2 2 1]
  maxiter: 666
  mode: {ecut: 350.0,
         name: pw}
  occupations: {fixmagmom: False,
                name: fermi-dirac,
                width: 0.1}
  poissonsolver: {dipolelayer: xy}
  spinpol: True
  symmetry: {point_group: False}
  xc: PBE

System changes: positions, numbers, cell, pbc, initial_charges, initial_magmoms 

Initialize ...

species:
  Ni:
    name: Nickel
    id: 0d9f38a9d6e76a2886f07bb4381f212b
    Z: 28.0
    valence: 16
    core: 12
    charge: 0.0
    file: /home/c.zeng/usr/data/gpaw-setups-0.9.20000/Ni.PBE.gz
    compensation charges: {type: gauss,
                           rc: 0.36,
                           lmax: 2}
    cutoffs: {filter: 2.14,
              core: 1.98}
    valence states:
      #              energy  rcut
      - 4s(2.00)    -5.642   1.164
      - 3p(6.00)   -71.394   1.207
      - 4p(0.00)    -1.226   1.207
      - 3d(8.00)    -8.875   1.138
      -  s          21.570   1.164
      -  d          18.337   1.138
  
    # Using partial waves for Ni as LCAO basis

  Fe:
    name: Iron
    id: 37abbd8d6c3c35915a9b583b742da910
    Z: 26.0
    valence: 8
    core: 18
    charge: 0.0
    file: /home/c.zeng/usr/data/gpaw-setups-0.9.20000/Fe.PBE.gz
    compensation charges: {type: gauss,
                           rc: 0.33,
                           lmax: 2}
    cutoffs: {filter: 2.06,
              core: 2.67}
    valence states:
      #              energy  rcut
      - 4s(2.00)    -5.291   1.164
      - 4p(0.00)    -1.326   1.058
      - 3d(6.00)    -7.505   1.058
      -  s          21.920   1.164
      -  p          25.885   1.058
      -  d          19.706   1.058
  
    # Using partial waves for Fe as LCAO basis

  Co:
    name: Cobalt
    id: 339d20d5b0b93d2de9531a1bee871d91
    Z: 27.0
    valence: 9
    core: 18
    charge: 0.0
    file: /home/c.zeng/usr/data/gpaw-setups-0.9.20000/Co.PBE.gz
    compensation charges: {type: gauss,
                           rc: 0.32,
                           lmax: 2}
    cutoffs: {filter: 1.87,
              core: 2.55}
    valence states:
      #              energy  rcut
      - 4s(2.00)    -5.469   1.005
      - 4p(0.00)    -1.277   1.058
      - 3d(7.00)    -8.205   1.005
      -  s          21.742   1.005
      -  p          25.934   1.058
      -  d          19.007   1.005
  
    # Using partial waves for Co as LCAO basis

  Cr:
    name: Chromium
    id: 33f258bda2ca9f93018e70263a35547b
    Z: 24.0
    valence: 6
    core: 18
    charge: 0.0
    file: /home/c.zeng/usr/data/gpaw-setups-0.9.20000/Cr.PBE.gz
    compensation charges: {type: gauss,
                           rc: 0.35,
                           lmax: 2}
    cutoffs: {filter: 2.14,
              core: 3.04}
    valence states:
      #              energy  rcut
      - 4s(1.00)    -4.007   1.164
      - 4p(0.00)    -0.989   1.217
      - 3d(5.00)    -2.913   1.111
      -  s          23.205   1.164
      -  p          26.223   1.217
      -  d          24.299   1.111
  
    # Using partial waves for Cr as LCAO basis

  Al:
    name: Aluminium
    id: 0292cae29f5d6237e50f6abdd43a7bdd
    Z: 13.0
    valence: 3
    core: 10
    charge: 0.0
    file: /home/c.zeng/usr/data/gpaw-setups-0.9.20000/Al.PBE.gz
    compensation charges: {type: gauss,
                           rc: 0.34,
                           lmax: 2}
    cutoffs: {filter: 1.91,
              core: 2.36}
    valence states:
      #              energy  rcut
      - 3s(2.00)    -7.753   1.085
      - 3p(1.00)    -2.712   1.085
      -  s          19.459   1.085
      -  p          24.499   1.085
      -  d           0.000   1.085
  
    # Using partial waves for Al as LCAO basis

Reference energy: -4275894.041763  # eV

Spin-polarized calculation.
Magnetic moment: 165.900000

Convergence criteria:
 Maximum [total energy] change in last 3 cyles: 0.0001 eV / electron
 Maximum integral of absolute [dens]ity change: 0.0001 electrons / valence electron
 Maximum integral of absolute [eigenst]ate change: 4e-08 eV^2 / valence electron
 Maximum number of scf [iter]ations: 666
 (Square brackets indicate name in SCF output, whereas a 'c' in
 the SCF output indicates the quantity has converged.)

Symmetries present (total): 1

  ( 1  0  0)
  ( 0  1  0)
  ( 0  0  1)

4 k-points: 2 x 2 x 1 Monkhorst-Pack grid
2 k-points in the irreducible part of the Brillouin zone
       k-points in crystal coordinates                weights
   0:     0.25000000   -0.25000000    0.00000000          2/4
   1:     0.25000000    0.25000000    0.00000000          2/4

Wave functions: Plane wave expansion
  Cutoff energy: 350.000 eV
  Number of coefficients (min, max): 58901, 58943
  Pulay-stress correction: 0.000000 eV/Ang^3 (de/decut=0.000000)
  Using FFTW library
  ScaLapack parameters: grid=1x1, blocksize=None
  Wavefunction extrapolation:
    Improved wavefunction reuse through dual PAW basis 

Occupation numbers: Fermi-Dirac:
  width: 0.1000  # eV
 

Eigensolver
   Davidson(niter=2) 

Densities:
  Coarse grid: 54*54*128 grid
  Fine grid: 108*108*256 grid
  Total Charge: 0.000000 

Density mixing:
  Method: difference
  Backend: pulay
  Linear mixing parameter: 0.05
  old densities: 5
  Damping of long wavelength oscillations: 50 

Hamiltonian:
  XC and Coulomb potentials evaluated on a 108*108*256 grid
  Using the PBE Exchange-Correlation functional
  External potential:
    NoExternalPotential
 

XC parameters: PBE with 2 nearest neighbor stencil

Memory estimate:
  Process memory now: 368.55 MiB
  Calculator: 2335.53 MiB
    Density: 17.84 MiB
      Arrays: 6.75 MiB
      Localized functions: 8.39 MiB
      Mixer: 2.70 MiB
    Hamiltonian: 5.27 MiB
      Arrays: 5.01 MiB
      XC: 0.00 MiB
      Poisson: 0.00 MiB
      vbar: 0.25 MiB
    Wavefunctions: 2312.43 MiB
      Arrays psit_nG: 1458.82 MiB
      Eigensolver: 834.29 MiB
      Projections: 3.66 MiB
      Projectors: 1.14 MiB
      PW-descriptor: 14.51 MiB

Total number of cores used: 30
Parallelization over k-points: 2
Domain decomposition: 1 x 3 x 5

Number of atoms: 125
Number of atomic orbitals: 1185
Number of bands in calculation: 811
Number of valence electrons: 1179
Bands to converge: occupied

... initialized

Initializing position-dependent things.

Density initialized from atomic densities
Creating initial wave functions:
  811 bands from LCAO basis set

                                                                   
                                                                   
                                                                   
                                                                   
                              Co                     Ni            
                                                                   
                                Ni   Co    Cr    Co    Cr          
                                 Cr   Cr           Fe    Fe        
                          Cr    Ni    Co     Cr   Fe               
                             Cr   Cr    Cr    Ni    Fe             
                Co   Cr     Coo   Fe    Al            Ni           
             Fe        Ni     Fe   CFe    Ni    Cr                 
           Co     CNi   CCr   FeCr  Nio          Co                
                   Fe    ACr   Coe   Fe     Co                     
                    Fe     Ni    Ni   CNi   CFe  NCr               
               Ni     Fe   CNi   Feo   Ni                          
               Ni     Fe    Cr    Fe   NCr    Cr   Coo             
                  Ni   Cr   CoFe  CoFe  NiCr   NNi                 
            Co         Co     Fe    Co    Fe                       
            Fe    Cr    CrNi   Ni               Cr                 
                   Al           Co   Crr    Ni                     
        Al    Co     Ni         Co                                 
               Ni    Fe     Fe    Cr    Co                         
           Fe    Co                Ni                              
                       Fe    Co                                    
                                                                   
                                                                   
                                                                   
                                                                   

Positions:
   0 Ni    11.456161    0.233077    9.933508    ( 0.0000,  0.0000,  1.5000)
   1 Fe     1.466188    0.296786    9.961397    ( 0.0000,  0.0000,  2.0000)
   2 Co     3.910478    0.365460    9.951379    ( 0.0000,  0.0000,  2.1000)
   3 Fe     6.338512    0.440049    9.360382    ( 0.0000,  0.0000,  2.0000)
   4 Co     8.928374    0.422909    9.420648    ( 0.0000,  0.0000,  2.1000)
   5 Co    12.801431    2.591900    9.630056    ( 0.0000,  0.0000,  2.1000)
   6 Ni     2.541396    2.666333   10.106627    ( 0.0000,  0.0000,  1.5000)
   7 Fe     5.319197    2.348160   10.130426    ( 0.0000,  0.0000,  2.0000)
   8 Fe     7.920396    2.524496    9.711400    ( 0.0000,  0.0000,  2.0000)
   9 Cr    10.306465    2.357709    9.752074    ( 0.0000,  0.0000,  0.0000)
  10 Ni    14.010778    4.631780   10.141680    ( 0.0000,  0.0000,  1.5000)
  11 Al     3.932138    4.657782    9.958372    ( 0.0000,  0.0000,  0.0000)
  12 Ni     6.711788    4.816979   10.645343    ( 0.0000,  0.0000,  1.5000)
  13 Co     9.074469    4.642923   10.352680    ( 0.0000,  0.0000,  2.1000)
  14 Cr    11.534698    4.663590   10.225685    ( 0.0000,  0.0000,  0.0000)
  15 Cr    15.020574    7.017872   10.283276    ( 0.0000,  0.0000,  0.0000)
  16 Fe     4.976831    6.858778   10.448391    ( 0.0000,  0.0000,  2.0000)
  17 Fe     7.535981    6.968474   10.936935    ( 0.0000,  0.0000,  2.0000)
  18 Cr    10.036398    6.819039   10.795726    ( 0.0000,  0.0000,  0.0000)
  19 Fe    12.744838    6.845484   10.745459    ( 0.0000,  0.0000,  2.0000)
  20 Co    16.199867    9.050639   10.933328    ( 0.0000,  0.0000,  2.1000)
  21 Co     6.364927    9.138821   10.704700    ( 0.0000,  0.0000,  2.1000)
  22 Co     8.792843    9.001969   10.706311    ( 0.0000,  0.0000,  2.1000)
  23 Ni    11.379367    9.041604   10.679189    ( 0.0000,  0.0000,  1.5000)
  24 Ni    13.834380    9.319662   10.537169    ( 0.0000,  0.0000,  1.5000)
  25 Al     0.205826    0.319428   12.012774    ( 0.0000,  0.0000,  0.0000)
  26 Co     2.623610    0.459675   12.011663    ( 0.0000,  0.0000,  2.1000)
  27 Ni     5.628495    0.311307   11.880466    ( 0.0000,  0.0000,  1.5000)
  28 Ni    14.219880   11.484779   11.635400    ( 0.0000,  0.0000,  1.5000)
  29 Co    10.263522    0.677751   11.940337    ( 0.0000,  0.0000,  2.1000)
  30 Fe     1.400949    2.466897   11.960363    ( 0.0000,  0.0000,  2.0000)
  31 Cr     3.893442    2.703850   12.202648    ( 0.0000,  0.0000,  0.0000)
  32 Cr     6.481930    2.714523   12.201747    ( 0.0000,  0.0000,  0.0000)
  33 Ni     9.054475    2.801601   12.084255    ( 0.0000,  0.0000,  1.5000)
  34 Cr    11.583617    2.615978   11.766176    ( 0.0000,  0.0000,  0.0000)
  35 Ni    15.457771    5.112678   12.380149    ( 0.0000,  0.0000,  1.5000)
  36 Cr     5.382296    5.094839   12.676388    ( 0.0000,  0.0000,  0.0000)
  37 Fe     8.017365    5.023972   12.526661    ( 0.0000,  0.0000,  2.0000)
  38 Fe    10.440115    5.060439   12.353793    ( 0.0000,  0.0000,  2.0000)
  39 Cr    12.962643    4.685365   12.569184    ( 0.0000,  0.0000,  0.0000)
  40 Co    16.395519    7.014052   12.476841    ( 0.0000,  0.0000,  2.1000)
  41 Co     6.564418    7.065957   13.201570    ( 0.0000,  0.0000,  2.1000)
  42 Co     9.104267    7.356412   13.070470    ( 0.0000,  0.0000,  2.1000)
  43 Ni    11.459276    7.164052   12.641720    ( 0.0000,  0.0000,  1.5000)
  44 Cr    14.140153    6.914077   12.729387    ( 0.0000,  0.0000,  0.0000)
  45 Al     4.955829    9.194047   13.281417    ( 0.0000,  0.0000,  0.0000)
  46 Fe     7.925195    9.202952   13.329544    ( 0.0000,  0.0000,  2.0000)
  47 Cr    10.248464    9.472154   12.830949    ( 0.0000,  0.0000,  0.0000)
  48 Co    12.850181    9.116362   13.144674    ( 0.0000,  0.0000,  2.1000)
  49 Cr    15.076615    9.296169   12.895993    ( 0.0000,  0.0000,  0.0000)
  50 Co     1.685924    0.853660   14.183210    ( 0.0000,  0.0000,  2.1000)
  51 Ni     4.059825    1.209567   14.396522    ( 0.0000,  0.0000,  1.5000)
  52 Co     6.630600    0.653801   14.010348    ( 0.0000,  0.0000,  2.1000)
  53 Fe     9.093021    0.834731   13.995066    ( 0.0000,  0.0000,  2.0000)
  54 Co    11.565077    0.992068   14.181805    ( 0.0000,  0.0000,  2.1000)
  55 Ni     2.556777    3.364131   13.973666    ( 0.0000,  0.0000,  1.5000)
  56 Fe     5.345588    3.176486   14.430372    ( 0.0000,  0.0000,  2.0000)
  57 Cr     7.869142    3.137025   14.216938    ( 0.0000,  0.0000,  0.0000)
  58 Fe    10.384899    3.196865   14.175974    ( 0.0000,  0.0000,  2.0000)
  59 Cr    12.890783    3.156008   14.683095    ( 0.0000,  0.0000,  0.0000)
  60 Fe     4.150235    5.446548   14.777033    ( 0.0000,  0.0000,  2.0000)
  61 Ni     6.622431    5.528109   14.809483    ( 0.0000,  0.0000,  1.5000)
  62 Ni     9.243943    5.486391   14.743748    ( 0.0000,  0.0000,  1.5000)
  63 Ni    11.778972    5.460976   14.480618    ( 0.0000,  0.0000,  1.5000)
  64 Fe    14.083669    5.358010   14.583600    ( 0.0000,  0.0000,  2.0000)
  65 Ni     5.307197    7.710429   15.273738    ( 0.0000,  0.0000,  1.5000)
  66 Cr     8.103461    7.586537   15.164665    ( 0.0000,  0.0000,  0.0000)
  67 Co    10.399300    7.795538   14.941268    ( 0.0000,  0.0000,  2.1000)
  68 Al    13.010858    7.537904   14.929878    ( 0.0000,  0.0000,  0.0000)
  69 Co    15.363962    7.727463   14.952230    ( 0.0000,  0.0000,  2.1000)
  70 Co     6.625575    9.624767   15.498404    ( 0.0000,  0.0000,  2.1000)
  71 Cr     9.041866   10.019187   15.192566    ( 0.0000,  0.0000,  0.0000)
  72 Ni    11.818625    9.836284   15.238932    ( 0.0000,  0.0000,  1.5000)
  73 Fe    14.179169    9.748491   15.171986    ( 0.0000,  0.0000,  2.0000)
  74 Ni    16.690381   10.040163   15.602261    ( 0.0000,  0.0000,  1.5000)
  75 Ni    12.723824    1.214032   16.329228    ( 0.0000,  0.0000,  1.5000)
  76 Ni     2.814758    1.459829   16.149460    ( 0.0000,  0.0000,  1.5000)
  77 Fe     5.630897    1.485947   16.226873    ( 0.0000,  0.0000,  2.0000)
  78 Ni     8.141240    1.287042   16.150322    ( 0.0000,  0.0000,  1.5000)
  79 Fe    10.462175    1.452944   16.297442    ( 0.0000,  0.0000,  2.0000)
  80 Co    14.016387    3.778165   16.534204    ( 0.0000,  0.0000,  2.1000)
  81 Fe     3.917182    3.665557   16.204110    ( 0.0000,  0.0000,  2.0000)
  82 Cr     6.771138    3.862901   16.355995    ( 0.0000,  0.0000,  0.0000)
  83 Co     8.888852    3.697986   16.448254    ( 0.0000,  0.0000,  2.1000)
  84 Fe    11.474124    3.496587   16.921697    ( 0.0000,  0.0000,  2.0000)
  85 Cr    15.298216    6.075529   16.774848    ( 0.0000,  0.0000,  0.0000)
  86 Ni     5.125724    6.316104   16.922669    ( 0.0000,  0.0000,  1.5000)
  87 Fe     7.743597    5.943900   16.840169    ( 0.0000,  0.0000,  2.0000)
  88 Fe    10.299529    6.179738   16.645619    ( 0.0000,  0.0000,  2.0000)
  89 Ni    12.781467    5.955749   16.744978    ( 0.0000,  0.0000,  1.5000)
  90 Fe    16.464436    8.285242   17.341027    ( 0.0000,  0.0000,  2.0000)
  91 Cr     6.888219    8.123714   17.401428    ( 0.0000,  0.0000,  0.0000)
  92 Cr     9.160213    8.028486   17.465105    ( 0.0000,  0.0000,  0.0000)
  93 Cr    11.375631    8.421901   17.165951    ( 0.0000,  0.0000,  0.0000)
  94 Ni    13.930533    8.185689   17.178640    ( 0.0000,  0.0000,  1.5000)
  95 Fe    17.820873   10.407058   17.878945    ( 0.0000,  0.0000,  2.0000)
  96 Cr     7.811047   10.260092   17.793999    ( 0.0000,  0.0000,  0.0000)
  97 Cr    10.152063   10.655307   17.421960    ( 0.0000,  0.0000,  0.0000)
  98 Al    12.942104   10.442857   17.306636    ( 0.0000,  0.0000,  0.0000)
  99 Fe    15.485426   10.376121   17.602287    ( 0.0000,  0.0000,  2.0000)
 100 Co     6.521985   10.657383   20.065390    ( 0.0000,  0.0000,  2.1000)
 101 Fe     2.560997    0.371041   19.617372    ( 0.0000,  0.0000,  2.0000)
 102 Ni     5.132762    0.004428   19.497764    ( 0.0000,  0.0000,  1.5000)
 103 Cr     7.656432   -0.240503   19.442359    ( 0.0000,  0.0000,  0.0000)
 104 Ni    16.167034   11.008633   19.895389    ( 0.0000,  0.0000,  1.5000)
 105 Co     1.289489    1.845684   18.180014    ( 0.0000,  0.0000,  2.1000)
 106 Co     3.853288    1.991725   18.230239    ( 0.0000,  0.0000,  2.1000)
 107 Cr     6.491752    2.063261   18.330268    ( 0.0000,  0.0000,  0.0000)
 108 Fe     9.109954    2.036795   18.605262    ( 0.0000,  0.0000,  2.0000)
 109 Ni    11.398100    1.738530   18.743877    ( 0.0000,  0.0000,  1.5000)
 110 Co     2.467309    4.178589   18.570926    ( 0.0000,  0.0000,  2.1000)
 111 Cr     4.825020    4.046694   18.594533    ( 0.0000,  0.0000,  0.0000)
 112 Co     7.371618    4.276060   18.505442    ( 0.0000,  0.0000,  2.1000)
 113 Fe     9.838291    4.611058   18.421746    ( 0.0000,  0.0000,  2.0000)
 114 Al    12.374190    4.309660   18.917862    ( 0.0000,  0.0000,  0.0000)
 115 Fe    16.115129    6.205201   19.018048    ( 0.0000,  0.0000,  2.0000)
 116 Cr     6.198527    6.183305   19.460399    ( 0.0000,  0.0000,  0.0000)
 117 Ni     8.624350    6.505046   18.936956    ( 0.0000,  0.0000,  1.5000)
 118 Co    11.238684    6.469348   19.004278    ( 0.0000,  0.0000,  2.1000)
 119 Cr    13.757948    6.442037   19.089813    ( 0.0000,  0.0000,  0.0000)
 120 Cr    17.439184    8.697241   19.390016    ( 0.0000,  0.0000,  0.0000)
 121 Ni     7.895730    8.701506   19.727006    ( 0.0000,  0.0000,  1.5000)
 122 Co    10.110349    8.418765   19.773794    ( 0.0000,  0.0000,  2.1000)
 123 Cr    12.570172    8.498326   19.495287    ( 0.0000,  0.0000,  0.0000)
 124 Co    15.083595    8.604716   19.300448    ( 0.0000,  0.0000,  2.1000)

Unit cell:
           periodic     x           y           z      points  spacing
  1. axis:    yes   12.474800    0.000000    0.000000    54     0.2001
  2. axis:    yes    6.246240   10.818800    0.000000    54     0.2003
  3. axis:    no     0.000000    0.000000   29.353100   128     0.2293

  Lengths:  12.474800  12.492476  29.353100
  Angles:   90.000000  90.000000  59.999988

Effective grid spacing dv^(1/3) = 0.2198

     iter     time        total  log10-change:  magmom
                         energy  eigst   dens
iter:   1 05:59:03 -1220.541018                  +166.2219
iter:   2 06:01:26 -1054.641690  -0.10  -1.10    +88.2232
iter:   3 06:03:51 -1148.156167  -0.54  -1.14    +75.3500
iter:   4 06:06:15 -1831.602160  +0.09  -1.06    +68.5034
iter:   5 06:08:38 -1028.605984  -0.40  -0.80    +51.0345
iter:   6 06:11:03  -996.437981  -1.16  -1.22    +42.5334
iter:   7 06:13:27  -974.084672  -1.58  -1.26    +43.0719
iter:   8 06:15:51  -962.166838  -1.68  -1.33    +44.9488
iter:   9 06:18:15  -964.307612  -1.19  -1.37    +47.9848
iter:  10 06:20:40  -954.950794  -1.58  -1.39    +50.4725
iter:  11 06:23:04 -1046.529297  -1.40  -1.47    +54.4528
iter:  12 06:25:27 -1063.988833  -1.16  -1.19    +53.6334
iter:  13 06:27:51  -974.266498  -1.41  -1.18    +47.8165
iter:  14 06:30:15  -953.505523  -2.07  -1.45    +47.9716
iter:  15 06:32:39  -952.366328  -2.13  -1.58    +52.0305
iter:  16 06:35:03  -948.179628  -2.53  -1.60    +54.3813
iter:  17 06:37:27  -993.790820  -1.90  -1.63    +58.9160
iter:  18 06:39:51 -1079.985976  -1.29  -1.33    +59.3718
iter:  19 06:42:12  -945.644756  -1.72  -1.15    +56.7890
iter:  20 06:44:33  -947.084356  -2.36  -1.72    +58.5223
iter:  21 06:46:53  -945.548131  -2.59  -1.70    +62.7201
iter:  22 06:49:12  -945.680021  -2.55  -1.79    +66.0068
iter:  23 06:51:33  -977.381773  -1.87  -1.80    +67.2792
iter:  24 06:53:54  -951.906954  -2.02  -1.46    +67.7228
iter:  25 06:56:14  -947.024403  -2.36  -1.75    +67.7229
iter:  26 06:58:35  -950.066489  -2.23  -1.93    +70.2527
iter:  27 07:00:55  -946.170718  -2.70  -1.87    +70.7829
iter:  28 07:03:16  -948.029524  -2.70  -2.10    +72.4219
iter:  29 07:05:36  -953.468290  -2.45  -1.98    +72.7966
iter:  30 07:07:56  -947.749451  -2.62  -1.80    +73.8753
iter:  31 07:10:17  -948.269821  -3.19  -2.08    +74.3526
iter:  32 07:12:37  -947.778157  -3.23  -2.09    +75.0826
iter:  33 07:14:58  -948.377400  -3.06  -2.20    +75.9591
iter:  34 07:17:19  -948.184008  -3.01  -2.22    +76.3721
iter:  35 07:19:41  -948.603938  -3.14  -2.37    +76.3542
iter:  36 07:22:02  -948.798063  -3.30  -2.35    +76.2873
iter:  37 07:24:24  -948.616426  -3.35  -2.31    +76.5739
iter:  38 07:26:46  -948.698566  -3.56  -2.45    +76.5093
iter:  39 07:29:08  -948.794900  -3.76  -2.48    +76.6939
iter:  40 07:31:30  -949.245036  -3.45  -2.52    +76.8594
iter:  41 07:33:52  -948.763226  -3.69  -2.42    +76.6652
iter:  42 07:36:14  -949.137335  -3.69  -2.55    +76.6624
iter:  43 07:38:36  -949.648346  -3.19  -2.37    +76.8432
iter:  44 07:40:58  -949.210073  -3.55  -2.29    +76.8690
iter:  45 07:43:20  -949.208935  -3.49  -2.52    +77.0912
iter:  46 07:45:43  -949.161112c -3.36  -2.62    +77.1331
iter:  47 07:48:06  -949.217165c -3.70  -2.61    +76.8317
iter:  48 07:50:27  -949.282222  -3.88  -2.60    +76.6988
iter:  49 07:52:49  -949.983249  -3.58  -2.61    +76.5195
iter:  50 07:55:11  -949.409030  -3.57  -2.29    +76.3265
iter:  51 07:57:33  -949.542219  -3.58  -2.57    +76.4368
iter:  52 07:59:55  -949.370490  -3.56  -2.50    +76.3282
iter:  53 08:02:17  -949.380400  -3.75  -2.70    +75.8717
iter:  54 08:04:39  -949.362676c -4.18  -2.74    +75.8026
iter:  55 08:07:01  -949.367279c -4.19  -2.83    +75.6747
iter:  56 08:09:23  -949.405196c -4.17  -2.96    +75.6000
iter:  57 08:11:45  -949.411611c -4.44  -2.94    +75.4866
iter:  58 08:14:08  -949.445481c -4.43  -3.05    +75.4123
iter:  59 08:16:31  -949.531919  -4.31  -3.08    +75.2670
iter:  60 08:18:53  -949.489286c -4.75  -2.81    +75.2699
iter:  61 08:21:15  -949.522360c -4.58  -3.08    +75.2069
iter:  62 08:23:38  -949.592696c -4.09  -3.07    +75.1401
iter:  63 08:26:00  -949.557457c -5.06  -2.99    +75.1680
iter:  64 08:28:23  -949.599000c -4.71  -3.03    +75.1828
iter:  65 08:30:45  -949.645737c -4.62  -2.95    +75.2189
iter:  66 08:33:07  -949.739873  -4.09  -2.77    +75.1197
iter:  67 08:35:29  -949.658541c -4.50  -2.70    +75.2112
iter:  68 08:37:52  -949.671151c -4.08  -2.94    +75.1632
iter:  69 08:40:14  -949.728394c -4.17  -2.90    +75.0432
iter:  70 08:42:36  -949.721021c -4.31  -2.83    +74.9868
iter:  71 08:44:59  -950.036685  -3.99  -2.86    +74.8157
iter:  72 08:47:21  -949.812107  -4.03  -2.47    +74.8164
iter:  73 08:49:43  -949.787261  -4.03  -2.79    +74.7822
iter:  74 08:52:05  -949.835782c -4.38  -2.94    +74.7909
iter:  75 08:54:27  -949.862753c -4.58  -2.82    +74.7736
iter:  76 08:56:48  -949.903283c -4.02  -2.80    +74.7457
iter:  77 08:59:10  -949.911975c -4.60  -2.83    +74.8163
iter:  78 09:01:32  -950.170117  -3.89  -2.87    +74.8229
iter:  79 09:03:54  -949.922733  -4.08  -2.51    +74.8844
iter:  80 09:06:15  -949.956377  -4.26  -2.86    +75.0706
iter:  81 09:08:37  -949.947924c -4.04  -2.79    +75.0648
iter:  82 09:10:58  -950.229806  -3.81  -2.76    +74.9927
iter:  83 09:13:20  -949.919545  -4.35  -2.44    +74.7747
iter:  84 09:15:41  -949.943394  -4.24  -2.81    +74.6986
iter:  85 09:18:03  -949.899170c -4.33  -2.82    +74.7246
iter:  86 09:20:25  -949.926113c -4.49  -2.93    +74.7297
iter:  87 09:22:47  -949.926179c -4.65  -2.81    +74.7611
iter:  88 09:25:09  -949.980064c -4.00  -2.81    +74.7241
iter:  89 09:27:31  -949.921579c -4.13  -2.76    +74.6637
iter:  90 09:29:54  -949.924892c -4.34  -2.84    +74.7591
iter:  91 09:32:16  -949.879191c -4.33  -2.84    +74.7942
iter:  92 09:34:38  -950.093954  -4.06  -3.13    +74.7557
iter:  93 09:37:00  -949.880734  -4.38  -2.59    +74.7354
iter:  94 09:39:22  -949.878233  -4.91  -3.16    +74.8759
iter:  95 09:41:44  -949.882380c -5.00  -3.20    +74.8150
iter:  96 09:44:07  -949.876079c -5.54  -3.23    +74.7872
iter:  97 09:46:29  -949.878568c -5.25  -3.38    +74.7130
iter:  98 09:48:51  -949.878385c -5.06  -3.38    +74.6538
iter:  99 09:51:14  -949.879518c -5.78  -3.36    +74.6531
iter: 100 09:53:36  -949.882870c -5.23  -3.43    +74.6491
iter: 101 09:55:59  -949.892732c -5.01  -3.26    +74.6583
iter: 102 09:58:22  -949.879006c -5.34  -3.20    +74.6247
iter: 103 10:00:44  -949.883881c -5.45  -3.49    +74.6499
iter: 104 10:03:07  -949.878802c -5.51  -3.38    +74.6368
iter: 105 10:05:29  -949.879875c -5.79  -3.67    +74.6180
iter: 106 10:07:51  -949.877490c -5.99  -3.59    +74.6059
iter: 107 10:10:14  -949.885116c -5.73  -3.83    +74.5915
iter: 108 10:12:36  -949.877830c -5.91  -3.37    +74.5925
iter: 109 10:14:59  -949.880156c -6.25  -3.86    +74.6106
iter: 110 10:17:21  -949.878392c -6.73  -3.62    +74.6047
iter: 111 10:19:43  -949.878341c -6.74  -3.90    +74.6044
iter: 112 10:22:06  -949.877784c -6.74  -3.95    +74.6056
iter: 113 10:24:29  -949.878207c -6.63  -4.15c   +74.6062
iter: 114 10:26:51  -949.877755c -6.65  -4.07c   +74.6181
iter: 115 10:29:13  -949.879609c -6.42  -4.00    +74.6205
iter: 116 10:31:41  -949.877861c -6.58  -3.78    +74.6180
iter: 117 10:34:08  -949.878126c -6.77  -4.20c   +74.6239
iter: 118 10:36:35  -949.878187c -6.88  -4.29c   +74.6310
iter: 119 10:39:02  -949.877871c -7.06  -4.30c   +74.6288
iter: 120 10:41:29  -949.878111c -7.17  -4.29c   +74.6287
iter: 121 10:43:57  -949.877802c -7.22  -4.35c   +74.6326
iter: 122 10:46:25  -949.878585c -7.07  -4.25c   +74.6339
iter: 123 10:48:52  -949.878001c -7.31  -4.09c   +74.6315
iter: 124 10:51:19  -949.877933c -7.32  -4.58c   +74.6318
iter: 125 10:53:47  -949.877994c -7.56c -4.53c   +74.6338

Converged after 125 iterations.

Dipole moment: (-24.551839, -55.724643, 0.071262) |e|*Ang

Total magnetic moment: (0.000000, 0.000000, 74.633795)
Local magnetic moments:
   0 Ni ( 0.000000,  0.000000,  0.383344)
   1 Fe ( 0.000000,  0.000000,  2.707483)
   2 Co ( 0.000000,  0.000000,  1.727063)
   3 Fe ( 0.000000,  0.000000,  2.957940)
   4 Co ( 0.000000,  0.000000,  1.677286)
   5 Co ( 0.000000,  0.000000,  1.395374)
   6 Ni ( 0.000000,  0.000000,  0.308409)
   7 Fe ( 0.000000,  0.000000,  2.357685)
   8 Fe ( 0.000000,  0.000000,  2.781244)
   9 Cr ( 0.000000,  0.000000, -2.483776)
  10 Ni ( 0.000000,  0.000000,  0.081252)
  11 Al ( 0.000000,  0.000000, -0.022056)
  12 Ni ( 0.000000,  0.000000,  0.426124)
  13 Co ( 0.000000,  0.000000,  1.241890)
  14 Cr ( 0.000000,  0.000000, -2.451567)
  15 Cr ( 0.000000,  0.000000, -2.644078)
  16 Fe ( 0.000000,  0.000000,  2.604744)
  17 Fe ( 0.000000,  0.000000,  2.684337)
  18 Cr ( 0.000000,  0.000000, -2.467143)
  19 Fe ( 0.000000,  0.000000,  2.198675)
  20 Co ( 0.000000,  0.000000,  1.094422)
  21 Co ( 0.000000,  0.000000,  1.515162)
  22 Co ( 0.000000,  0.000000,  1.521936)
  23 Ni ( 0.000000,  0.000000,  0.294958)
  24 Ni ( 0.000000,  0.000000,  0.415536)
  25 Al ( 0.000000,  0.000000, -0.061583)
  26 Co ( 0.000000,  0.000000,  1.390283)
  27 Ni ( 0.000000,  0.000000,  0.429795)
  28 Ni ( 0.000000,  0.000000,  0.503901)
  29 Co ( 0.000000,  0.000000,  1.288681)
  30 Fe ( 0.000000,  0.000000,  2.146264)
  31 Cr ( 0.000000,  0.000000, -2.399601)
  32 Cr ( 0.000000,  0.000000,  1.911097)
  33 Ni ( 0.000000,  0.000000,  0.363560)
  34 Cr ( 0.000000,  0.000000,  1.241515)
  35 Ni ( 0.000000,  0.000000,  0.093702)
  36 Cr ( 0.000000,  0.000000, -1.856998)
  37 Fe ( 0.000000,  0.000000,  2.486231)
  38 Fe ( 0.000000,  0.000000,  2.061492)
  39 Cr ( 0.000000,  0.000000, -1.801691)
  40 Co ( 0.000000,  0.000000,  0.856172)
  41 Co ( 0.000000,  0.000000,  1.204090)
  42 Co ( 0.000000,  0.000000,  0.968475)
  43 Ni ( 0.000000,  0.000000,  0.297719)
  44 Cr ( 0.000000,  0.000000,  1.134528)
  45 Al ( 0.000000,  0.000000, -0.023629)
  46 Fe ( 0.000000,  0.000000,  2.031897)
  47 Cr ( 0.000000,  0.000000, -2.063947)
  48 Co ( 0.000000,  0.000000,  0.847085)
  49 Cr ( 0.000000,  0.000000, -1.767301)
  50 Co ( 0.000000,  0.000000,  1.121841)
  51 Ni ( 0.000000,  0.000000,  0.369735)
  52 Co ( 0.000000,  0.000000,  1.450721)
  53 Fe ( 0.000000,  0.000000,  2.518489)
  54 Co ( 0.000000,  0.000000,  1.374361)
  55 Ni ( 0.000000,  0.000000,  0.165812)
  56 Fe ( 0.000000,  0.000000,  2.000454)
  57 Cr ( 0.000000,  0.000000, -2.049718)
  58 Fe ( 0.000000,  0.000000,  2.665747)
  59 Cr ( 0.000000,  0.000000, -2.219871)
  60 Fe ( 0.000000,  0.000000,  2.296055)
  61 Ni ( 0.000000,  0.000000,  0.237892)
  62 Ni ( 0.000000,  0.000000,  0.421600)
  63 Ni ( 0.000000,  0.000000,  0.246051)
  64 Fe ( 0.000000,  0.000000,  1.758247)
  65 Ni ( 0.000000,  0.000000,  0.396117)
  66 Cr ( 0.000000,  0.000000, -0.863570)
  67 Co ( 0.000000,  0.000000,  1.094936)
  68 Al ( 0.000000,  0.000000, -0.029458)
  69 Co ( 0.000000,  0.000000,  1.161802)
  70 Co ( 0.000000,  0.000000,  1.122535)
  71 Cr ( 0.000000,  0.000000, -0.272793)
  72 Ni ( 0.000000,  0.000000,  0.268485)
  73 Fe ( 0.000000,  0.000000,  2.276573)
  74 Ni ( 0.000000,  0.000000,  0.518195)
  75 Ni ( 0.000000,  0.000000,  0.519091)
  76 Ni ( 0.000000,  0.000000,  0.351819)
  77 Fe ( 0.000000,  0.000000,  2.170884)
  78 Ni ( 0.000000,  0.000000,  0.447997)
  79 Fe ( 0.000000,  0.000000,  2.541031)
  80 Co ( 0.000000,  0.000000,  1.388575)
  81 Fe ( 0.000000,  0.000000,  2.442657)
  82 Cr ( 0.000000,  0.000000, -0.324622)
  83 Co ( 0.000000,  0.000000,  1.039956)
  84 Fe ( 0.000000,  0.000000,  2.529792)
  85 Cr ( 0.000000,  0.000000, -1.988814)
  86 Ni ( 0.000000,  0.000000,  0.240240)
  87 Fe ( 0.000000,  0.000000,  2.025569)
  88 Fe ( 0.000000,  0.000000,  2.380183)
  89 Ni ( 0.000000,  0.000000,  0.167278)
  90 Fe ( 0.000000,  0.000000,  2.201731)
  91 Cr ( 0.000000,  0.000000, -0.057792)
  92 Cr ( 0.000000,  0.000000,  0.332676)
  93 Cr ( 0.000000,  0.000000, -1.738485)
  94 Ni ( 0.000000,  0.000000,  0.137229)
  95 Fe ( 0.000000,  0.000000,  2.290744)
  96 Cr ( 0.000000,  0.000000, -0.841381)
  97 Cr ( 0.000000,  0.000000,  1.028970)
  98 Al ( 0.000000,  0.000000, -0.026131)
  99 Fe ( 0.000000,  0.000000,  2.209493)
 100 Co ( 0.000000,  0.000000,  1.716052)
 101 Fe ( 0.000000,  0.000000,  2.636395)
 102 Ni ( 0.000000,  0.000000, -0.004682)
 103 Cr ( 0.000000,  0.000000, -2.506803)
 104 Ni ( 0.000000,  0.000000,  0.360150)
 105 Co ( 0.000000,  0.000000,  1.613176)
 106 Co ( 0.000000,  0.000000,  0.891500)
 107 Cr ( 0.000000,  0.000000, -2.441696)
 108 Fe ( 0.000000,  0.000000,  2.855815)
 109 Ni ( 0.000000,  0.000000,  0.665081)
 110 Co ( 0.000000,  0.000000,  1.318698)
 111 Cr ( 0.000000,  0.000000, -2.536469)
 112 Co ( 0.000000,  0.000000,  0.805146)
 113 Fe ( 0.000000,  0.000000,  2.591248)
 114 Al ( 0.000000,  0.000000, -0.030361)
 115 Fe ( 0.000000,  0.000000,  2.293937)
 116 Cr ( 0.000000,  0.000000, -3.240122)
 117 Ni ( 0.000000,  0.000000,  0.241914)
 118 Co ( 0.000000,  0.000000,  1.239204)
 119 Cr ( 0.000000,  0.000000, -2.413457)
 120 Cr ( 0.000000,  0.000000, -2.640823)
 121 Ni ( 0.000000,  0.000000,  0.393288)
 122 Co ( 0.000000,  0.000000,  1.581236)
 123 Cr ( 0.000000,  0.000000,  2.496657)
 124 Co ( 0.000000,  0.000000,  1.159917)

Energy contributions relative to reference atoms: (reference = -4275894.041763)

Kinetic:       +308.689023
Potential:     -335.860091
External:        +0.000000
XC:            -961.383995
Entropy (-ST):   -5.487641
Local:          +41.420890
--------------------------
Free energy:   -952.621815
Extrapolated:  -949.877994

Dipole-layer corrected work functions: 4.700209, 4.604665 eV

Spin contamination: 54.878636 electrons
Showing all kpts
                      Up                     Down
 Kpt  Band  Eigenvalues  Occupancy  Eigenvalues  Occupancy
  0   587      0.11984    0.99789      1.04815    0.04206
  0   588      0.13632    0.99751      1.05407    0.03974
  0   589      0.14853    0.99719      1.06611    0.03539
  0   590      0.15184    0.99709      1.07449    0.03264

  1   587      0.11602    0.99797      1.05439    0.03962
  1   588      0.12867    0.99769      1.06606    0.03541
  1   589      0.14120    0.99738      1.06952    0.03425
  1   590      0.16184    0.99679      1.08200    0.03035


Fermi level: 0.73559

Gap: 0.002 eV
Transition (v -> c):
  (s=1, k=0, n=551, [0.25, -0.25, 0.00]) -> (s=0, k=1, n=627, [0.25, 0.25, 0.00])

Forces in eV/Ang:
  0 Ni   -0.08935    0.05246   -0.43800
  1 Fe    0.17776    0.22605   -0.71292
  2 Co    0.19881   -0.30914    0.71809
  3 Fe    0.55546   -0.77931    0.88869
  4 Co   -0.04217   -0.59434    0.84928
  5 Co   -0.97027   -0.34510    0.66881
  6 Ni    2.80097   -1.87381   -1.33074
  7 Fe   -0.51497    0.51363   -0.08736
  8 Fe   -0.89952    0.09547    0.80628
  9 Cr   -0.21414    0.15592    0.47920
 10 Ni   -1.05507    1.39860    0.92945
 11 Al    0.72489   -0.40658    0.46675
 12 Ni   -1.62132   -1.15538   -1.43580
 13 Co    0.11262   -0.25760    0.25121
 14 Cr    0.33471   -0.09583    0.05348
 15 Cr    0.20522   -0.07215    0.42629
 16 Fe    1.26174    0.62218    0.44063
 17 Fe    0.11191    0.50419    0.36877
 18 Cr   -0.23243    0.85654   -0.51184
 19 Fe   -0.38482   -0.08038   -0.46538
 20 Co    1.16877    0.55852   -0.53028
 21 Co   -0.23348   -1.19356    0.58010
 22 Co    0.48704    0.56181    0.85666
 23 Ni   -0.07038   -0.16292    0.14072
 24 Ni   -0.39474   -0.27177    0.46945
 25 Al   -0.00853   -0.45376    1.31770
 26 Co    1.25057   -0.37886    0.05757
 27 Ni   -1.00782    0.44697   -0.58587
 28 Ni   -0.65205   -0.04316    0.05345
 29 Co    0.01290   -0.84631   -0.08987
 30 Fe   -0.36844    0.88962    1.05532
 31 Cr    1.50912   -0.82352   -0.48438
 32 Cr    0.33364   -0.19470    0.25661
 33 Ni    0.38113    0.22053   -0.54772
 34 Cr   -0.68459    1.26102    0.13066
 35 Ni   -0.68210   -3.11907   -0.57414
 36 Cr    0.39410   -0.76297   -0.38539
 37 Fe   -0.09145    0.14213    1.14238
 38 Fe    0.01085   -0.80874    0.42715
 39 Cr   -0.31760    0.35421   -1.21579
 40 Co    1.78078    2.88508    0.84310
 41 Co   -0.08748    1.57315   -1.73448
 42 Co   -0.13189   -1.59400   -1.54211
 43 Ni    0.76310    0.73713    1.01410
 44 Cr   -1.26026    1.29914   -0.40049
 45 Al    1.71469    0.08419    0.20449
 46 Fe   -1.55381    1.24724   -0.80692
 47 Cr    0.62328   -0.08655    0.57152
 48 Co   -0.50392    0.80306   -0.90496
 49 Cr   -1.36319    0.33184   -0.13025
 50 Co   -1.54412    0.37094   -0.86288
 51 Ni    1.27123   -0.99296   -2.70884
 52 Co    0.61945    1.45143   -0.20324
 53 Fe    0.23336    0.17686   -0.33701
 54 Co    0.08553   -0.08897   -0.63981
 55 Ni    1.42399   -0.83023    1.02742
 56 Fe    0.17614    0.59436   -0.49436
 57 Cr   -0.34916   -0.04215    0.07602
 58 Fe    0.24264    0.17268    0.47129
 59 Cr   -1.99541   -1.21148   -0.17915
 60 Fe   -0.30875    0.73285   -0.95758
 61 Ni   -0.19487   -0.68125   -0.11049
 62 Ni   -0.30074   -0.75689   -1.11599
 63 Ni   -1.70229   -0.24171    0.51611
 64 Fe    1.13648    0.41838    0.76788
 65 Ni    0.41556    0.59068   -1.54350
 66 Cr   -1.15121    0.69287    0.35736
 67 Co    0.47834    0.38569   -0.14163
 68 Al   -1.35168    0.24568    0.67808
 69 Co    0.98305   -0.04771   -0.35270
 70 Co    0.44172    1.02961   -0.01762
 71 Cr    0.66685   -0.99313    1.25899
 72 Ni   -2.00728    0.08933    0.22113
 73 Fe    0.84775    0.64822    0.05689
 74 Ni   -0.10265   -0.97792   -1.35351
 75 Ni    0.70226   -0.36753   -1.01557
 76 Ni   -1.61978    0.86450    1.61538
 77 Fe   -0.84499    0.89049   -0.44331
 78 Ni   -1.13150    0.63984    0.29815
 79 Fe   -0.63838    0.71262    0.08936
 80 Co   -0.09511   -0.23226    0.26852
 81 Fe    0.39775   -0.19783    1.32202
 82 Cr   -1.91916   -1.16611    0.66267
 83 Co    1.67293   -0.33304    0.05160
 84 Fe   -0.17277    0.15998   -1.47513
 85 Cr   -1.03493   -0.52024    0.20910
 86 Ni    1.55802   -2.90505    1.69317
 87 Fe    0.29777   -0.41881    0.32153
 88 Fe    0.50943   -1.14680    0.56941
 89 Ni   -0.27141   -0.35170    0.79840
 90 Fe   -0.10771   -0.24258   -0.67295
 91 Cr   -0.95443    0.19664    0.00378
 92 Cr    0.13589    2.30285   -0.42265
 93 Cr    0.01854   -0.78240    0.49744
 94 Ni    0.27955   -0.23924    0.13243
 95 Fe    0.41644   -0.08481   -0.36445
 96 Cr    0.46855   -0.13547   -0.95006
 97 Cr    0.60281   -1.43303    0.17251
 98 Al   -0.52315   -0.33556   -0.47279
 99 Fe   -1.10848    0.54500    0.57380
100 Co   -0.56882    0.31420   -1.04959
101 Fe    0.54316   -0.16364    0.22049
102 Ni    0.03021   -0.15009   -0.95755
103 Cr    0.00476    0.76998    1.99431
104 Ni    0.97311   -0.75543   -0.40346
105 Co    0.65294    1.12664    1.63590
106 Co    0.00790    0.18791    0.58820
107 Cr   -0.12142   -0.62045    0.12441
108 Fe   -0.91556    0.32167   -0.99114
109 Ni    0.77543    0.83715   -0.07746
110 Co   -0.28616   -0.44399    0.14780
111 Cr    0.38154    0.49259   -0.67994
112 Co    0.40071   -0.27764    0.50508
113 Fe    0.29268   -1.14031    0.32410
114 Al    0.61466   -0.72203    0.57440
115 Fe    0.74910    0.73874   -0.17431
116 Cr    0.27965    0.61737   -0.68196
117 Ni   -0.06960   -0.40089    1.78549
118 Co   -0.15680    0.57907   -0.52528
119 Cr    0.02368    0.52609   -0.51405
120 Cr    0.72341   -0.19466    0.90880
121 Ni   -1.45242    0.41329   -0.55365
122 Co    0.85089    0.40757   -1.13123
123 Cr   -0.45217    0.56635   -0.42015
124 Co    0.59405   -0.29166   -0.05470

Timing:                              incl.     excl.
-----------------------------------------------------------
Forces:                             39.074    39.074   0.2% |
Hamiltonian:                         1.324     0.010   0.0% |
 Atomic:                             0.392     0.001   0.0% |
  XC Correction:                     0.391     0.391   0.0% |
 Calculate atomic Hamiltonians:      0.436     0.436   0.0% |
 Communicate:                        0.089     0.089   0.0% |
 Initialize Hamiltonian:             0.001     0.001   0.0% |
 Poisson:                            0.087     0.087   0.0% |
 XC 3D grid:                         0.310     0.310   0.0% |
LCAO initialization:               249.782     0.542   0.0% |
 LCAO eigensolver:                  12.402     0.014   0.0% |
  Calculate projections:             0.000     0.000   0.0% |
  DenseAtomicCorrection:             0.000     0.000   0.0% |
  Distribute overlap matrix:         7.428     7.428   0.0% |
  Orbital Layouts:                   4.909     4.909   0.0% |
  Potential matrix:                  0.007     0.007   0.0% |
  Sum over cells:                    0.045     0.045   0.0% |
 LCAO to grid:                     234.735   234.735   1.3% ||
 Set positions (LCAO WFS):           2.102     1.812   0.0% |
  Basic WFS set positions:           0.004     0.004   0.0% |
  Basis functions set positions:     0.001     0.001   0.0% |
  P tci:                             0.000     0.000   0.0% |
  ST tci:                            0.114     0.114   0.0% |
  mktci:                             0.172     0.172   0.0% |
PWDescriptor:                        0.083     0.083   0.0% |
SCF-cycle:                       17844.310     0.894   0.0% |
 Davidson:                       17391.422  5576.862  30.7% |-----------|
  Apply H:                         292.840   287.882   1.6% ||
   HMM T:                            4.958     4.958   0.0% |
  Subspace diag:                  1898.934     0.039   0.0% |
   calc_h_matrix:                  763.989   496.958   2.7% ||
    Apply H:                       267.031   262.056   1.4% ||
     HMM T:                          4.975     4.975   0.0% |
   diagonalize:                    174.251   174.251   1.0% |
   rotate_psi:                     960.656   960.656   5.3% |-|
  calc. matrices:                 4413.520  3933.811  21.7% |--------|
   Apply H:                        479.709   469.728   2.6% ||
    HMM T:                           9.981     9.981   0.1% |
  diagonalize:                    3177.887  3177.887  17.5% |------|
  rotate_psi:                     2031.378  2031.378  11.2% |---|
 Density:                          240.616     0.004   0.0% |
  Atomic density matrices:           2.826     2.826   0.0% |
  Mix:                             106.926   106.926   0.6% |
  Multipole moments:                 0.078     0.078   0.0% |
  Pseudo density:                  130.782   130.777   0.7% |
   Symmetrize density:               0.005     0.005   0.0% |
 Hamiltonian:                      193.440     1.234   0.0% |
  Atomic:                           48.017     0.152   0.0% |
   XC Correction:                   47.864    47.864   0.3% |
  Calculate atomic Hamiltonians:    90.735    90.735   0.5% |
  Communicate:                      12.003    12.003   0.1% |
  Poisson:                           4.279     4.279   0.0% |
  XC 3D grid:                       37.172    37.172   0.2% |
 Orthonormalize:                    17.938     0.001   0.0% |
  calc_s_matrix:                     2.232     2.232   0.0% |
  inverse-cholesky:                  0.837     0.837   0.0% |
  projections:                      10.965    10.965   0.1% |
  rotate_psi_s:                      3.903     3.903   0.0% |
Set symmetry:                        0.001     0.001   0.0% |
Other:                               6.613     6.613   0.0% |
-----------------------------------------------------------
Total:                                     18141.187 100.0%

Date: Mon Apr 17 10:54:30 2023
