
  ___ ___ ___ _ _ _  
 |   |   |_  | | | | 
 | | | | | . | | | | 
 |__ |  _|___|_____|  22.8.0
 |___|_|             

User:   c.zeng@d0115
Date:   Mon Apr 17 20:24:06 2023
Arch:   x86_64
Pid:    282569
CWD:    /home/c.zeng/projects/hea-corrosion/hea-mlp/data-curation/surface-md/dft-jobs/8
Python: 3.8.1
gpaw:   /home/c.zeng/usr/installs/gpaw/source/gpaw-22.8.0/gpaw
_gpaw:  /home/c.zeng/usr/installs/gpaw/source/gpaw-22.8.0/
        _gpaw.cpython-38-x86_64-linux-gnu.so
ase:    /home/c.zeng/.local/lib/python3.8/site-packages/ase-3.22.1-py3.8.egg/ase (version 3.22.1)
numpy:  /home/c.zeng/.local/lib/python3.8/site-packages/numpy (version 1.24.2)
scipy:  /home/c.zeng/.local/lib/python3.8/site-packages/scipy (version 1.10.1)
libxc:  4.2.3
units:  Angstrom and eV
cores: 30
OpenMP: False
OMP_NUM_THREADS: 1

Input parameters:
  convergence: {energy: 0.0001}
  kpts: [2 2 1]
  maxiter: 666
  mode: {ecut: 350.0,
         name: pw}
  occupations: {fixmagmom: False,
                name: fermi-dirac,
                width: 0.1}
  poissonsolver: {dipolelayer: xy}
  spinpol: True
  symmetry: {point_group: False}
  xc: PBE

System changes: positions, numbers, cell, pbc, initial_charges, initial_magmoms 

Initialize ...

species:
  Cr:
    name: Chromium
    id: 33f258bda2ca9f93018e70263a35547b
    Z: 24.0
    valence: 6
    core: 18
    charge: 0.0
    file: /home/c.zeng/usr/data/gpaw-setups-0.9.20000/Cr.PBE.gz
    compensation charges: {type: gauss,
                           rc: 0.35,
                           lmax: 2}
    cutoffs: {filter: 2.14,
              core: 3.04}
    valence states:
      #              energy  rcut
      - 4s(1.00)    -4.007   1.164
      - 4p(0.00)    -0.989   1.217
      - 3d(5.00)    -2.913   1.111
      -  s          23.205   1.164
      -  p          26.223   1.217
      -  d          24.299   1.111
  
    # Using partial waves for Cr as LCAO basis

  Fe:
    name: Iron
    id: 37abbd8d6c3c35915a9b583b742da910
    Z: 26.0
    valence: 8
    core: 18
    charge: 0.0
    file: /home/c.zeng/usr/data/gpaw-setups-0.9.20000/Fe.PBE.gz
    compensation charges: {type: gauss,
                           rc: 0.33,
                           lmax: 2}
    cutoffs: {filter: 2.06,
              core: 2.67}
    valence states:
      #              energy  rcut
      - 4s(2.00)    -5.291   1.164
      - 4p(0.00)    -1.326   1.058
      - 3d(6.00)    -7.505   1.058
      -  s          21.920   1.164
      -  p          25.885   1.058
      -  d          19.706   1.058
  
    # Using partial waves for Fe as LCAO basis

  Ni:
    name: Nickel
    id: 0d9f38a9d6e76a2886f07bb4381f212b
    Z: 28.0
    valence: 16
    core: 12
    charge: 0.0
    file: /home/c.zeng/usr/data/gpaw-setups-0.9.20000/Ni.PBE.gz
    compensation charges: {type: gauss,
                           rc: 0.36,
                           lmax: 2}
    cutoffs: {filter: 2.14,
              core: 1.98}
    valence states:
      #              energy  rcut
      - 4s(2.00)    -5.642   1.164
      - 3p(6.00)   -71.394   1.207
      - 4p(0.00)    -1.226   1.207
      - 3d(8.00)    -8.875   1.138
      -  s          21.570   1.164
      -  d          18.337   1.138
  
    # Using partial waves for Ni as LCAO basis

  Co:
    name: Cobalt
    id: 339d20d5b0b93d2de9531a1bee871d91
    Z: 27.0
    valence: 9
    core: 18
    charge: 0.0
    file: /home/c.zeng/usr/data/gpaw-setups-0.9.20000/Co.PBE.gz
    compensation charges: {type: gauss,
                           rc: 0.32,
                           lmax: 2}
    cutoffs: {filter: 1.87,
              core: 2.55}
    valence states:
      #              energy  rcut
      - 4s(2.00)    -5.469   1.005
      - 4p(0.00)    -1.277   1.058
      - 3d(7.00)    -8.205   1.005
      -  s          21.742   1.005
      -  p          25.934   1.058
      -  d          19.007   1.005
  
    # Using partial waves for Co as LCAO basis

Reference energy: -4451268.207082  # eV

Spin-polarized calculation.
Magnetic moment: 175.600000

Convergence criteria:
 Maximum [total energy] change in last 3 cyles: 0.0001 eV / electron
 Maximum integral of absolute [dens]ity change: 0.0001 electrons / valence electron
 Maximum integral of absolute [eigenst]ate change: 4e-08 eV^2 / valence electron
 Maximum number of scf [iter]ations: 666
 (Square brackets indicate name in SCF output, whereas a 'c' in
 the SCF output indicates the quantity has converged.)

Symmetries present (total): 1

  ( 1  0  0)
  ( 0  1  0)
  ( 0  0  1)

4 k-points: 2 x 2 x 1 Monkhorst-Pack grid
2 k-points in the irreducible part of the Brillouin zone
       k-points in crystal coordinates                weights
   0:     0.25000000   -0.25000000    0.00000000          2/4
   1:     0.25000000    0.25000000    0.00000000          2/4

Wave functions: Plane wave expansion
  Cutoff energy: 350.000 eV
  Number of coefficients (min, max): 58495, 58567
  Pulay-stress correction: 0.000000 eV/Ang^3 (de/decut=0.000000)
  Using FFTW library
  ScaLapack parameters: grid=1x1, blocksize=None
  Wavefunction extrapolation:
    Improved wavefunction reuse through dual PAW basis 

Occupation numbers: Fermi-Dirac:
  width: 0.1000  # eV
 

Eigensolver
   Davidson(niter=2) 

Densities:
  Coarse grid: 54*54*128 grid
  Fine grid: 108*108*256 grid
  Total Charge: 0.000000 

Density mixing:
  Method: difference
  Backend: pulay
  Linear mixing parameter: 0.05
  old densities: 5
  Damping of long wavelength oscillations: 50 

Hamiltonian:
  XC and Coulomb potentials evaluated on a 108*108*256 grid
  Using the PBE Exchange-Correlation functional
  External potential:
    NoExternalPotential
 

XC parameters: PBE with 2 nearest neighbor stencil

Memory estimate:
  Process memory now: 359.94 MiB
  Calculator: 2405.48 MiB
    Density: 16.73 MiB
      Arrays: 6.75 MiB
      Localized functions: 7.29 MiB
      Mixer: 2.70 MiB
    Hamiltonian: 5.22 MiB
      Arrays: 5.01 MiB
      XC: 0.00 MiB
      Poisson: 0.00 MiB
      vbar: 0.21 MiB
    Wavefunctions: 2383.52 MiB
      Arrays psit_nG: 1501.35 MiB
      Eigensolver: 862.84 MiB
      Projections: 3.85 MiB
      Projectors: 0.98 MiB
      PW-descriptor: 14.51 MiB

Total number of cores used: 30
Parallelization over k-points: 2
Domain decomposition: 1 x 3 x 5

Number of atoms: 125
Number of atomic orbitals: 1218
Number of bands in calculation: 840
Number of valence electrons: 1217
Bands to converge: occupied

... initialized

Initializing position-dependent things.

Density initialized from atomic densities
Creating initial wave functions:
  840 bands from LCAO basis set

                                                                  
                                                                  
                                                                  
                                                                  
                                                                  
                                    Co    Ni          Co          
                         Ni                Cr    Cr               
                     Cr         Ni    Co    Cr                    
                 Co        Ni   CoCr       Co     Fe    Co        
                      Ni    Ni        FCo    Fe    Fe             
                  Ni    FeCo      NNi   FeCr   Ni                 
            Co        Ni  FeCCNi     Cr      Co     Fe            
       Co         Fe   FNi    Co  NFe    NFe   Cr                 
                  Co      Fe  Ni   CrFe    Co   Fe   Fe           
                   Ni    Cr     Co     FeFe           Cr          
              Ni   FCo   NCo  NCo   Fe    NCo                     
                      Cr    FeNiCo   NiCr       Fe    Cr          
          Co   Fe   Ni    Cr       Crr     NCo    Cr              
               NiFe    Fe  CCr  NFe   FCr   Cr                    
           Fe       Cr  Cr       CrFe                             
                 Co    Cr   Cr       CoFe     Ni                  
             Co   Co    Co        Cr     Cr                       
               Fe              Ni   Cr                            
            Fe     Ni                                             
                                                                  
                                                                  
                                                                  
                                                                  
                                                                  

Positions:
   0 Cr    12.005362    1.102862   10.146484    ( 0.0000,  0.0000,  0.0000)
   1 Fe     2.172454    0.971839    9.724627    ( 0.0000,  0.0000,  2.0000)
   2 Ni     4.782796    1.222958    9.627486    ( 0.0000,  0.0000,  1.5000)
   3 Co     6.914567    0.977072   10.877788    ( 0.0000,  0.0000,  2.1000)
   4 Ni     9.713740    0.914079   10.824553    ( 0.0000,  0.0000,  1.5000)
   5 Cr    13.108851    3.269114   10.089954    ( 0.0000,  0.0000,  0.0000)
   6 Fe     2.799280    2.962899    9.109559    ( 0.0000,  0.0000,  2.0000)
   7 Cr     5.843397    3.151537   10.796967    ( 0.0000,  0.0000,  0.0000)
   8 Cr     8.038152    3.228747   10.475325    ( 0.0000,  0.0000,  0.0000)
   9 Cr    10.575266    3.031489   10.108386    ( 0.0000,  0.0000,  0.0000)
  10 Ni    14.568793    5.539473    9.755437    ( 0.0000,  0.0000,  1.5000)
  11 Cr     4.193169    5.421288   10.869706    ( 0.0000,  0.0000,  0.0000)
  12 Cr     6.835057    5.340540   10.984531    ( 0.0000,  0.0000,  0.0000)
  13 Cr     9.540200    5.578251   10.517456    ( 0.0000,  0.0000,  0.0000)
  14 Fe    11.872143    5.309960    9.908381    ( 0.0000,  0.0000,  2.0000)
  15 Cr    15.814164    7.705740   10.933370    ( 0.0000,  0.0000,  0.0000)
  16 Ni     5.849467    7.579407   11.039775    ( 0.0000,  0.0000,  1.5000)
  17 Ni     8.317067    7.750736   10.201421    ( 0.0000,  0.0000,  1.5000)
  18 Fe    10.806008    7.775612   10.233931    ( 0.0000,  0.0000,  2.0000)
  19 Cr    13.324014    7.667517    9.801499    ( 0.0000,  0.0000,  0.0000)
  20 Cr    17.128466    9.635981   10.787312    ( 0.0000,  0.0000,  0.0000)
  21 Ni     7.091619    9.776174   10.543287    ( 0.0000,  0.0000,  1.5000)
  22 Cr     9.721531    9.758090    9.861529    ( 0.0000,  0.0000,  0.0000)
  23 Ni    12.209869    9.744456    9.841173    ( 0.0000,  0.0000,  1.5000)
  24 Fe    14.540329    9.728213   10.863375    ( 0.0000,  0.0000,  2.0000)
  25 Co    12.341962   -0.036339   12.425186    ( 0.0000,  0.0000,  2.1000)
  26 Co     2.615651    0.112610   12.044771    ( 0.0000,  0.0000,  2.1000)
  27 Co     4.905590   -0.138575   11.696440    ( 0.0000,  0.0000,  2.1000)
  28 Cr     7.392411   -0.171870   13.089363    ( 0.0000,  0.0000,  0.0000)
  29 Fe    16.064271   10.716940   13.013774    ( 0.0000,  0.0000,  2.0000)
  30 Fe     1.121478    2.245824   12.067845    ( 0.0000,  0.0000,  2.0000)
  31 Co     3.657266    2.234942   11.532475    ( 0.0000,  0.0000,  2.1000)
  32 Fe     6.076906    1.982521   12.913570    ( 0.0000,  0.0000,  2.0000)
  33 Cr     8.429198    1.956330   12.900530    ( 0.0000,  0.0000,  0.0000)
  34 Fe    11.113665    1.857444   12.665286    ( 0.0000,  0.0000,  2.0000)
  35 Ni     2.322379    4.379686   12.015536    ( 0.0000,  0.0000,  1.5000)
  36 Ni     4.357058    4.132534   13.066070    ( 0.0000,  0.0000,  1.5000)
  37 Cr     6.947903    4.078526   12.811237    ( 0.0000,  0.0000,  0.0000)
  38 Fe     9.607223    4.087973   12.449594    ( 0.0000,  0.0000,  2.0000)
  39 Cr    12.255612    4.164690   12.120266    ( 0.0000,  0.0000,  0.0000)
  40 Fe     3.412859    6.391771   13.090715    ( 0.0000,  0.0000,  2.0000)
  41 Ni     5.834056    6.394821   12.939666    ( 0.0000,  0.0000,  1.5000)
  42 Co     8.661056    6.466297   12.540947    ( 0.0000,  0.0000,  2.1000)
  43 Ni    11.088524    6.108654   12.242954    ( 0.0000,  0.0000,  1.5000)
  44 Co    13.574703    6.289347   11.697327    ( 0.0000,  0.0000,  2.1000)
  45 Cr    17.291426    8.460746   13.005791    ( 0.0000,  0.0000,  0.0000)
  46 Ni     7.236525    8.547295   12.549750    ( 0.0000,  0.0000,  1.5000)
  47 Co     9.955420    8.574471   12.405040    ( 0.0000,  0.0000,  2.1000)
  48 Ni    12.576033    8.326479   11.912263    ( 0.0000,  0.0000,  1.5000)
  49 Fe    14.772268    8.625839   13.537256    ( 0.0000,  0.0000,  2.0000)
  50 Co     1.276045    0.810305   14.371740    ( 0.0000,  0.0000,  2.1000)
  51 Fe     3.967400    1.035535   13.911358    ( 0.0000,  0.0000,  2.0000)
  52 Cr     6.262902    0.689565   15.165500    ( 0.0000,  0.0000,  0.0000)
  53 Fe     8.833425    0.463990   15.220638    ( 0.0000,  0.0000,  2.0000)
  54 Cr    11.330232    0.651503   14.785483    ( 0.0000,  0.0000,  0.0000)
  55 Fe     2.555075    2.943847   13.775431    ( 0.0000,  0.0000,  2.0000)
  56 Co     4.964349    2.842030   15.258467    ( 0.0000,  0.0000,  2.1000)
  57 Co     7.435483    2.703288   15.036111    ( 0.0000,  0.0000,  2.1000)
  58 Co     9.907253    2.644141   14.691752    ( 0.0000,  0.0000,  2.1000)
  59 Cr    12.712343    2.898782   14.421268    ( 0.0000,  0.0000,  0.0000)
  60 Co     3.597165    5.004006   15.303178    ( 0.0000,  0.0000,  2.1000)
  61 Cr     6.059663    5.246913   14.931451    ( 0.0000,  0.0000,  0.0000)
  62 Co     8.626143    4.906391   14.491606    ( 0.0000,  0.0000,  2.1000)
  63 Fe    10.997141    4.696845   14.181695    ( 0.0000,  0.0000,  2.0000)
  64 Co    13.665876    5.261924   13.993660    ( 0.0000,  0.0000,  2.1000)
  65 Fe     4.917752    7.232271   15.013254    ( 0.0000,  0.0000,  2.0000)
  66 Ni     7.605066    7.135798   14.571412    ( 0.0000,  0.0000,  1.5000)
  67 Cr     9.993870    7.007722   14.367006    ( 0.0000,  0.0000,  0.0000)
  68 Fe    12.426406    7.081659   14.091085    ( 0.0000,  0.0000,  2.0000)
  69 Cr    14.797299    7.123178   15.315594    ( 0.0000,  0.0000,  0.0000)
  70 Cr     6.487551    9.582974   14.832679    ( 0.0000,  0.0000,  0.0000)
  71 Ni     8.941007    9.557776   14.393883    ( 0.0000,  0.0000,  1.5000)
  72 Ni    11.615684    9.562216   14.011730    ( 0.0000,  0.0000,  1.5000)
  73 Co    13.477852    9.304369   15.399487    ( 0.0000,  0.0000,  2.1000)
  74 Fe    16.285896    9.241298   15.272911    ( 0.0000,  0.0000,  2.0000)
  75 Fe    12.865674    1.482519   16.558423    ( 0.0000,  0.0000,  2.0000)
  76 Ni     2.866871    1.638484   15.948429    ( 0.0000,  0.0000,  1.5000)
  77 Ni     4.944345    1.256475   17.063381    ( 0.0000,  0.0000,  1.5000)
  78 Fe     7.518992    1.552719   17.196585    ( 0.0000,  0.0000,  2.0000)
  79 Co    10.230922    1.611122   16.907864    ( 0.0000,  0.0000,  2.1000)
  80 Co    14.164903    3.742347   16.144460    ( 0.0000,  0.0000,  2.1000)
  81 Fe     3.848349    3.625175   17.605817    ( 0.0000,  0.0000,  2.0000)
  82 Ni     6.248089    3.932933   17.122645    ( 0.0000,  0.0000,  1.5000)
  83 Co     8.786818    3.792977   16.831855    ( 0.0000,  0.0000,  2.1000)
  84 Fe    11.599259    3.872802   16.659250    ( 0.0000,  0.0000,  2.0000)
  85 Ni    14.976550    5.849634   17.726886    ( 0.0000,  0.0000,  1.5000)
  86 Ni     4.895935    5.858445   17.279198    ( 0.0000,  0.0000,  1.5000)
  87 Co     7.609840    6.147465   16.781317    ( 0.0000,  0.0000,  2.1000)
  88 Fe    10.182092    5.760289   16.511337    ( 0.0000,  0.0000,  2.0000)
  89 Fe    12.856114    5.820754   16.355628    ( 0.0000,  0.0000,  2.0000)
  90 Fe    16.268825    7.987269   17.236877    ( 0.0000,  0.0000,  2.0000)
  91 Co     6.085770    8.095473   16.894366    ( 0.0000,  0.0000,  2.1000)
  92 Ni     9.122158    8.031729   16.430080    ( 0.0000,  0.0000,  1.5000)
  93 Fe    11.602532    8.056963   16.150809    ( 0.0000,  0.0000,  2.0000)
  94 Fe    13.630217    7.886307   17.516445    ( 0.0000,  0.0000,  2.0000)
  95 Co    17.632502   10.246435   16.969444    ( 0.0000,  0.0000,  2.1000)
  96 Co     7.714654   10.234185   16.852570    ( 0.0000,  0.0000,  2.1000)
  97 Fe    10.218469   10.256822   16.294011    ( 0.0000,  0.0000,  2.0000)
  98 Co    12.398041   10.070392   17.199680    ( 0.0000,  0.0000,  2.1000)
  99 Fe    14.973872   10.247752   17.344546    ( 0.0000,  0.0000,  2.0000)
 100 Co     0.372765    0.272861   18.804921    ( 0.0000,  0.0000,  2.1000)
 101 Co     8.973724   11.393315   18.602784    ( 0.0000,  0.0000,  2.1000)
 102 Ni    11.695514   11.134279   19.306902    ( 0.0000,  0.0000,  1.5000)
 103 Fe     7.918809    0.276948   19.542150    ( 0.0000,  0.0000,  2.0000)
 104 Co    16.522200   11.059460   18.969598    ( 0.0000,  0.0000,  2.1000)
 105 Co     1.791003    2.691055   18.209154    ( 0.0000,  0.0000,  2.1000)
 106 Ni     4.074127    2.219215   19.767801    ( 0.0000,  0.0000,  1.5000)
 107 Fe     6.624822    2.593776   19.037060    ( 0.0000,  0.0000,  2.0000)
 108 Ni     9.144033    2.614445   18.744358    ( 0.0000,  0.0000,  1.5000)
 109 Cr    11.687107    2.568572   18.513162    ( 0.0000,  0.0000,  0.0000)
 110 Co     2.925484    4.713345   19.962081    ( 0.0000,  0.0000,  2.1000)
 111 Ni     5.277321    4.495640   19.217215    ( 0.0000,  0.0000,  1.5000)
 112 Ni     7.803349    4.619950   18.838806    ( 0.0000,  0.0000,  1.5000)
 113 Ni    10.375447    4.583680   18.774140    ( 0.0000,  0.0000,  1.5000)
 114 Cr    13.153137    4.669697   18.678807    ( 0.0000,  0.0000,  0.0000)
 115 Cr     4.050622    6.877289   19.689370    ( 0.0000,  0.0000,  0.0000)
 116 Ni     6.695814    6.903991   18.870560    ( 0.0000,  0.0000,  1.5000)
 117 Cr     9.408881    6.969510   18.586849    ( 0.0000,  0.0000,  0.0000)
 118 Co    11.513421    6.839662   18.259901    ( 0.0000,  0.0000,  2.1000)
 119 Cr    13.588188    6.701141   19.753823    ( 0.0000,  0.0000,  0.0000)
 120 Ni     5.354025    8.850001   19.114672    ( 0.0000,  0.0000,  1.5000)
 121 Ni     8.198561    8.914598   18.836184    ( 0.0000,  0.0000,  1.5000)
 122 Co    10.495462    9.049090   18.373187    ( 0.0000,  0.0000,  2.1000)
 123 Cr    12.741776    9.073624   19.199147    ( 0.0000,  0.0000,  0.0000)
 124 Cr    15.159824    8.817904   19.389217    ( 0.0000,  0.0000,  0.0000)

Unit cell:
           periodic     x           y           z      points  spacing
  1. axis:    yes   12.446800    0.000000    0.000000    54     0.1996
  2. axis:    yes    6.223010   10.778600    0.000000    54     0.1996
  3. axis:    no     0.000000    0.000000   29.353100   128     0.2293

  Lengths:  12.446800  12.446046  29.353100
  Angles:   90.000000  90.000000  60.000070

Effective grid spacing dv^(1/3) = 0.2193

     iter     time        total  log10-change:  magmom
                         energy  eigst   dens
iter:   1 20:31:48 -1247.597486                  +175.9175
iter:   2 20:34:27 -1167.313737  -0.00  -1.11    +97.4109
iter:   3 20:37:05 -1483.308845  -0.38  -1.07    +82.1937
iter:   4 20:39:44 -2265.048314  +0.44  -0.92    +73.7752
iter:   5 20:42:23 -1074.526904  -0.48  -0.74    +43.9052
iter:   6 20:45:02 -1043.020827  -1.27  -1.23    +40.8159
iter:   7 20:47:41 -1042.643881  -1.71  -1.25    +42.4101
iter:   8 20:50:20 -1011.085664  -1.33  -1.24    +44.9871
iter:   9 20:52:59 -1534.225819  -0.22  -1.34    +46.8348
iter:  10 20:55:38 -1082.269844  -0.60  -0.91    +44.0647
iter:  11 20:58:17 -1051.892500  -1.17  -1.18    +41.8174
iter:  12 21:00:55 -1023.167396  -1.58  -1.31    +42.2870
iter:  13 21:03:34 -1005.844994  -1.78  -1.40    +36.8627
iter:  14 21:06:13 -1015.798678  -1.55  -1.47    +39.2548
iter:  15 21:08:52  -975.084423  -1.51  -1.35    +40.8124
iter:  16 21:11:31  -970.329104  -1.96  -1.56    +44.0955
iter:  17 21:14:10 -1010.040511  -1.87  -1.64    +46.8256
iter:  18 21:16:48  -968.504733  -2.02  -1.35    +49.3551
iter:  19 21:19:27  -968.886827  -2.27  -1.69    +53.2416
iter:  20 21:22:06  -981.970225  -1.79  -1.74    +55.9860
iter:  21 21:24:45 -1008.785607  -1.90  -1.59    +57.4204
iter:  22 21:27:24  -970.500199  -2.02  -1.42    +60.8051
iter:  23 21:30:03  -991.540833  -1.90  -1.82    +64.2533
iter:  24 21:32:41  -972.237171  -2.44  -1.53    +63.7439
iter:  25 21:35:20  -970.041935  -2.89  -1.80    +64.7357
iter:  26 21:37:58  -969.650649  -2.84  -1.86    +67.5781
iter:  27 21:40:37 -1020.097098  -1.90  -1.92    +69.6351
iter:  28 21:43:16  -970.736508  -2.17  -1.38    +70.8492
iter:  29 21:45:54  -970.238019  -2.92  -1.91    +73.6363
iter:  30 21:48:33  -970.013775  -2.61  -1.96    +75.7546
iter:  31 21:51:10  -972.021929  -2.66  -2.09    +77.6535
iter:  32 21:53:48  -972.594695  -2.81  -1.98    +79.4979
iter:  33 21:56:26  -971.046180  -2.69  -1.99    +80.7984
iter:  34 21:59:05  -973.027987  -2.65  -2.29    +83.0125
iter:  35 22:01:44  -972.413661  -2.87  -2.08    +83.9395
iter:  36 22:04:22  -972.247531  -3.09  -2.23    +85.1447
iter:  37 22:07:01  -972.555122  -3.22  -2.37    +86.9696
iter:  38 22:09:40  -972.917156  -3.39  -2.42    +88.5029
iter:  39 22:12:18  -973.572188  -3.25  -2.42    +89.6269
iter:  40 22:14:57  -974.685780  -2.83  -2.36    +90.6783
iter:  41 22:17:35  -979.953726  -2.70  -2.26    +90.8692
iter:  42 22:20:14  -975.051842  -3.09  -1.88    +90.3948
iter:  43 22:22:53  -975.217187  -3.49  -2.25    +90.3080
iter:  44 22:25:32  -975.865340  -3.08  -2.25    +91.2141
iter:  45 22:28:11  -976.750025  -2.69  -2.18    +91.4097
iter:  46 22:30:50  -980.044314  -2.44  -2.09    +91.2294
iter:  47 22:33:28  -984.068107  -2.45  -1.89    +91.1712
iter:  48 22:36:07  -976.270794  -2.54  -1.75    +90.0128
iter:  49 22:38:46  -974.672814  -3.09  -2.10    +88.7901
iter:  50 22:41:25  -974.654897  -3.46  -2.35    +88.8947
iter:  51 22:44:04  -974.602170c -3.52  -2.37    +88.9630
iter:  52 22:46:43  -976.451553  -3.17  -2.45    +89.1526
iter:  53 22:49:21  -975.476439  -3.11  -2.11    +89.0035
iter:  54 22:52:00  -974.931938  -3.34  -2.25    +89.4422
iter:  55 22:54:39  -974.795823  -3.55  -2.39    +89.1688
iter:  56 22:57:17  -975.062797  -3.19  -2.48    +88.7898
iter:  57 22:59:56  -974.707467  -3.56  -2.41    +88.9854
iter:  58 23:02:34  -975.114301  -3.54  -2.62    +89.2022
iter:  59 23:05:13  -974.902677  -3.71  -2.40    +89.2904
iter:  60 23:07:51  -974.752121  -3.88  -2.50    +89.0597
iter:  61 23:10:30  -974.678677  -4.17  -2.66    +89.1147
iter:  62 23:13:08  -974.723859c -4.53  -2.78    +89.4475
iter:  63 23:15:46  -974.791195c -4.27  -2.77    +89.7079
iter:  64 23:18:25  -974.875778  -3.94  -2.74    +89.9957
iter:  65 23:21:03  -974.802986c -4.62  -2.71    +89.7649
iter:  66 23:23:44  -974.875839c -4.33  -2.76    +90.1185
iter:  67 23:26:29  -974.903564c -4.80  -2.66    +90.0647
iter:  68 23:29:14  -974.943485c -4.00  -2.65    +89.8938
iter:  69 23:31:59  -974.929134c -4.37  -2.61    +89.9511
iter:  70 23:34:44  -975.201696  -4.20  -2.64    +89.8899
iter:  71 23:37:29  -975.647184  -3.46  -2.44    +89.8193
iter:  72 23:40:14  -974.978659  -3.62  -2.31    +89.9150
iter:  73 23:42:59  -975.035918  -4.04  -2.61    +90.2068
iter:  74 23:45:44  -975.044298c -4.35  -2.57    +90.0766
iter:  75 23:48:29  -975.018222c -4.62  -2.57    +90.0390
iter:  76 23:51:14  -974.894619  -4.28  -2.59    +89.9519
iter:  77 23:53:59  -975.312982  -3.57  -2.75    +90.0825
iter:  78 23:56:45  -975.080110  -3.73  -2.43    +90.4259
iter:  79 23:59:30  -974.908921  -4.11  -2.56    +90.3787
iter:  80 00:02:15  -974.961682  -3.84  -2.81    +90.4238
iter:  81 00:05:01  -974.896732c -4.03  -2.76    +90.7100
iter:  82 00:07:46  -975.077157  -3.98  -2.90    +91.1886
iter:  83 00:10:32  -974.971909  -4.51  -2.60    +90.9747
iter:  84 00:13:17  -975.021716c -3.98  -2.76    +90.8887
iter:  85 00:16:03  -974.897301  -4.45  -2.66    +90.9557
iter:  86 00:18:48  -974.893519  -4.65  -3.02    +91.0779
iter:  87 00:21:34  -974.914968c -4.54  -3.14    +91.1849
iter:  88 00:24:19  -975.010178c -4.25  -3.05    +91.2243
iter:  89 00:27:04  -974.903507c -4.70  -2.73    +91.2063
iter:  90 00:29:49  -975.040953  -4.30  -3.21    +91.3133
iter:  91 00:32:35  -974.905536  -4.70  -2.69    +91.3120
iter:  92 00:35:20  -974.906095  -5.32  -3.30    +91.3544
iter:  93 00:38:05  -974.907390c -5.31  -3.37    +91.4580
iter:  94 00:40:51  -974.907730c -5.81  -3.36    +91.4854
iter:  95 00:43:36  -974.912467c -5.38  -3.42    +91.5240
iter:  96 00:46:21  -974.925190c -5.19  -3.36    +91.5432
iter:  97 00:49:06  -974.926696c -4.96  -3.13    +91.6436
iter:  98 00:51:51  -974.913238c -5.25  -3.16    +91.6283
iter:  99 00:54:37  -974.918097c -5.13  -3.48    +91.6381
iter: 100 00:57:22  -974.916429c -5.32  -3.47    +91.6497
iter: 101 01:00:08  -974.915046c -5.64  -3.43    +91.6786
iter: 102 01:02:54  -974.916407c -5.90  -3.62    +91.7009
iter: 103 01:05:39  -974.915930c -6.26  -3.60    +91.6973
iter: 104 01:08:25  -974.916508c -6.37  -3.69    +91.7187
iter: 105 01:11:10  -974.918281c -5.91  -3.67    +91.7547
iter: 106 01:13:55  -974.918282c -6.66  -3.62    +91.7529
iter: 107 01:16:40  -974.919467c -6.31  -3.64    +91.7541
iter: 108 01:19:25  -974.920273c -6.43  -3.61    +91.7512
iter: 109 01:22:10  -974.922349c -5.98  -3.57    +91.7514
iter: 110 01:24:56  -974.920374c -5.74  -3.49    +91.7546
iter: 111 01:27:41  -974.921635c -6.01  -3.56    +91.7396
iter: 112 01:30:26  -974.920531c -5.56  -3.55    +91.7295
iter: 113 01:33:12  -974.920194c -6.00  -3.52    +91.7471
iter: 114 01:35:57  -974.920098c -6.35  -3.67    +91.7602
iter: 115 01:38:43  -974.922044c -6.11  -3.70    +91.7933
iter: 116 01:41:29  -974.920778c -6.10  -3.55    +91.7836
iter: 117 01:44:14  -974.924309c -5.65  -3.61    +91.7927
iter: 118 01:46:59  -974.921627c -5.95  -3.51    +91.7881
iter: 119 01:49:45  -974.921058c -5.67  -3.62    +91.7518
iter: 120 01:52:30  -974.921832c -5.81  -3.61    +91.7779
iter: 121 01:55:16  -974.942991c -5.20  -3.72    +91.8024
iter: 122 01:58:02  -974.923058c -5.30  -3.06    +91.7932
iter: 123 02:00:47  -974.920150c -6.03  -3.55    +91.8016
iter: 124 02:03:33  -974.921019c -6.32  -3.80    +91.8048
iter: 125 02:06:15  -974.920915c -6.23  -3.92    +91.8239
iter: 126 02:08:54  -974.920346c -6.60  -3.94    +91.8164
iter: 127 02:11:34  -974.921176c -6.34  -4.00c   +91.8230
iter: 128 02:14:13  -974.920458c -6.65  -3.98    +91.8230
iter: 129 02:16:52  -974.920723c -6.87  -4.28c   +91.8175
iter: 130 02:19:32  -974.920433c -6.97  -3.93    +91.8238
iter: 131 02:22:11  -974.920566c -7.18  -4.38c   +91.8211
iter: 132 02:24:50  -974.920886c -7.05  -4.31c   +91.8209
iter: 133 02:27:29  -974.920434c -7.29  -4.44c   +91.8205
iter: 134 02:30:08  -974.920677c -7.27  -4.28c   +91.8226
iter: 135 02:32:47  -974.920963c -7.11  -4.53c   +91.8225
iter: 136 02:35:26  -974.920692c -7.49c -4.18c   +91.8170

Converged after 136 iterations.

Dipole moment: (0.494926, -25.269319, 0.032624) |e|*Ang

Total magnetic moment: (0.000000, 0.000000, 91.816990)
Local magnetic moments:
   0 Cr ( 0.000000,  0.000000, -2.293203)
   1 Fe ( 0.000000,  0.000000,  2.486536)
   2 Ni ( 0.000000,  0.000000,  0.464270)
   3 Co ( 0.000000,  0.000000,  1.108443)
   4 Ni ( 0.000000,  0.000000,  0.139410)
   5 Cr ( 0.000000,  0.000000,  0.655525)
   6 Fe ( 0.000000,  0.000000,  2.786547)
   7 Cr ( 0.000000,  0.000000, -1.895136)
   8 Cr ( 0.000000,  0.000000,  2.154059)
   9 Cr ( 0.000000,  0.000000, -2.585447)
  10 Ni ( 0.000000,  0.000000,  0.338366)
  11 Cr ( 0.000000,  0.000000, -2.491451)
  12 Cr ( 0.000000,  0.000000,  1.822778)
  13 Cr ( 0.000000,  0.000000, -2.450640)
  14 Fe ( 0.000000,  0.000000,  2.426288)
  15 Cr ( 0.000000,  0.000000,  1.593180)
  16 Ni ( 0.000000,  0.000000,  0.138712)
  17 Ni ( 0.000000,  0.000000,  0.268744)
  18 Fe ( 0.000000,  0.000000,  2.510375)
  19 Cr ( 0.000000,  0.000000, -2.735778)
  20 Cr ( 0.000000,  0.000000,  1.287727)
  21 Ni ( 0.000000,  0.000000,  0.213822)
  22 Cr ( 0.000000,  0.000000, -2.785002)
  23 Ni ( 0.000000,  0.000000,  0.409754)
  24 Fe ( 0.000000,  0.000000,  2.331759)
  25 Co ( 0.000000,  0.000000,  1.028627)
  26 Co ( 0.000000,  0.000000,  1.695737)
  27 Co ( 0.000000,  0.000000,  1.574767)
  28 Cr ( 0.000000,  0.000000, -0.423910)
  29 Fe ( 0.000000,  0.000000,  1.814340)
  30 Fe ( 0.000000,  0.000000,  1.417590)
  31 Co ( 0.000000,  0.000000,  1.608540)
  32 Fe ( 0.000000,  0.000000,  1.399790)
  33 Cr ( 0.000000,  0.000000, -1.294156)
  34 Fe ( 0.000000,  0.000000,  2.133229)
  35 Ni ( 0.000000,  0.000000,  0.415066)
  36 Ni ( 0.000000,  0.000000,  0.392469)
  37 Cr ( 0.000000,  0.000000, -1.190184)
  38 Fe ( 0.000000,  0.000000,  1.944832)
  39 Cr ( 0.000000,  0.000000, -1.311432)
  40 Fe ( 0.000000,  0.000000,  2.225815)
  41 Ni ( 0.000000,  0.000000,  0.067213)
  42 Co ( 0.000000,  0.000000,  1.187354)
  43 Ni ( 0.000000,  0.000000,  0.211557)
  44 Co ( 0.000000,  0.000000,  1.383658)
  45 Cr ( 0.000000,  0.000000, -1.593401)
  46 Ni ( 0.000000,  0.000000,  0.184772)
  47 Co ( 0.000000,  0.000000,  1.628912)
  48 Ni ( 0.000000,  0.000000,  0.442582)
  49 Fe ( 0.000000,  0.000000,  2.135103)
  50 Co ( 0.000000,  0.000000,  0.956401)
  51 Fe ( 0.000000,  0.000000,  2.565499)
  52 Cr ( 0.000000,  0.000000, -1.771962)
  53 Fe ( 0.000000,  0.000000,  2.161317)
  54 Cr ( 0.000000,  0.000000, -1.486950)
  55 Fe ( 0.000000,  0.000000,  2.107410)
  56 Co ( 0.000000,  0.000000,  1.496066)
  57 Co ( 0.000000,  0.000000,  1.223789)
  58 Co ( 0.000000,  0.000000,  1.295533)
  59 Cr ( 0.000000,  0.000000, -1.943956)
  60 Co ( 0.000000,  0.000000,  1.487452)
  61 Cr ( 0.000000,  0.000000, -1.940683)
  62 Co ( 0.000000,  0.000000,  1.205475)
  63 Fe ( 0.000000,  0.000000,  2.118366)
  64 Co ( 0.000000,  0.000000,  1.256923)
  65 Fe ( 0.000000,  0.000000,  2.010403)
  66 Ni ( 0.000000,  0.000000,  0.276754)
  67 Cr ( 0.000000,  0.000000, -1.962999)
  68 Fe ( 0.000000,  0.000000,  2.410032)
  69 Cr ( 0.000000,  0.000000, -2.275120)
  70 Cr ( 0.000000,  0.000000,  1.321775)
  71 Ni ( 0.000000,  0.000000,  0.442354)
  72 Ni ( 0.000000,  0.000000,  0.306756)
  73 Co ( 0.000000,  0.000000,  1.098473)
  74 Fe ( 0.000000,  0.000000,  1.865727)
  75 Fe ( 0.000000,  0.000000,  2.340591)
  76 Ni ( 0.000000,  0.000000,  0.567578)
  77 Ni ( 0.000000,  0.000000,  0.521522)
  78 Fe ( 0.000000,  0.000000,  2.461682)
  79 Co ( 0.000000,  0.000000,  1.375485)
  80 Co ( 0.000000,  0.000000,  1.514560)
  81 Fe ( 0.000000,  0.000000,  2.832974)
  82 Ni ( 0.000000,  0.000000,  0.585532)
  83 Co ( 0.000000,  0.000000,  1.745922)
  84 Fe ( 0.000000,  0.000000,  2.175634)
  85 Ni ( 0.000000,  0.000000,  0.391605)
  86 Ni ( 0.000000,  0.000000,  0.551860)
  87 Co ( 0.000000,  0.000000,  1.618606)
  88 Fe ( 0.000000,  0.000000,  2.424464)
  89 Fe ( 0.000000,  0.000000,  2.370285)
  90 Fe ( 0.000000,  0.000000,  2.326753)
  91 Co ( 0.000000,  0.000000,  1.634034)
  92 Ni ( 0.000000,  0.000000,  0.391548)
  93 Fe ( 0.000000,  0.000000,  2.288106)
  94 Fe ( 0.000000,  0.000000,  1.710570)
  95 Co ( 0.000000,  0.000000,  1.475331)
  96 Co ( 0.000000,  0.000000,  1.606836)
  97 Fe ( 0.000000,  0.000000,  2.614023)
  98 Co ( 0.000000,  0.000000,  1.089815)
  99 Fe ( 0.000000,  0.000000,  2.347671)
 100 Co ( 0.000000,  0.000000,  1.737204)
 101 Co ( 0.000000,  0.000000,  1.886594)
 102 Ni ( 0.000000,  0.000000,  0.421531)
 103 Fe ( 0.000000,  0.000000,  2.649220)
 104 Co ( 0.000000,  0.000000,  1.629208)
 105 Co ( 0.000000,  0.000000,  1.354262)
 106 Ni ( 0.000000,  0.000000,  0.758850)
 107 Fe ( 0.000000,  0.000000,  2.784711)
 108 Ni ( 0.000000,  0.000000,  0.643026)
 109 Cr ( 0.000000,  0.000000, -2.426409)
 110 Co ( 0.000000,  0.000000,  1.620587)
 111 Ni ( 0.000000,  0.000000,  0.638606)
 112 Ni ( 0.000000,  0.000000,  0.646577)
 113 Ni ( 0.000000,  0.000000,  0.355161)
 114 Cr ( 0.000000,  0.000000, -2.477683)
 115 Cr ( 0.000000,  0.000000,  2.740859)
 116 Ni ( 0.000000,  0.000000,  0.606743)
 117 Cr ( 0.000000,  0.000000, -2.313637)
 118 Co ( 0.000000,  0.000000,  0.950899)
 119 Cr ( 0.000000,  0.000000,  2.688391)
 120 Ni ( 0.000000,  0.000000,  0.580268)
 121 Ni ( 0.000000,  0.000000,  0.419304)
 122 Co ( 0.000000,  0.000000,  1.245159)
 123 Cr ( 0.000000,  0.000000, -2.017461)
 124 Cr ( 0.000000,  0.000000, -2.554633)

Energy contributions relative to reference atoms: (reference = -4451268.207082)

Kinetic:       +293.359208
Potential:     -334.360937
External:        +0.000000
XC:            -975.371291
Entropy (-ST):   -5.548881
Local:          +44.226770
--------------------------
Free energy:   -977.695132
Extrapolated:  -974.920692

Dipole-layer corrected work functions: 4.691391, 4.647388 eV

Spin contamination: 54.366166 electrons
Showing all kpts
                      Up                     Down
 Kpt  Band  Eigenvalues  Occupancy  Eigenvalues  Occupancy
  0   606      0.05398    0.99885      1.11261    0.02153
  0   607      0.06626    0.99870      1.12095    0.01984
  0   608      0.07312    0.99861      1.13345    0.01755
  0   609      0.08271    0.99847      1.14309    0.01596

  1   606      0.06722    0.99869      1.13244    0.01772
  1   607      0.07749    0.99855      1.13967    0.01651
  1   608      0.08543    0.99843      1.14517    0.01564
  1   609      0.08806    0.99839      1.15158    0.01468


Fermi level: 0.73094

No gap

Forces in eV/Ang:
  0 Cr    1.19998   -0.67106    0.70589
  1 Fe   -0.56707   -0.23507    1.00932
  2 Ni   -0.34333   -0.30112    0.13664
  3 Co    0.55005   -0.12895    0.04901
  4 Ni   -1.27806    0.59740   -0.27586
  5 Cr    0.22119   -0.15212    0.03935
  6 Fe    1.34350    1.31173    0.56376
  7 Cr   -0.69320   -0.07914   -0.51357
  8 Cr    0.87210   -1.13921    0.29499
  9 Cr   -0.46294    1.41854    0.73396
 10 Ni   -0.27278   -0.73287   -0.29010
 11 Cr    0.77262    0.28485    0.11030
 12 Cr    0.12768    0.68708   -0.38392
 13 Cr   -0.70732   -0.39493   -0.92775
 14 Fe    0.20176    0.70183    0.49486
 15 Cr   -0.68277   -0.59752    0.53676
 16 Ni   -0.03705    0.05038   -2.58584
 17 Ni   -0.09447   -0.57772    1.34865
 18 Fe    0.37295   -0.93630    0.52699
 19 Cr    0.52619   -0.51752   -0.84130
 20 Cr   -0.19387    0.53771    0.17788
 21 Ni    0.41052   -0.02644   -0.83483
 22 Cr   -0.43018    0.36553    0.12465
 23 Ni    0.24089    0.64559   -0.18024
 24 Fe   -0.61036   -0.02751    0.55178
 25 Co    0.29836   -0.18473    0.77161
 26 Co   -1.13202   -0.40873    0.48309
 27 Co    0.43301    0.55300    0.92612
 28 Cr   -0.64715   -0.14412   -0.68463
 29 Fe   -0.07630   -1.19808    0.01399
 30 Fe   -0.02766   -1.59787   -0.03993
 31 Co   -0.36986    0.00397   -0.00125
 32 Fe   -0.92157   -0.13951    0.40377
 33 Cr    0.49675   -0.29641   -0.32286
 34 Fe   -0.15412    1.76023   -0.76994
 35 Ni   -0.37717   -0.62351   -1.40547
 36 Ni    2.42059    0.09061    0.21669
 37 Cr    0.91047    0.84705    0.67585
 38 Fe   -0.20779   -0.11442   -0.70924
 39 Cr    0.33775   -0.25008   -0.33783
 40 Fe   -0.66335   -0.46403    0.37096
 41 Ni    0.82585   -1.44558    0.01757
 42 Co   -0.67815   -0.28392   -0.66065
 43 Ni   -0.06952    1.83729   -0.31446
 44 Co   -0.28912    0.23463    0.68098
 45 Cr   -0.65645    1.44676    0.11017
 46 Ni    1.56419    0.28987    1.06423
 47 Co   -0.12021   -0.12952   -0.64887
 48 Ni   -0.51824    1.67098    0.98241
 49 Fe   -0.24748   -0.52596   -1.71267
 50 Co    0.97250   -0.19343   -0.95428
 51 Fe    0.30199   -0.95583   -0.35737
 52 Cr   -0.17263    0.24770   -0.27067
 53 Fe   -0.87908    0.77507   -0.93995
 54 Cr   -0.35858   -0.26435   -0.19956
 55 Fe   -0.00452   -0.33457    1.70913
 56 Co   -0.22633    0.68963   -0.62827
 57 Co    0.05080    0.77705   -0.13152
 58 Co    0.11512    0.73813    0.36463
 59 Cr   -0.57088    0.58437    0.28476
 60 Co   -0.33274   -0.20141    0.04462
 61 Cr    0.20107   -1.49073    1.10620
 62 Co   -0.28462   -0.05148    0.58763
 63 Fe    1.08060    0.22098    1.11174
 64 Co    0.56866   -1.36036    0.34678
 65 Fe    0.16386   -0.80229    0.36412
 66 Ni   -0.94482    1.12030    0.60983
 67 Cr    0.72812    0.47024    0.31953
 68 Fe    0.00160    1.13027   -0.27332
 69 Cr    0.00641   -0.26311    0.69798
 70 Cr   -0.38030   -1.09552   -0.35564
 71 Ni   -0.11858   -0.35082   -0.22219
 72 Ni   -1.36595   -0.55152   -0.57971
 73 Co    1.46832   -0.62554   -0.53299
 74 Fe   -0.37031    0.82943   -0.38921
 75 Fe   -0.47399    0.62737    0.27789
 76 Ni   -0.34177   -0.00093    1.05164
 77 Ni    0.49658    2.82402    1.82111
 78 Fe    0.09837   -0.17947   -0.60548
 79 Co   -0.22984   -0.01190   -0.55944
 80 Co   -0.10883    0.85188   -0.11228
 81 Fe   -0.13642   -0.52887   -0.44165
 82 Ni    0.81369   -0.78131   -1.22172
 83 Co    0.28255    0.20785   -1.12534
 84 Fe   -0.38452   -1.01736   -0.71549
 85 Ni    0.45729   -0.00265   -0.42628
 86 Ni    0.59658    0.61570   -0.50785
 87 Co   -0.08994   -1.09967    0.03264
 88 Fe   -0.26858    0.25152   -0.36756
 89 Fe   -0.01088    0.49090   -0.30677
 90 Fe   -1.01006    0.34436    0.73723
 91 Co    1.57610   -0.05359   -0.38109
 92 Ni   -0.76005    0.56978    0.00273
 93 Fe   -0.71042   -0.45686    0.23433
 94 Fe    0.73279    0.36239   -0.74854
 95 Co   -0.09098    0.36023    0.75709
 96 Co    0.64017   -0.51300   -0.71377
 97 Fe   -0.82117   -1.08131   -0.91712
 98 Co    0.35324    0.38929    0.92851
 99 Fe    0.06261   -0.65141    0.15157
100 Co    0.02013    0.14308   -0.27793
101 Co    0.91540   -0.74353   -0.48947
102 Ni   -0.45568    0.49589   -0.33790
103 Fe   -0.20140    0.62279   -0.41476
104 Co    0.33548    0.20632   -0.07198
105 Co   -0.13243   -0.79233    0.85638
106 Ni   -0.02030    1.07056   -0.95059
107 Fe   -0.66842   -1.03518    1.07419
108 Ni   -0.26691   -1.30461    1.50320
109 Cr   -0.12114   -1.30117    0.95754
110 Co   -0.00490   -0.76763   -1.13566
111 Ni   -0.14714    0.87455    1.05607
112 Ni    0.41556    1.02190    0.08926
113 Ni    0.26929    0.90367   -0.52815
114 Cr   -0.64870    0.81819   -0.03341
115 Cr   -0.00560   -0.56454   -0.46735
116 Ni    0.03555   -0.66895    0.21046
117 Cr   -1.44436   -1.07370    0.37009
118 Co    1.51962   -0.56212    0.27613
119 Cr    0.44416   -0.16739    0.41137
120 Ni    0.23443    0.92134   -0.39141
121 Ni   -1.46238    0.68233   -0.37598
122 Co   -0.03221    0.73522   -0.29629
123 Cr   -1.04835   -0.68730    0.71819
124 Cr    1.55600   -0.39752    0.05095

Timing:                              incl.     excl.
-----------------------------------------------------------
Forces:                             41.495    41.495   0.2% |
Hamiltonian:                         1.774     0.010   0.0% |
 Atomic:                             0.381     0.001   0.0% |
  XC Correction:                     0.380     0.380   0.0% |
 Calculate atomic Hamiltonians:      0.869     0.869   0.0% |
 Communicate:                        0.094     0.094   0.0% |
 Initialize Hamiltonian:             0.000     0.000   0.0% |
 Poisson:                            0.098     0.098   0.0% |
 XC 3D grid:                         0.321     0.321   0.0% |
LCAO initialization:               281.070     0.418   0.0% |
 LCAO eigensolver:                  14.472     0.014   0.0% |
  Calculate projections:             0.000     0.000   0.0% |
  DenseAtomicCorrection:             0.000     0.000   0.0% |
  Distribute overlap matrix:         8.965     8.965   0.0% |
  Orbital Layouts:                   5.430     5.430   0.0% |
  Potential matrix:                  0.007     0.007   0.0% |
  Sum over cells:                    0.057     0.057   0.0% |
 LCAO to grid:                     263.875   263.875   1.2% |
 Set positions (LCAO WFS):           2.304     2.015   0.0% |
  Basic WFS set positions:           0.004     0.004   0.0% |
  Basis functions set positions:     0.001     0.001   0.0% |
  P tci:                             0.000     0.000   0.0% |
  ST tci:                            0.116     0.116   0.0% |
  mktci:                             0.169     0.169   0.0% |
PWDescriptor:                        0.206     0.206   0.0% |
SCF-cycle:                       21993.348     1.227   0.0% |
 Davidson:                       21443.351  6978.225  31.3% |------------|
  Apply H:                         344.008   338.572   1.5% ||
   HMM T:                            5.436     5.436   0.0% |
  Subspace diag:                  2283.186     0.046   0.0% |
   calc_h_matrix:                  912.664   602.561   2.7% ||
    Apply H:                       310.104   304.441   1.4% ||
     HMM T:                          5.663     5.663   0.0% |
   diagonalize:                    210.722   210.722   0.9% |
   rotate_psi:                    1159.752  1159.752   5.2% |-|
  calc. matrices:                 5290.894  4722.100  21.2% |-------|
   Apply H:                        568.794   556.987   2.5% ||
    HMM T:                          11.807    11.807   0.1% |
  diagonalize:                    4099.320  4099.320  18.4% |------|
  rotate_psi:                     2447.720  2447.720  11.0% |---|
 Density:                          296.462     0.004   0.0% |
  Atomic density matrices:           3.714     3.714   0.0% |
  Mix:                             138.872   138.872   0.6% |
  Multipole moments:                 0.094     0.094   0.0% |
  Pseudo density:                  153.778   153.771   0.7% |
   Symmetrize density:               0.007     0.007   0.0% |
 Hamiltonian:                      232.608     1.403   0.0% |
  Atomic:                           53.081     0.184   0.0% |
   XC Correction:                   52.896    52.896   0.2% |
  Calculate atomic Hamiltonians:   116.419   116.419   0.5% |
  Communicate:                      13.127    13.127   0.1% |
  Poisson:                           5.238     5.238   0.0% |
  XC 3D grid:                       43.341    43.341   0.2% |
 Orthonormalize:                    19.699     0.000   0.0% |
  calc_s_matrix:                     2.400     2.400   0.0% |
  inverse-cholesky:                  0.920     0.920   0.0% |
  projections:                      12.160    12.160   0.1% |
  rotate_psi_s:                      4.218     4.218   0.0% |
Set symmetry:                        0.001     0.001   0.0% |
Other:                               7.151     7.151   0.0% |
-----------------------------------------------------------
Total:                                     22325.045 100.0%

Date: Tue Apr 18 02:36:11 2023
