
  ___ ___ ___ _ _ _  
 |   |   |_  | | | | 
 | | | | | . | | | | 
 |__ |  _|___|_____|  22.8.0
 |___|_|             

User:   c.zeng@d0022
Date:   Thu Apr 13 20:03:05 2023
Arch:   x86_64
Pid:    158524
CWD:    /home/c.zeng/projects/hea-corrosion/hea-mlp/data-curation/bulk-md/dft-jobs/26
Python: 3.8.1
gpaw:   /home/c.zeng/usr/installs/gpaw/source/gpaw-22.8.0/gpaw
_gpaw:  /home/c.zeng/usr/installs/gpaw/source/gpaw-22.8.0/
        _gpaw.cpython-38-x86_64-linux-gnu.so
ase:    /home/c.zeng/.local/lib/python3.8/site-packages/ase-3.22.1-py3.8.egg/ase (version 3.22.1)
numpy:  /shared/centos7/python/3.8.1/lib/python3.8/site-packages/numpy (version 1.17.4)
scipy:  /shared/centos7/python/3.8.1/lib/python3.8/site-packages/scipy (version 1.4.1)
libxc:  4.2.3
units:  Angstrom and eV
cores: 30
OpenMP: False
OMP_NUM_THREADS: 1

Input parameters:
  convergence: {energy: 0.0001}
  kpts: [2 2 2]
  maxiter: 666
  mode: {ecut: 350.0,
         name: pw}
  occupations: {fixmagmom: False,
                name: fermi-dirac,
                width: 0.1}
  spinpol: True
  xc: PBE

System changes: positions, numbers, cell, pbc, initial_charges, initial_magmoms 

Initialize ...

species:
  Cr:
    name: Chromium
    id: 33f258bda2ca9f93018e70263a35547b
    Z: 24.0
    valence: 6
    core: 18
    charge: 0.0
    file: /home/c.zeng/usr/data/gpaw-setups-0.9.20000/Cr.PBE.gz
    compensation charges: {type: gauss,
                           rc: 0.35,
                           lmax: 2}
    cutoffs: {filter: 2.14,
              core: 3.04}
    valence states:
      #              energy  rcut
      - 4s(1.00)    -4.007   1.164
      - 4p(0.00)    -0.989   1.217
      - 3d(5.00)    -2.913   1.111
      -  s          23.205   1.164
      -  p          26.223   1.217
      -  d          24.299   1.111
  
    # Using partial waves for Cr as LCAO basis

  Al:
    name: Aluminium
    id: 0292cae29f5d6237e50f6abdd43a7bdd
    Z: 13.0
    valence: 3
    core: 10
    charge: 0.0
    file: /home/c.zeng/usr/data/gpaw-setups-0.9.20000/Al.PBE.gz
    compensation charges: {type: gauss,
                           rc: 0.34,
                           lmax: 2}
    cutoffs: {filter: 1.91,
              core: 2.36}
    valence states:
      #              energy  rcut
      - 3s(2.00)    -7.753   1.085
      - 3p(1.00)    -2.712   1.085
      -  s          19.459   1.085
      -  p          24.499   1.085
      -  d           0.000   1.085
  
    # Using partial waves for Al as LCAO basis

  Co:
    name: Cobalt
    id: 339d20d5b0b93d2de9531a1bee871d91
    Z: 27.0
    valence: 9
    core: 18
    charge: 0.0
    file: /home/c.zeng/usr/data/gpaw-setups-0.9.20000/Co.PBE.gz
    compensation charges: {type: gauss,
                           rc: 0.32,
                           lmax: 2}
    cutoffs: {filter: 1.87,
              core: 2.55}
    valence states:
      #              energy  rcut
      - 4s(2.00)    -5.469   1.005
      - 4p(0.00)    -1.277   1.058
      - 3d(7.00)    -8.205   1.005
      -  s          21.742   1.005
      -  p          25.934   1.058
      -  d          19.007   1.005
  
    # Using partial waves for Co as LCAO basis

  Fe:
    name: Iron
    id: 37abbd8d6c3c35915a9b583b742da910
    Z: 26.0
    valence: 8
    core: 18
    charge: 0.0
    file: /home/c.zeng/usr/data/gpaw-setups-0.9.20000/Fe.PBE.gz
    compensation charges: {type: gauss,
                           rc: 0.33,
                           lmax: 2}
    cutoffs: {filter: 2.06,
              core: 2.67}
    valence states:
      #              energy  rcut
      - 4s(2.00)    -5.291   1.164
      - 4p(0.00)    -1.326   1.058
      - 3d(6.00)    -7.505   1.058
      -  s          21.920   1.164
      -  p          25.885   1.058
      -  d          19.706   1.058
  
    # Using partial waves for Fe as LCAO basis

  Ni:
    name: Nickel
    id: 0d9f38a9d6e76a2886f07bb4381f212b
    Z: 28.0
    valence: 16
    core: 12
    charge: 0.0
    file: /home/c.zeng/usr/data/gpaw-setups-0.9.20000/Ni.PBE.gz
    compensation charges: {type: gauss,
                           rc: 0.36,
                           lmax: 2}
    cutoffs: {filter: 2.14,
              core: 1.98}
    valence states:
      #              energy  rcut
      - 4s(2.00)    -5.642   1.164
      - 3p(6.00)   -71.394   1.207
      - 4p(0.00)    -1.226   1.207
      - 3d(8.00)    -8.875   1.138
      -  s          21.570   1.164
      -  d          18.337   1.138
  
    # Using partial waves for Ni as LCAO basis

Reference energy: -3699400.456887  # eV

Spin-polarized calculation.
Magnetic moment: 143.500000

Convergence criteria:
 Maximum [total energy] change in last 3 cyles: 0.0001 eV / electron
 Maximum integral of absolute [dens]ity change: 0.0001 electrons / valence electron
 Maximum integral of absolute [eigenst]ate change: 4e-08 eV^2 / valence electron
 Maximum number of scf [iter]ations: 666
 (Square brackets indicate name in SCF output, whereas a 'c' in
 the SCF output indicates the quantity has converged.)

Symmetries present (total): 1

  ( 1  0  0)
  ( 0  1  0)
  ( 0  0  1)

8 k-points: 2 x 2 x 2 Monkhorst-Pack grid
4 k-points in the irreducible part of the Brillouin zone
       k-points in crystal coordinates                weights
   0:     0.25000000   -0.25000000   -0.25000000          2/8
   1:     0.25000000   -0.25000000    0.25000000          2/8
   2:     0.25000000    0.25000000   -0.25000000          2/8
   3:     0.25000000    0.25000000    0.25000000          2/8

Wave functions: Plane wave expansion
  Cutoff energy: 350.000 eV
  Number of coefficients (min, max): 18052, 18052
  Pulay-stress correction: 0.000000 eV/Ang^3 (de/decut=0.000000)
  Using FFTW library
  ScaLapack parameters: grid=1x1, blocksize=None
  Wavefunction extrapolation:
    Improved wavefunction reuse through dual PAW basis 

Occupation numbers: Fermi-Dirac:
  width: 0.1000  # eV
 

Eigensolver
   Davidson(niter=2) 

Densities:
  Coarse grid: 48*48*48 grid
  Fine grid: 96*96*96 grid
  Total Charge: 0.000000 

Density mixing:
  Method: difference
  Backend: pulay
  Linear mixing parameter: 0.05
  old densities: 5
  Damping of long wavelength oscillations: 50 

Hamiltonian:
  XC and Coulomb potentials evaluated on a 96*96*96 grid
  Using the PBE Exchange-Correlation functional
  External potential:
    NoExternalPotential
 

XC parameters: PBE with 2 nearest neighbor stencil

Memory estimate:
  Process memory now: 248.29 MiB
  Calculator: 1062.64 MiB
    Density: 5.44 MiB
      Arrays: 2.05 MiB
      Localized functions: 2.57 MiB
      Mixer: 0.82 MiB
    Hamiltonian: 1.60 MiB
      Arrays: 1.52 MiB
      XC: 0.00 MiB
      Poisson: 0.00 MiB
      vbar: 0.08 MiB
    Wavefunctions: 1055.59 MiB
      Arrays psit_nG: 774.57 MiB
      Eigensolver: 270.45 MiB
      Projections: 5.49 MiB
      Projectors: 0.70 MiB
      PW-descriptor: 4.38 MiB

Total number of cores used: 30
Parallelization over k-points: 2
Domain decomposition: 5 x 3 x 1

Number of atoms: 108
Number of atomic orbitals: 1025
Number of bands in calculation: 703
Number of valence electrons: 1020
Bands to converge: occupied

... initialized

Initializing position-dependent things.

Density initialized from atomic densities
Creating initial wave functions:
  703 bands from LCAO basis set

        .----------------Cr-------.  
       /|           Cr            |  
      / |   Fe        Al      Co  |  
     /  |     Cor        Fe       |  
    /   |Fe                     NiCr 
   /Co  | NiFe     CrFe    Cr     |  
  /     |  Fe Co    CNi Fe   NNi  |  
 *    FeCoFe  NiNi     CoCo       |  
 |Fe   NiCoCr   CoNiCo    Cr      |  
 |  Ni  | FeCo Alo NNi   FeNi     |  
 |   FCr|  Ni CCo   FeFeCr   Fe   |  
 |    CrNCr Cr CFe CrNiNiNi   Ni  |  
 |      |NNi   Co CrCo Cr FeCo  Ni|  
 |      .--FCrNi--Co-CoFe--CrFe--Cr  
 |   Cre   NiFe       NiNi  CrCo /   
 |    CFe      Alr        Co    /    
 |   /                    CFe  /     
 |  /     Cr     Co Co      Al/      
 | /                         /       
 |/   Co        Fe          /        
 *-------------------------*         

Positions:
   0 Cr    -0.202812   -0.382503   10.709990    ( 0.0000,  0.0000,  0.0000)
   1 Al    10.472400    1.820486    1.754095    ( 0.0000,  0.0000,  0.0000)
   2 Cr     1.612964   10.434444    1.910540    ( 0.0000,  0.0000,  0.0000)
   3 Co     1.695461    1.637462   10.831926    ( 0.0000,  0.0000,  2.1000)
   4 Fe     3.543372    0.131707   -0.382616    ( 0.0000,  0.0000,  2.0000)
   5 Cr     3.407869    1.745317    1.688608    ( 0.0000,  0.0000,  0.0000)
   6 Ni     5.163975   10.641304    1.477238    ( 0.0000,  0.0000,  1.5000)
   7 Fe     5.574015    1.889204    0.101728    ( 0.0000,  0.0000,  2.0000)
   8 Cr     7.178991   -0.046242   -0.008843    ( 0.0000,  0.0000,  0.0000)
   9 Co     7.359231    1.807723    1.771256    ( 0.0000,  0.0000,  2.1000)
  10 Ni     8.912447   10.619392    1.716361    ( 0.0000,  0.0000,  1.5000)
  11 Fe     8.878165    1.740942   10.570114    ( 0.0000,  0.0000,  2.0000)
  12 Co     0.195838    3.703476   10.585385    ( 0.0000,  0.0000,  2.1000)
  13 Co    -0.121214    5.498429    1.831231    ( 0.0000,  0.0000,  2.1000)
  14 Fe     1.561418    3.755503    1.744175    ( 0.0000,  0.0000,  2.0000)
  15 Fe     1.685790    5.384895   -0.072643    ( 0.0000,  0.0000,  2.0000)
  16 Fe     3.537429    3.489062   -0.042316    ( 0.0000,  0.0000,  2.0000)
  17 Fe     3.391700    5.205249    1.829267    ( 0.0000,  0.0000,  2.0000)
  18 Cr     5.474106    3.265227    1.972951    ( 0.0000,  0.0000,  0.0000)
  19 Co     5.243823    5.091358    0.001876    ( 0.0000,  0.0000,  2.1000)
  20 Fe     7.197657    3.759481   10.590126    ( 0.0000,  0.0000,  2.0000)
  21 Ni     6.990560    5.335175    1.656161    ( 0.0000,  0.0000,  1.5000)
  22 Co     9.067841    3.797277    1.729859    ( 0.0000,  0.0000,  2.1000)
  23 Cr     8.855889    5.565020    0.120421    ( 0.0000,  0.0000,  0.0000)
  24 Cr     0.071454    7.201446    0.033707    ( 0.0000,  0.0000,  0.0000)
  25 Ni    -0.174555    8.675754    1.956278    ( 0.0000,  0.0000,  1.5000)
  26 Fe     2.001809    7.184168    1.676607    ( 0.0000,  0.0000,  2.0000)
  27 Ni     1.798425    8.775528   10.733461    ( 0.0000,  0.0000,  1.5000)
  28 Co     3.500694    6.940422   -0.078371    ( 0.0000,  0.0000,  2.1000)
  29 Co     3.418801    8.968334    1.717733    ( 0.0000,  0.0000,  2.1000)
  30 Co     5.101610    6.971885    1.585508    ( 0.0000,  0.0000,  2.1000)
  31 Cr     5.270468    8.917811   -0.164863    ( 0.0000,  0.0000,  0.0000)
  32 Al     6.841638    7.194197   10.551604    ( 0.0000,  0.0000,  0.0000)
  33 Cr     6.593586    9.009329    1.904946    ( 0.0000,  0.0000,  0.0000)
  34 Cr     8.677181    7.160003    1.907191    ( 0.0000,  0.0000,  0.0000)
  35 Cr     8.702435    8.653065   10.790657    ( 0.0000,  0.0000,  0.0000)
  36 Fe    10.606697   10.761243    3.592989    ( 0.0000,  0.0000,  2.0000)
  37 Co    10.660114    1.739561    5.380831    ( 0.0000,  0.0000,  2.1000)
  38 Cr     1.640414   10.737671    5.255754    ( 0.0000,  0.0000,  0.0000)
  39 Fe     1.578146    1.952496    3.587258    ( 0.0000,  0.0000,  2.0000)
  40 Co     3.348953   10.562683    3.601741    ( 0.0000,  0.0000,  2.1000)
  41 Ni     3.128167    1.922203    5.450989    ( 0.0000,  0.0000,  1.5000)
  42 Ni     5.294001    0.079106    5.448958    ( 0.0000,  0.0000,  1.5000)
  43 Al     5.305669    1.710859    3.515457    ( 0.0000,  0.0000,  0.0000)
  44 Fe     7.084267   10.564614    3.469837    ( 0.0000,  0.0000,  2.0000)
  45 Co     7.210509    1.688271    5.249177    ( 0.0000,  0.0000,  2.1000)
  46 Fe     8.894258   10.737893    5.627658    ( 0.0000,  0.0000,  2.0000)
  47 Ni     8.827742    1.743316    3.599579    ( 0.0000,  0.0000,  1.5000)
  48 Fe    -0.189175    3.636333    3.679298    ( 0.0000,  0.0000,  2.0000)
  49 Fe    10.707251    5.422467    5.568148    ( 0.0000,  0.0000,  2.0000)
  50 Ni     1.887544    3.766243    5.435661    ( 0.0000,  0.0000,  1.5000)
  51 Ni     1.671871    5.522884    3.691421    ( 0.0000,  0.0000,  1.5000)
  52 Cr     3.526317    3.445583    3.534538    ( 0.0000,  0.0000,  0.0000)
  53 Co     3.792186    5.141216    5.056921    ( 0.0000,  0.0000,  2.1000)
  54 Fe     5.248588    3.304709    5.282027    ( 0.0000,  0.0000,  2.0000)
  55 Cr     5.516150    5.246853    3.428055    ( 0.0000,  0.0000,  0.0000)
  56 Co     7.325120    3.604665    3.741684    ( 0.0000,  0.0000,  2.1000)
  57 Fe     7.038209    5.332971    5.314947    ( 0.0000,  0.0000,  2.0000)
  58 Ni     8.935614    3.561539    5.500697    ( 0.0000,  0.0000,  1.5000)
  59 Fe     8.786059    5.449517    3.627881    ( 0.0000,  0.0000,  2.0000)
  60 Cr     0.014174    7.166356    3.802172    ( 0.0000,  0.0000,  0.0000)
  61 Ni     0.022880    8.988930    5.336667    ( 0.0000,  0.0000,  1.5000)
  62 Fe     1.879962    7.187278    5.390921    ( 0.0000,  0.0000,  2.0000)
  63 Ni     1.840882    8.654770    3.697264    ( 0.0000,  0.0000,  1.5000)
  64 Co     3.711227    6.801945    3.450971    ( 0.0000,  0.0000,  2.1000)
  65 Co     3.508123    9.093840    5.241674    ( 0.0000,  0.0000,  2.1000)
  66 Ni     5.305248    7.060673    5.275688    ( 0.0000,  0.0000,  1.5000)
  67 Fe     5.271224    8.989817    3.715648    ( 0.0000,  0.0000,  2.0000)
  68 Ni     7.250223    7.305169    3.589630    ( 0.0000,  0.0000,  1.5000)
  69 Al     7.084794    9.189504    5.435195    ( 0.0000,  0.0000,  0.0000)
  70 Ni     8.887426    6.986588    5.555545    ( 0.0000,  0.0000,  1.5000)
  71 Fe     8.992052    8.856019    3.774226    ( 0.0000,  0.0000,  2.0000)
  72 Cr    -0.050625   10.540430    7.194201    ( 0.0000,  0.0000,  0.0000)
  73 Fe    10.769587    1.786105    8.951406    ( 0.0000,  0.0000,  2.0000)
  74 Fe     1.663315   10.419060    8.849919    ( 0.0000,  0.0000,  2.0000)
  75 Cr     1.647967    1.696918    7.215324    ( 0.0000,  0.0000,  0.0000)
  76 Cr     3.407239   10.771647    7.147634    ( 0.0000,  0.0000,  0.0000)
  77 Cr     3.401166    1.867225    8.916949    ( 0.0000,  0.0000,  0.0000)
  78 Al     5.590527    0.139913    8.847724    ( 0.0000,  0.0000,  0.0000)
  79 Co     5.250276    1.748028    7.091810    ( 0.0000,  0.0000,  2.1000)
  80 Cr     7.346005    0.149702    7.270601    ( 0.0000,  0.0000,  0.0000)
  81 Co     7.210214    2.031052    8.911897    ( 0.0000,  0.0000,  2.1000)
  82 Co     8.942136   -0.024906    9.027054    ( 0.0000,  0.0000,  2.1000)
  83 Cr     8.917325    1.919575    7.190161    ( 0.0000,  0.0000,  0.0000)
  84 Ni     0.316117    3.416459    7.042406    ( 0.0000,  0.0000,  1.5000)
  85 Ni    -0.177192    5.275979    8.866473    ( 0.0000,  0.0000,  1.5000)
  86 Co     1.985089    3.847702    8.785612    ( 0.0000,  0.0000,  2.1000)
  87 Co     1.940800    5.289299    7.132258    ( 0.0000,  0.0000,  2.1000)
  88 Co     3.619660    3.666503    6.964319    ( 0.0000,  0.0000,  2.1000)
  89 Co     3.652937    5.616693    8.749855    ( 0.0000,  0.0000,  2.1000)
  90 Ni     5.312915    3.531563    8.846235    ( 0.0000,  0.0000,  1.5000)
  91 Ni     5.392437    5.254758    6.947321    ( 0.0000,  0.0000,  1.5000)
  92 Ni     7.075157    3.434188    7.050224    ( 0.0000,  0.0000,  1.5000)
  93 Ni     6.814006    5.285538    8.716994    ( 0.0000,  0.0000,  1.5000)
  94 Co     8.895224    3.704508    8.862860    ( 0.0000,  0.0000,  2.1000)
  95 Cr     9.003708    5.179808    7.148389    ( 0.0000,  0.0000,  0.0000)
  96 Fe     0.044243    7.111519    7.031136    ( 0.0000,  0.0000,  2.0000)
  97 Ni    -0.194231    8.677051    8.827084    ( 0.0000,  0.0000,  1.5000)
  98 Ni     1.804704    7.164819    8.795683    ( 0.0000,  0.0000,  1.5000)
  99 Fe     1.797044    8.845061    7.134301    ( 0.0000,  0.0000,  2.0000)
 100 Ni     3.584468    7.128336    6.866160    ( 0.0000,  0.0000,  1.5000)
 101 Cr     3.502939    8.864274    8.977394    ( 0.0000,  0.0000,  0.0000)
 102 Cr     5.275922    7.182389    8.644086    ( 0.0000,  0.0000,  0.0000)
 103 Cr     5.289499    8.957156    6.994593    ( 0.0000,  0.0000,  0.0000)
 104 Co     6.952804    7.062275    7.129072    ( 0.0000,  0.0000,  2.1000)
 105 Fe     7.268274    8.975595    8.913680    ( 0.0000,  0.0000,  2.0000)
 106 Cr     8.815610    6.964269    8.973393    ( 0.0000,  0.0000,  0.0000)
 107 Ni     9.007101    8.776145    7.056132    ( 0.0000,  0.0000,  1.5000)

Unit cell:
           periodic     x           y           z      points  spacing
  1. axis:    yes   10.671700    0.000000    0.000000    48     0.2223
  2. axis:    yes    0.000000   10.671700    0.000000    48     0.2223
  3. axis:    yes    0.000000    0.000000   10.671700    48     0.2223

  Lengths:  10.671700  10.671700  10.671700
  Angles:   90.000000  90.000000  90.000000

Effective grid spacing dv^(1/3) = 0.2223

     iter     time        total  log10-change:  magmom
                         energy  eigst   dens
iter:   1 20:08:01 -1037.242655                  +143.7778
iter:   2 20:09:58  -920.618400  -0.25  -1.21    +82.2404
iter:   3 20:11:55  -904.274931  -0.92  -1.23    +70.5369
iter:   4 20:13:53  -887.634967  -1.31  -1.30    +66.3577
iter:   5 20:15:50  -872.807609  -1.59  -1.32    +63.6385
iter:   6 20:17:48  -871.347169  -1.28  -1.39    +64.2119
iter:   7 20:19:45  -873.530713  -1.27  -1.47    +63.8017
iter:   8 20:21:42  -856.131750  -1.70  -1.54    +63.1674
iter:   9 20:23:40  -855.064220  -2.15  -1.76    +64.4575
iter:  10 20:25:37  -855.659086  -2.51  -1.84    +66.2295
iter:  11 20:27:35  -855.692259  -2.59  -1.84    +67.3674
iter:  12 20:29:32  -856.788250  -2.46  -1.90    +68.9629
iter:  13 20:31:30  -857.005362  -2.49  -1.94    +69.3670
iter:  14 20:33:26  -856.785053  -2.48  -2.00    +70.4293
iter:  15 20:35:24  -856.594271  -2.81  -2.04    +70.9063
iter:  16 20:37:21  -856.129396  -3.06  -2.10    +71.1272
iter:  17 20:39:19  -856.106922  -3.24  -2.18    +71.6222
iter:  18 20:41:16  -856.134315c -3.26  -2.25    +71.8681
iter:  19 20:43:13  -856.246615  -3.07  -2.32    +72.1135
iter:  20 20:45:11  -856.082884  -3.46  -2.35    +72.2635
iter:  21 20:47:08  -856.108570  -3.44  -2.42    +72.3645
iter:  22 20:49:06  -856.145742c -3.45  -2.47    +72.4271
iter:  23 20:51:04  -856.059564c -3.56  -2.48    +72.5329
iter:  24 20:53:01  -856.043809c -3.66  -2.58    +72.5274
iter:  25 20:54:58  -856.104004c -3.77  -2.65    +72.5935
iter:  26 20:56:56  -856.085322c -3.88  -2.63    +72.6114
iter:  27 20:58:54  -856.085073c -4.05  -2.68    +72.5742
iter:  28 21:00:51  -856.074128c -4.12  -2.70    +72.5852
iter:  29 21:02:48  -856.084184c -4.31  -2.78    +72.5854
iter:  30 21:04:45  -856.087006c -4.49  -2.80    +72.5547
iter:  31 21:06:43  -856.097661c -4.54  -2.84    +72.5411
iter:  32 21:08:40  -856.109729c -4.51  -2.87    +72.5274
iter:  33 21:10:38  -856.113288c -4.49  -2.90    +72.4650
iter:  34 21:12:35  -856.112438c -4.58  -2.92    +72.4547
iter:  35 21:14:32  -856.117687c -4.75  -3.01    +72.4406
iter:  36 21:16:30  -856.124196c -4.80  -3.04    +72.3855
iter:  37 21:18:28  -856.129820c -4.75  -3.07    +72.3742
iter:  38 21:20:25  -856.139432c -4.66  -3.12    +72.3062
iter:  39 21:22:22  -856.138603c -4.81  -3.13    +72.2848
iter:  40 21:24:20  -856.143876c -4.95  -3.18    +72.2562
iter:  41 21:26:17  -856.146622c -4.98  -3.21    +72.2046
iter:  42 21:28:15  -856.150120c -5.09  -3.25    +72.1725
iter:  43 21:30:12  -856.154797c -5.10  -3.28    +72.1547
iter:  44 21:32:09  -856.155690c -5.16  -3.30    +72.0949
iter:  45 21:34:06  -856.157035c -5.36  -3.35    +72.0699
iter:  46 21:36:04  -856.160647c -5.41  -3.40    +72.0419
iter:  47 21:38:01  -856.161125c -5.42  -3.43    +72.0039
iter:  48 21:39:58  -856.163741c -5.46  -3.45    +71.9731
iter:  49 21:41:56  -856.164607c -5.57  -3.47    +71.9604
iter:  50 21:43:53  -856.166414c -5.60  -3.53    +71.9090
iter:  51 21:45:50  -856.168451c -5.62  -3.55    +71.8796
iter:  52 21:47:48  -856.170483c -5.60  -3.57    +71.8459
iter:  53 21:49:45  -856.170891c -5.67  -3.61    +71.8087
iter:  54 21:51:42  -856.172924c -5.73  -3.62    +71.7784
iter:  55 21:53:39  -856.174107c -5.79  -3.66    +71.7523
iter:  56 21:55:37  -856.176142c -5.58  -3.69    +71.6854
iter:  57 21:57:34  -856.177324c -5.83  -3.70    +71.6687
iter:  58 21:59:32  -856.179431c -5.73  -3.74    +71.6271
iter:  59 22:01:30  -856.180214c -5.71  -3.76    +71.5798
iter:  60 22:03:27  -856.181464c -6.00  -3.77    +71.5609
iter:  61 22:05:24  -856.182587c -5.95  -3.82    +71.5299
iter:  62 22:07:22  -856.184237c -5.71  -3.85    +71.4733
iter:  63 22:09:19  -856.184635c -6.03  -3.86    +71.4682
iter:  64 22:11:16  -856.185551c -6.09  -3.95    +71.4461
iter:  65 22:13:14  -856.185226c -6.14  -3.98    +71.4327
iter:  66 22:15:11  -856.186121c -6.38  -3.96    +71.4221
iter:  67 22:17:09  -856.186478c -6.41  -4.05c   +71.4051
iter:  68 22:19:06  -856.187374c -6.20  -4.09c   +71.3832
iter:  69 22:21:03  -856.187978c -6.18  -4.09c   +71.3551
iter:  70 22:23:01  -856.189399c -5.74  -4.13c   +71.3105
iter:  71 22:24:58  -856.191274c -5.32  -4.10c   +71.2298
iter:  72 22:26:56  -856.194046c -4.96  -3.99    +71.1252
iter:  73 22:28:54  -856.192629c -5.95  -3.78    +71.1858
iter:  74 22:30:51  -856.193866c -5.99  -3.88    +71.1633
iter:  75 22:32:35  -856.193502c -6.58  -3.86    +71.1781
iter:  76 22:34:07  -856.193940c -6.11  -3.86    +71.1722
iter:  77 22:35:40  -856.193506c -6.12  -3.74    +71.1740
iter:  78 22:37:12  -856.194099c -5.91  -3.99    +71.1670
iter:  79 22:38:45  -856.193580c -6.12  -3.83    +71.1644
iter:  80 22:40:17  -856.193630c -6.66  -3.93    +71.1572
iter:  81 22:41:49  -856.193520c -6.93  -4.07c   +71.1532
iter:  82 22:43:22  -856.193841c -6.58  -4.11c   +71.1529
iter:  83 22:44:54  -856.194108c -6.61  -4.05c   +71.1527
iter:  84 22:46:27  -856.193681c -6.35  -4.14c   +71.1517
iter:  85 22:47:59  -856.193849c -6.92  -4.35c   +71.1548
iter:  86 22:49:31  -856.193788c -7.07  -4.38c   +71.1568
iter:  87 22:51:04  -856.193920c -7.24  -4.44c   +71.1595
iter:  88 22:52:36  -856.193786c -7.28  -4.44c   +71.1615
iter:  89 22:54:08  -856.193964c -7.29  -4.51c   +71.1636
iter:  90 22:55:41  -856.193903c -7.30  -4.54c   +71.1661
iter:  91 22:57:13  -856.193958c -7.49c -4.58c   +71.1671

Converged after 91 iterations.

Dipole moment: (25.074755, 19.942252, 17.847038) |e|*Ang

Total magnetic moment: (0.000000, 0.000000, 71.167131)
Local magnetic moments:
   0 Cr ( 0.000000,  0.000000, -1.299832)
   1 Al ( 0.000000,  0.000000, -0.038611)
   2 Cr ( 0.000000,  0.000000, -1.729123)
   3 Co ( 0.000000,  0.000000,  0.725327)
   4 Fe ( 0.000000,  0.000000,  1.485312)
   5 Cr ( 0.000000,  0.000000, -1.681767)
   6 Ni ( 0.000000,  0.000000,  0.116018)
   7 Fe ( 0.000000,  0.000000,  2.112701)
   8 Cr ( 0.000000,  0.000000, -0.909316)
   9 Co ( 0.000000,  0.000000,  1.262534)
  10 Ni ( 0.000000,  0.000000,  0.159613)
  11 Fe ( 0.000000,  0.000000,  2.295079)
  12 Co ( 0.000000,  0.000000,  1.420704)
  13 Co ( 0.000000,  0.000000,  1.034135)
  14 Fe ( 0.000000,  0.000000,  2.252243)
  15 Fe ( 0.000000,  0.000000,  2.258601)
  16 Fe ( 0.000000,  0.000000,  2.296340)
  17 Fe ( 0.000000,  0.000000,  2.076298)
  18 Cr ( 0.000000,  0.000000,  0.579316)
  19 Co ( 0.000000,  0.000000,  1.464804)
  20 Fe ( 0.000000,  0.000000,  2.256886)
  21 Ni ( 0.000000,  0.000000,  0.207672)
  22 Co ( 0.000000,  0.000000,  1.373362)
  23 Cr ( 0.000000,  0.000000, -0.091537)
  24 Cr ( 0.000000,  0.000000, -1.364399)
  25 Ni ( 0.000000,  0.000000, -0.005785)
  26 Fe ( 0.000000,  0.000000,  2.331877)
  27 Ni ( 0.000000,  0.000000,  0.172784)
  28 Co ( 0.000000,  0.000000,  1.392315)
  29 Co ( 0.000000,  0.000000,  1.239659)
  30 Co ( 0.000000,  0.000000,  1.318259)
  31 Cr ( 0.000000,  0.000000,  0.846827)
  32 Al ( 0.000000,  0.000000, -0.010657)
  33 Cr ( 0.000000,  0.000000, -1.269995)
  34 Cr ( 0.000000,  0.000000, -0.671667)
  35 Cr ( 0.000000,  0.000000,  0.776889)
  36 Fe ( 0.000000,  0.000000,  2.039998)
  37 Co ( 0.000000,  0.000000,  0.698111)
  38 Cr ( 0.000000,  0.000000, -1.027453)
  39 Fe ( 0.000000,  0.000000,  1.982937)
  40 Co ( 0.000000,  0.000000,  0.900522)
  41 Ni ( 0.000000,  0.000000,  0.233159)
  42 Ni ( 0.000000,  0.000000,  0.298988)
  43 Al ( 0.000000,  0.000000, -0.009114)
  44 Fe ( 0.000000,  0.000000,  2.109003)
  45 Co ( 0.000000,  0.000000,  1.350084)
  46 Fe ( 0.000000,  0.000000,  1.480371)
  47 Ni ( 0.000000,  0.000000,  0.532592)
  48 Fe ( 0.000000,  0.000000,  2.478511)
  49 Fe ( 0.000000,  0.000000,  1.983620)
  50 Ni ( 0.000000,  0.000000,  0.460963)
  51 Ni ( 0.000000,  0.000000,  0.386370)
  52 Cr ( 0.000000,  0.000000, -1.107409)
  53 Co ( 0.000000,  0.000000,  1.042862)
  54 Fe ( 0.000000,  0.000000,  2.220570)
  55 Cr ( 0.000000,  0.000000, -1.676781)
  56 Co ( 0.000000,  0.000000,  1.361790)
  57 Fe ( 0.000000,  0.000000,  2.287850)
  58 Ni ( 0.000000,  0.000000,  0.261337)
  59 Fe ( 0.000000,  0.000000,  2.207005)
  60 Cr ( 0.000000,  0.000000, -1.817156)
  61 Ni ( 0.000000,  0.000000,  0.216991)
  62 Fe ( 0.000000,  0.000000,  2.248403)
  63 Ni ( 0.000000,  0.000000,  0.365064)
  64 Co ( 0.000000,  0.000000,  1.364846)
  65 Co ( 0.000000,  0.000000,  1.003938)
  66 Ni ( 0.000000,  0.000000,  0.402660)
  67 Fe ( 0.000000,  0.000000,  2.196053)
  68 Ni ( 0.000000,  0.000000,  0.158584)
  69 Al ( 0.000000,  0.000000, -0.029333)
  70 Ni ( 0.000000,  0.000000,  0.334928)
  71 Fe ( 0.000000,  0.000000,  2.250965)
  72 Cr ( 0.000000,  0.000000, -0.820698)
  73 Fe ( 0.000000,  0.000000,  2.178689)
  74 Fe ( 0.000000,  0.000000,  1.670336)
  75 Cr ( 0.000000,  0.000000,  0.091049)
  76 Cr ( 0.000000,  0.000000,  0.268404)
  77 Cr ( 0.000000,  0.000000, -1.234312)
  78 Al ( 0.000000,  0.000000, -0.022908)
  79 Co ( 0.000000,  0.000000,  1.119717)
  80 Cr ( 0.000000,  0.000000, -1.010223)
  81 Co ( 0.000000,  0.000000,  1.009182)
  82 Co ( 0.000000,  0.000000,  0.289355)
  83 Cr ( 0.000000,  0.000000,  0.070803)
  84 Ni ( 0.000000,  0.000000,  0.289775)
  85 Ni ( 0.000000,  0.000000,  0.300809)
  86 Co ( 0.000000,  0.000000,  1.353332)
  87 Co ( 0.000000,  0.000000,  1.565876)
  88 Co ( 0.000000,  0.000000,  1.416507)
  89 Co ( 0.000000,  0.000000,  1.332012)
  90 Ni ( 0.000000,  0.000000,  0.444303)
  91 Ni ( 0.000000,  0.000000,  0.487763)
  92 Ni ( 0.000000,  0.000000,  0.302725)
  93 Ni ( 0.000000,  0.000000,  0.293288)
  94 Co ( 0.000000,  0.000000,  0.999658)
  95 Cr ( 0.000000,  0.000000, -1.493776)
  96 Fe ( 0.000000,  0.000000,  2.160994)
  97 Ni ( 0.000000,  0.000000,  0.147632)
  98 Ni ( 0.000000,  0.000000,  0.361301)
  99 Fe ( 0.000000,  0.000000,  1.830611)
 100 Ni ( 0.000000,  0.000000,  0.489720)
 101 Cr ( 0.000000,  0.000000, -0.794166)
 102 Cr ( 0.000000,  0.000000, -0.575122)
 103 Cr ( 0.000000,  0.000000,  1.250929)
 104 Co ( 0.000000,  0.000000,  0.948647)
 105 Fe ( 0.000000,  0.000000,  1.153337)
 106 Cr ( 0.000000,  0.000000,  0.674736)
 107 Ni ( 0.000000,  0.000000,  0.235568)

Energy contributions relative to reference atoms: (reference = -3699400.456887)

Kinetic:       +379.242180
Potential:     -383.202224
External:        +0.000000
XC:            -887.371050
Entropy (-ST):   -4.471003
Local:          +37.372637
--------------------------
Free energy:   -858.429459
Extrapolated:  -856.193958

Spin contamination: 25.264345 electrons
Showing only first 2 kpts
                      Up                     Down
 Kpt  Band  Eigenvalues  Occupancy  Eigenvalues  Occupancy
  0   508      9.63807    0.99668     10.62568    0.01520
  0   509      9.64708    0.99637     10.63843    0.01341
  0   510      9.66305    0.99575     10.64716    0.01230
  0   511      9.67362    0.99527     10.66446    0.01037

  1   508      9.64763    0.99635     10.62892    0.01473
  1   509      9.66003    0.99587     10.63853    0.01340
  1   510      9.67353    0.99528     10.65547    0.01133
  1   511      9.68260    0.99483     10.66163    0.01066


Fermi level: 10.20860

No gap

Forces in eV/Ang:
  0 Cr    1.20161    0.73546   -0.60515
  1 Al    0.62311    0.07882   -0.12218
  2 Cr    0.21613    1.03285   -0.34712
  3 Co   -0.47218    0.16543   -0.41431
  4 Fe   -0.03149   -0.05090    1.16622
  5 Cr    0.00781   -0.01846   -0.26855
  6 Ni   -0.36049    1.61776    1.20117
  7 Fe   -0.82289    0.01838   -0.67507
  8 Cr    0.30968    0.25178    0.93618
  9 Co   -0.64770    0.29298    0.05569
 10 Ni   -0.53810   -0.69477    0.91806
 11 Fe   -0.07263    0.72038    0.20222
 12 Co   -1.66630   -1.05430   -0.18615
 13 Co    0.97703    0.88454    0.33176
 14 Fe    0.43772   -1.08151    0.87287
 15 Fe    0.59112    0.69475   -0.24895
 16 Fe   -0.28825    0.18688    0.31430
 17 Fe    0.98622   -0.56491   -0.34055
 18 Cr   -0.38547    3.12982   -2.18960
 19 Co   -0.53056    0.65636    0.22135
 20 Fe    0.14336   -0.75005    0.51468
 21 Ni    0.57136    0.13222    0.68513
 22 Co   -1.42227   -1.17817    0.06265
 23 Cr    0.53587   -0.08683   -0.87383
 24 Cr   -0.22773   -0.91057   -0.07408
 25 Ni    1.26060    0.84727   -0.48442
 26 Fe   -1.55502   -1.26040    1.75593
 27 Ni   -0.48777    1.37859   -1.21928
 28 Co    0.71478    0.77062    0.18626
 29 Co    1.55532   -0.03003    0.74706
 30 Co    0.63470    0.48180    0.73145
 31 Cr   -1.23182    0.57220    0.31502
 32 Al    0.20744   -2.45642    0.78681
 33 Cr    2.23933   -1.51857   -0.61419
 34 Cr    0.56662   -0.16949   -0.80646
 35 Cr    1.21172    0.85419    0.21657
 36 Fe    0.13693   -0.93002   -0.04125
 37 Co   -0.30425    0.24806    0.03414
 38 Cr    0.49145   -0.79934   -0.11288
 39 Fe    0.87595   -0.48429   -0.63422
 40 Co    0.37470    1.73312   -1.03614
 41 Ni    2.57772   -1.75865   -1.01840
 42 Ni   -0.30751    0.79156   -0.70245
 43 Al    0.41445   -3.44815    1.51620
 44 Fe    0.57833    0.96413   -0.15930
 45 Co   -0.90168    0.39100    0.86663
 46 Fe    0.95332    0.16755   -1.69224
 47 Ni    0.83188   -0.31466    0.07326
 48 Fe    0.74771    0.33694    0.09655
 49 Fe    0.09416   -1.18398   -1.06613
 50 Ni   -1.24857    0.05901   -1.97439
 51 Ni    0.53806   -1.29615   -0.91352
 52 Cr   -0.98378    0.67822   -0.68489
 53 Co   -0.77989    0.94668    0.99404
 54 Fe    0.97518    0.62560    0.21619
 55 Cr   -0.42504    0.19326    0.44755
 56 Co   -0.59203   -0.58096   -1.22160
 57 Fe    0.42961    0.09599    0.26623
 58 Ni    0.12793   -0.13005   -0.65954
 59 Fe    0.69553    0.07427   -0.25049
 60 Cr   -0.86246   -1.24218   -0.49937
 61 Ni    0.20692   -0.16882    0.52166
 62 Fe   -0.27849   -0.82619    0.06466
 63 Ni   -0.23877    1.22419   -1.54387
 64 Co   -0.49708    2.22700    0.43960
 65 Co    0.14421   -1.23199    2.11687
 66 Ni    0.46980    0.69890   -0.28144
 67 Fe   -0.98623   -0.61749   -0.82026
 68 Ni   -2.20448   -0.58458    1.14318
 69 Al    0.77596   -2.31000   -0.44813
 70 Ni   -0.70581    0.50450   -1.30375
 71 Fe   -0.83575    0.91129   -0.68789
 72 Cr    0.29416    0.66774    0.48285
 73 Fe   -0.25635    0.16475    0.34150
 74 Fe   -0.49280    1.03967    1.11334
 75 Cr    0.81638   -0.76293    0.23467
 76 Cr    0.32611   -0.43057   -0.12479
 77 Cr    0.44073   -0.08990   -0.30059
 78 Al   -2.21239    0.20273    0.02636
 79 Co    0.08134    0.28698    0.43658
 80 Cr    0.14519    0.15259   -0.76434
 81 Co   -0.25239   -1.37564    0.06115
 82 Co    0.38442    0.13302   -0.83019
 83 Cr    0.67316   -0.24337    0.64851
 84 Ni   -2.55250    1.77391    1.22105
 85 Ni    2.37518    1.00870    0.00541
 86 Co   -0.85904   -1.64421    1.18871
 87 Co   -0.63749    1.87945   -0.41760
 88 Co    0.33457   -0.66031    1.49558
 89 Co    0.06969   -1.62047    0.07686
 90 Ni   -0.84147   -0.69957   -0.20274
 91 Ni   -1.25599   -0.05965   -0.17570
 92 Ni   -0.02966    0.56785   -0.27822
 93 Ni    1.91116    0.63447    1.19359
 94 Co   -0.14051   -1.01178    0.38034
 95 Cr   -1.40474    0.61014   -0.09006
 96 Fe    0.32968   -0.26945    0.99285
 97 Ni    0.93244    0.85851    0.89350
 98 Ni   -0.51705   -0.61235    0.26275
 99 Fe    0.06510    0.73128   -0.63225
100 Ni    0.31196   -0.03995    1.01513
101 Cr    0.37367   -0.42107   -0.87787
102 Cr    0.02419    0.32307   -0.04253
103 Cr   -1.09366   -0.34557    1.45910
104 Co    1.10092    0.75093   -0.24928
105 Fe   -0.78347   -0.76420   -1.40483
106 Cr   -0.40515    0.09792   -1.45435
107 Ni   -1.80067    0.53593    0.50800

Timing:                              incl.     excl.
-----------------------------------------------------------
Forces:                             16.883    16.883   0.2% |
Hamiltonian:                         0.619     0.004   0.0% |
 Atomic:                             0.383     0.160   0.0% |
  XC Correction:                     0.223     0.223   0.0% |
 Calculate atomic Hamiltonians:      0.141     0.141   0.0% |
 Communicate:                        0.001     0.001   0.0% |
 Initialize Hamiltonian:             0.000     0.000   0.0% |
 Poisson:                            0.000     0.000   0.0% |
 XC 3D grid:                         0.090     0.090   0.0% |
LCAO initialization:               161.316     0.924   0.0% |
 LCAO eigensolver:                  16.157     0.014   0.0% |
  Calculate projections:             0.280     0.280   0.0% |
  DenseAtomicCorrection:             0.426     0.426   0.0% |
  Distribute overlap matrix:         3.290     3.290   0.0% |
  Orbital Layouts:                   7.103     7.103   0.1% |
  Potential matrix:                  4.377     4.377   0.0% |
  Sum over cells:                    0.666     0.666   0.0% |
 LCAO to grid:                     141.981   141.981   1.4% ||
 Set positions (LCAO WFS):           2.254     1.504   0.0% |
  Basic WFS set positions:           0.002     0.002   0.0% |
  Basis functions set positions:     0.001     0.001   0.0% |
  P tci:                             0.360     0.360   0.0% |
  ST tci:                            0.161     0.161   0.0% |
  mktci:                             0.226     0.226   0.0% |
PWDescriptor:                        0.232     0.232   0.0% |
SCF-cycle:                       10284.540  1123.555  10.7% |---|
 Davidson:                        9015.784  2303.040  22.0% |--------|
  Apply H:                         112.108   110.352   1.1% |
   HMM T:                            1.756     1.756   0.0% |
  Subspace diag:                   814.709     0.063   0.0% |
   calc_h_matrix:                  294.793   186.634   1.8% ||
    Apply H:                       108.158   106.237   1.0% |
     HMM T:                          1.921     1.921   0.0% |
   diagonalize:                    179.242   179.242   1.7% ||
   rotate_psi:                     340.611   340.611   3.3% ||
  calc. matrices:                 1783.015  1636.357  15.6% |-----|
   Apply H:                        146.658   143.165   1.4% ||
    HMM T:                           3.492     3.492   0.0% |
  diagonalize:                    3204.617  3204.617  30.6% |-----------|
  rotate_psi:                      798.297   798.297   7.6% |--|
 Density:                           78.462     0.003   0.0% |
  Atomic density matrices:           2.021     2.021   0.0% |
  Mix:                              15.775    15.775   0.2% |
  Multipole moments:                 0.036     0.036   0.0% |
  Pseudo density:                   60.628    60.624   0.6% |
   Symmetrize density:               0.004     0.004   0.0% |
 Hamiltonian:                       56.517     0.440   0.0% |
  Atomic:                           34.984    14.112   0.1% |
   XC Correction:                   20.872    20.872   0.2% |
  Calculate atomic Hamiltonians:    12.420    12.420   0.1% |
  Communicate:                       0.214     0.214   0.0% |
  Poisson:                           0.071     0.071   0.0% |
  XC 3D grid:                        8.390     8.390   0.1% |
 Orthonormalize:                    10.222     0.001   0.0% |
  calc_s_matrix:                     1.188     1.188   0.0% |
  inverse-cholesky:                  0.974     0.974   0.0% |
  projections:                       6.121     6.121   0.1% |
  rotate_psi_s:                      1.938     1.938   0.0% |
Set symmetry:                        0.001     0.001   0.0% |
Other:                               2.904     2.904   0.0% |
-----------------------------------------------------------
Total:                                     10466.496 100.0%

Date: Thu Apr 13 22:57:32 2023
