
  ___ ___ ___ _ _ _  
 |   |   |_  | | | | 
 | | | | | . | | | | 
 |__ |  _|___|_____|  22.8.0
 |___|_|             

User:   c.zeng@d0019
Date:   Sat Apr 15 08:41:42 2023
Arch:   x86_64
Pid:    127023
CWD:    /home/c.zeng/projects/hea-corrosion/hea-mlp/data-curation/bulk-mcmc/dft-jobs/238
Python: 3.8.1
gpaw:   /home/c.zeng/usr/installs/gpaw/source/gpaw-22.8.0/gpaw
_gpaw:  /home/c.zeng/usr/installs/gpaw/source/gpaw-22.8.0/
        _gpaw.cpython-38-x86_64-linux-gnu.so
ase:    /home/c.zeng/.local/lib/python3.8/site-packages/ase-3.22.1-py3.8.egg/ase (version 3.22.1)
numpy:  /shared/centos7/python/3.8.1/lib/python3.8/site-packages/numpy (version 1.17.4)
scipy:  /shared/centos7/python/3.8.1/lib/python3.8/site-packages/scipy (version 1.4.1)
libxc:  4.2.3
units:  Angstrom and eV
cores: 30
OpenMP: False
OMP_NUM_THREADS: 1

Input parameters:
  convergence: {energy: 0.0001}
  kpts: [2 2 2]
  maxiter: 666
  mode: {ecut: 350.0,
         name: pw}
  occupations: {fixmagmom: False,
                name: fermi-dirac,
                width: 0.1}
  spinpol: True
  xc: PBE

System changes: positions, numbers, cell, pbc, initial_charges, initial_magmoms 

Initialize ...

species:
  Cr:
    name: Chromium
    id: 33f258bda2ca9f93018e70263a35547b
    Z: 24.0
    valence: 6
    core: 18
    charge: 0.0
    file: /home/c.zeng/usr/data/gpaw-setups-0.9.20000/Cr.PBE.gz
    compensation charges: {type: gauss,
                           rc: 0.35,
                           lmax: 2}
    cutoffs: {filter: 2.14,
              core: 3.04}
    valence states:
      #              energy  rcut
      - 4s(1.00)    -4.007   1.164
      - 4p(0.00)    -0.989   1.217
      - 3d(5.00)    -2.913   1.111
      -  s          23.205   1.164
      -  p          26.223   1.217
      -  d          24.299   1.111
  
    # Using partial waves for Cr as LCAO basis

  Al:
    name: Aluminium
    id: 0292cae29f5d6237e50f6abdd43a7bdd
    Z: 13.0
    valence: 3
    core: 10
    charge: 0.0
    file: /home/c.zeng/usr/data/gpaw-setups-0.9.20000/Al.PBE.gz
    compensation charges: {type: gauss,
                           rc: 0.34,
                           lmax: 2}
    cutoffs: {filter: 1.91,
              core: 2.36}
    valence states:
      #              energy  rcut
      - 3s(2.00)    -7.753   1.085
      - 3p(1.00)    -2.712   1.085
      -  s          19.459   1.085
      -  p          24.499   1.085
      -  d           0.000   1.085
  
    # Using partial waves for Al as LCAO basis

  Ni:
    name: Nickel
    id: 0d9f38a9d6e76a2886f07bb4381f212b
    Z: 28.0
    valence: 16
    core: 12
    charge: 0.0
    file: /home/c.zeng/usr/data/gpaw-setups-0.9.20000/Ni.PBE.gz
    compensation charges: {type: gauss,
                           rc: 0.36,
                           lmax: 2}
    cutoffs: {filter: 2.14,
              core: 1.98}
    valence states:
      #              energy  rcut
      - 4s(2.00)    -5.642   1.164
      - 3p(6.00)   -71.394   1.207
      - 4p(0.00)    -1.226   1.207
      - 3d(8.00)    -8.875   1.138
      -  s          21.570   1.164
      -  d          18.337   1.138
  
    # Using partial waves for Ni as LCAO basis

  Co:
    name: Cobalt
    id: 339d20d5b0b93d2de9531a1bee871d91
    Z: 27.0
    valence: 9
    core: 18
    charge: 0.0
    file: /home/c.zeng/usr/data/gpaw-setups-0.9.20000/Co.PBE.gz
    compensation charges: {type: gauss,
                           rc: 0.32,
                           lmax: 2}
    cutoffs: {filter: 1.87,
              core: 2.55}
    valence states:
      #              energy  rcut
      - 4s(2.00)    -5.469   1.005
      - 4p(0.00)    -1.277   1.058
      - 3d(7.00)    -8.205   1.005
      -  s          21.742   1.005
      -  p          25.934   1.058
      -  d          19.007   1.005
  
    # Using partial waves for Co as LCAO basis

  Fe:
    name: Iron
    id: 37abbd8d6c3c35915a9b583b742da910
    Z: 26.0
    valence: 8
    core: 18
    charge: 0.0
    file: /home/c.zeng/usr/data/gpaw-setups-0.9.20000/Fe.PBE.gz
    compensation charges: {type: gauss,
                           rc: 0.33,
                           lmax: 2}
    cutoffs: {filter: 2.06,
              core: 2.67}
    valence states:
      #              energy  rcut
      - 4s(2.00)    -5.291   1.164
      - 4p(0.00)    -1.326   1.058
      - 3d(6.00)    -7.505   1.058
      -  s          21.920   1.164
      -  p          25.885   1.058
      -  d          19.706   1.058
  
    # Using partial waves for Fe as LCAO basis

Reference energy: -3235165.067515  # eV

Spin-polarized calculation.
Magnetic moment: 121.100000

Convergence criteria:
 Maximum [total energy] change in last 3 cyles: 0.0001 eV / electron
 Maximum integral of absolute [dens]ity change: 0.0001 electrons / valence electron
 Maximum integral of absolute [eigenst]ate change: 4e-08 eV^2 / valence electron
 Maximum number of scf [iter]ations: 666
 (Square brackets indicate name in SCF output, whereas a 'c' in
 the SCF output indicates the quantity has converged.)

Symmetries present (total): 1

  ( 1  0  0)
  ( 0  1  0)
  ( 0  0  1)

8 k-points: 2 x 2 x 2 Monkhorst-Pack grid
4 k-points in the irreducible part of the Brillouin zone
       k-points in crystal coordinates                weights
   0:     0.25000000   -0.25000000   -0.25000000          2/8
   1:     0.25000000   -0.25000000    0.25000000          2/8
   2:     0.25000000    0.25000000   -0.25000000          2/8
   3:     0.25000000    0.25000000    0.25000000          2/8

Wave functions: Plane wave expansion
  Cutoff energy: 350.000 eV
  Number of coefficients (min, max): 19084, 19084
  Pulay-stress correction: 0.000000 eV/Ang^3 (de/decut=0.000000)
  Using FFTW library
  ScaLapack parameters: grid=1x1, blocksize=None
  Wavefunction extrapolation:
    Improved wavefunction reuse through dual PAW basis 

Occupation numbers: Fermi-Dirac:
  width: 0.1000  # eV
 

Eigensolver
   Davidson(niter=2) 

Densities:
  Coarse grid: 48*48*48 grid
  Fine grid: 96*96*96 grid
  Total Charge: 0.000000 

Density mixing:
  Method: difference
  Backend: pulay
  Linear mixing parameter: 0.05
  old densities: 5
  Damping of long wavelength oscillations: 50 

Hamiltonian:
  XC and Coulomb potentials evaluated on a 96*96*96 grid
  Using the PBE Exchange-Correlation functional
  External potential:
    NoExternalPotential
 

XC parameters: PBE with 2 nearest neighbor stencil

Memory estimate:
  Process memory now: 250.45 MiB
  Calculator: 986.43 MiB
    Density: 5.59 MiB
      Arrays: 2.05 MiB
      Localized functions: 2.72 MiB
      Mixer: 0.82 MiB
    Hamiltonian: 1.61 MiB
      Arrays: 1.52 MiB
      XC: 0.00 MiB
      Poisson: 0.00 MiB
      vbar: 0.08 MiB
    Wavefunctions: 979.23 MiB
      Arrays psit_nG: 726.83 MiB
      Eigensolver: 242.60 MiB
      Projections: 4.67 MiB
      Projectors: 0.74 MiB
      PW-descriptor: 4.39 MiB

Total number of cores used: 30
Parallelization over k-points: 2
Domain decomposition: 5 x 3 x 1

Number of atoms: 108
Number of atomic orbitals: 933
Number of bands in calculation: 624
Number of valence electrons: 912
Bands to converge: occupied

... initialized

Initializing position-dependent things.

Density initialized from atomic densities
Creating initial wave functions:
  624 bands from LCAO basis set

        .--------Al----------------.  
       /|           Fe             |  
      / |    FeFe     Ni           |  
     / Ni       Ni       Al        |  
    /   |Fe      CrCo       Fe     |  
   /    | CrNi      ACo            |  
  /    Co  FerAlAl    Co Fe  CoAl  |  
 *      Fe     AlCoAl   NiFe     Ni|  
 |      |FeCr   NiFeFe   AlCrNi   Co  
 |      | CoCr   AlCoCoAl NiCrFe   |  
 |     Fe  Al CoCo  NiCr Cr  NiCr  |  
 |      Cr  Ni CrNiCo CoNiCoAl   Fe|  
 |      |NiCo   CoAlAl   CoCrFe   Fe  
 |      .-FeCr-----NiNi-Al--CrFe---.  
 |     Al  Cr CoNi    Al Co  Ni Cr/   
 |    / Co              Cr       Ni   
 |   /           Ali      CrFe  /     
 |  /      Cr       Fe     NiAl/      
 | /                   Fe     /r      
 |/                          /        
 *--------------------------Cr        

Positions:
   0 Cr    10.797848    0.093654    0.085777    ( 0.0000,  0.0000,  0.0000)
   1 Al    10.831824    1.844742    1.870716    ( 0.0000,  0.0000,  2.0000)
   2 Ni     1.786803   10.847372    1.827335    ( 0.0000,  0.0000,  0.0000)
   3 Co     1.769614    1.870531   -0.031264    ( 0.0000,  0.0000,  0.0000)
   4 Al     3.620857   10.822050   10.833629    ( 0.0000,  0.0000,  1.5000)
   5 Cr     3.571246    1.883176    1.708402    ( 0.0000,  0.0000,  0.0000)
   6 Co     5.521103   10.788063    1.666217    ( 0.0000,  0.0000,  0.0000)
   7 Al     5.520831    1.813973   10.830911    ( 0.0000,  0.0000,  1.5000)
   8 Al     7.330846    0.011025   10.815657    ( 0.0000,  0.0000,  2.0000)
   9 Fe     7.282018    1.809483    1.793250    ( 0.0000,  0.0000,  2.1000)
  10 Fe     9.029996    0.022005    1.811918    ( 0.0000,  0.0000,  1.5000)
  11 Fe     9.007196    1.868639   10.825714    ( 0.0000,  0.0000,  2.0000)
  12 Cr    10.861310    3.649723    0.014171    ( 0.0000,  0.0000,  2.0000)
  13 Cr    10.867442    5.463468    1.819235    ( 0.0000,  0.0000,  2.1000)
  14 Co     1.756088    3.650267    1.845949    ( 0.0000,  0.0000,  0.0000)
  15 Fe     1.790358    5.439092   10.869084    ( 0.0000,  0.0000,  2.1000)
  16 Ni     3.687842    3.622792   -0.049287    ( 0.0000,  0.0000,  2.0000)
  17 Co     3.667347    5.391145    1.745368    ( 0.0000,  0.0000,  0.0000)
  18 Al     5.497977    3.634415    1.792370    ( 0.0000,  0.0000,  2.0000)
  19 Ni     5.524908    5.448029    0.002551    ( 0.0000,  0.0000,  2.0000)
  20 Co     7.223340    3.611877   10.834270    ( 0.0000,  0.0000,  0.0000)
  21 Al     7.217762    5.474830    1.807776    ( 0.0000,  0.0000,  2.1000)
  22 Cr     9.073442    3.654344    1.775148    ( 0.0000,  0.0000,  0.0000)
  23 Ni     9.008740    5.418608    0.007692    ( 0.0000,  0.0000,  2.0000)
  24 Ni    10.859190    7.178720    0.014480    ( 0.0000,  0.0000,  1.5000)
  25 Fe    -0.018106    8.970948    1.875391    ( 0.0000,  0.0000,  0.0000)
  26 Fe     1.817615    7.224025    1.802546    ( 0.0000,  0.0000,  1.5000)
  27 Cr     1.880729    8.993464   10.874031    ( 0.0000,  0.0000,  0.0000)
  28 Fe     3.684428    7.260447   -0.001356    ( 0.0000,  0.0000,  2.0000)
  29 Co     3.612616    9.025636    1.761807    ( 0.0000,  0.0000,  1.5000)
  30 Ni     5.481440    7.275114    1.811211    ( 0.0000,  0.0000,  1.5000)
  31 Fe     5.461261    9.048153   10.833988    ( 0.0000,  0.0000,  1.5000)
  32 Cr     7.245704    7.257881    0.056891    ( 0.0000,  0.0000,  2.1000)
  33 Co     7.301969    9.004609    1.790315    ( 0.0000,  0.0000,  0.0000)
  34 Cr     9.029343    7.181775    1.815549    ( 0.0000,  0.0000,  2.0000)
  35 Ni     9.030561    9.042010    0.020232    ( 0.0000,  0.0000,  1.5000)
  36 Fe    -0.031046    0.001947    3.645701    ( 0.0000,  0.0000,  2.0000)
  37 Fe    10.825910    1.804351    5.434602    ( 0.0000,  0.0000,  2.1000)
  38 Cr     1.743552   10.849296    5.484376    ( 0.0000,  0.0000,  0.0000)
  39 Al     1.769755    1.791891    3.636068    ( 0.0000,  0.0000,  1.5000)
  40 Al     3.516667   10.719828    3.663227    ( 0.0000,  0.0000,  0.0000)
  41 Co     3.644244    1.785205    5.586728    ( 0.0000,  0.0000,  0.0000)
  42 Al     5.484778   10.815439    5.504022    ( 0.0000,  0.0000,  0.0000)
  43 Ni     5.457934    1.842230    3.658769    ( 0.0000,  0.0000,  0.0000)
  44 Ni     7.360615   10.815439    3.672229    ( 0.0000,  0.0000,  0.0000)
  45 Al     7.266884    1.811614    5.485528    ( 0.0000,  0.0000,  2.1000)
  46 Al     9.077986    0.023590    5.491921    ( 0.0000,  0.0000,  0.0000)
  47 Co     9.066788    1.824226    3.671175    ( 0.0000,  0.0000,  1.5000)
  48 Fe    -0.047135    3.649615    3.617291    ( 0.0000,  0.0000,  2.0000)
  49 Cr    10.809264    5.435993    5.379805    ( 0.0000,  0.0000,  2.0000)
  50 Cr     1.752316    3.624989    5.344676    ( 0.0000,  0.0000,  0.0000)
  51 Ni     1.805786    5.472046    3.619389    ( 0.0000,  0.0000,  2.1000)
  52 Cr     3.649408    3.633491    3.631251    ( 0.0000,  0.0000,  2.1000)
  53 Co     3.657628    5.433797    5.434015    ( 0.0000,  0.0000,  1.5000)
  54 Ni     5.413368    3.672642    5.480309    ( 0.0000,  0.0000,  1.5000)
  55 Al     5.413835    5.465588    3.639666    ( 0.0000,  0.0000,  2.1000)
  56 Ni     7.223449    3.731734    3.720829    ( 0.0000,  0.0000,  0.0000)
  57 Cr     7.220557    5.483180    5.485572    ( 0.0000,  0.0000,  0.0000)
  58 Co     9.069039    3.623673    5.469720    ( 0.0000,  0.0000,  1.5000)
  59 Cr     9.064766    5.503837    3.636731    ( 0.0000,  0.0000,  0.0000)
  60 Fe    -0.007801    7.208303    3.671501    ( 0.0000,  0.0000,  2.1000)
  61 Co    -0.032907    9.095361    5.398690    ( 0.0000,  0.0000,  0.0000)
  62 Co     1.823693    7.248716    5.440766    ( 0.0000,  0.0000,  2.0000)
  63 Al     1.739856    8.989170    3.676437    ( 0.0000,  0.0000,  2.0000)
  64 Cr     3.645353    7.306090    3.692343    ( 0.0000,  0.0000,  0.0000)
  65 Ni     3.652300    9.051545    5.521635    ( 0.0000,  0.0000,  1.5000)
  66 Co     5.474253    7.265362    5.482886    ( 0.0000,  0.0000,  2.1000)
  67 Ni     5.473601    9.034877    3.664390    ( 0.0000,  0.0000,  0.0000)
  68 Ni     7.218436    7.243171    3.634643    ( 0.0000,  0.0000,  1.5000)
  69 Al     7.240823    9.039172    5.472851    ( 0.0000,  0.0000,  1.5000)
  70 Cr     8.972600    7.234071    5.399136    ( 0.0000,  0.0000,  2.0000)
  71 Ni     9.065516    8.978221    3.651180    ( 0.0000,  0.0000,  0.0000)
  72 Al    10.856755    0.017916    7.210891    ( 0.0000,  0.0000,  2.1000)
  73 Ni    10.824681    1.882197    8.982799    ( 0.0000,  0.0000,  0.0000)
  74 Fe     1.860768   10.856646    9.009795    ( 0.0000,  0.0000,  0.0000)
  75 Fe     1.767189    1.801926    7.237202    ( 0.0000,  0.0000,  2.1000)
  76 Cr     3.637144   10.797772    7.275701    ( 0.0000,  0.0000,  2.1000)
  77 Cr     3.668032    1.775833    9.018743    ( 0.0000,  0.0000,  0.0000)
  78 Ni     5.482495   10.845165    9.071409    ( 0.0000,  0.0000,  2.1000)
  79 Co     5.527517    1.773408    7.253489    ( 0.0000,  0.0000,  0.0000)
  80 Co     7.260502    0.005379    7.255185    ( 0.0000,  0.0000,  1.5000)
  81 Fe     7.265112    1.802383    9.014883    ( 0.0000,  0.0000,  2.0000)
  82 Al     9.024788    0.026384    9.025244    ( 0.0000,  0.0000,  1.5000)
  83 Cr     9.016296    1.814658    7.226449    ( 0.0000,  0.0000,  2.0000)
  84 Fe    10.804437    3.613888    7.198159    ( 0.0000,  0.0000,  0.0000)
  85 Al    10.834662    5.395809    9.098938    ( 0.0000,  0.0000,  0.0000)
  86 Fe     1.818746    3.628870    9.065668    ( 0.0000,  0.0000,  0.0000)
  87 Fe     1.809776    5.464294    7.231146    ( 0.0000,  0.0000,  0.0000)
  88 Cr     3.671588    3.637100    7.249553    ( 0.0000,  0.0000,  0.0000)
  89 Al     3.679546    5.412074    9.119606    ( 0.0000,  0.0000,  0.0000)
  90 Co     5.499651    3.591088    9.044978    ( 0.0000,  0.0000,  2.1000)
  91 Fe     5.468306    5.448464    7.223046    ( 0.0000,  0.0000,  1.5000)
  92 Co     7.241888    3.617400    7.225101    ( 0.0000,  0.0000,  0.0000)
  93 Co     7.214631    5.385893    9.048577    ( 0.0000,  0.0000,  2.1000)
  94 Fe     8.994291    3.655975    9.039237    ( 0.0000,  0.0000,  1.5000)
  95 Cr     9.006577    5.423262    7.223296    ( 0.0000,  0.0000,  2.0000)
  96 Ni    -0.070637    7.291956    7.110419    ( 0.0000,  0.0000,  0.0000)
  97 Ni     0.073012    9.104570    9.068375    ( 0.0000,  0.0000,  0.0000)
  98 Cr     1.863247    7.257381    9.054785    ( 0.0000,  0.0000,  2.0000)
  99 Fe     1.858343    9.053708    7.225808    ( 0.0000,  0.0000,  2.1000)
 100 Al     3.683906    7.292456    7.235550    ( 0.0000,  0.0000,  2.0000)
 101 Ni     3.628218    9.069550    9.051262    ( 0.0000,  0.0000,  2.1000)
 102 Co     5.530605    7.331890    9.040129    ( 0.0000,  0.0000,  0.0000)
 103 Al     5.476232    9.097209    7.250467    ( 0.0000,  0.0000,  2.0000)
 104 Ni     7.256827    7.264242    7.208456    ( 0.0000,  0.0000,  2.1000)
 105 Al     7.272548    9.136437    9.056861    ( 0.0000,  0.0000,  1.5000)
 106 Fe     8.936493    7.190875    9.109767    ( 0.0000,  0.0000,  0.0000)
 107 Co     8.994682    9.112169    7.218480    ( 0.0000,  0.0000,  0.0000)

Unit cell:
           periodic     x           y           z      points  spacing
  1. axis:    yes   10.872400    0.000000    0.000000    48     0.2265
  2. axis:    yes    0.000000   10.872400    0.000000    48     0.2265
  3. axis:    yes    0.000000    0.000000   10.872400    48     0.2265

  Lengths:  10.872400  10.872400  10.872400
  Angles:   90.000000  90.000000  90.000000

Effective grid spacing dv^(1/3) = 0.2265

     iter     time        total  log10-change:  magmom
                         energy  eigst   dens
iter:   1 08:44:52  -911.909971                  +120.1190
iter:   2 08:46:07  -836.702101  -0.31  -1.27    +81.7709
iter:   3 08:47:23  -835.557076  -0.78  -1.28    +49.4812
iter:   4 08:48:38  -817.152678  -1.16  -1.31    +43.5488
iter:   5 08:49:54  -809.935501  -1.71  -1.36    +41.5183
iter:   6 08:51:10  -812.457466  -1.67  -1.42    +39.7780
iter:   7 08:52:26  -807.110264  -1.47  -1.44    +38.9742
iter:   8 08:53:42  -805.947546  -1.71  -1.54    +39.1534
iter:   9 08:54:58  -807.621088  -1.81  -1.61    +39.4484
iter:  10 08:56:13  -805.418617  -1.96  -1.63    +39.5915
iter:  11 08:57:29  -803.365851  -2.21  -1.70    +39.3564
iter:  12 08:58:45  -802.337199  -2.44  -1.77    +40.2666
iter:  13 09:00:01  -804.574376  -2.35  -1.86    +41.5932
iter:  14 09:01:16  -803.103649  -2.45  -1.81    +41.9293
iter:  15 09:02:32  -804.676326  -2.48  -1.90    +42.6717
iter:  16 09:03:47  -804.605403  -2.33  -1.88    +43.3743
iter:  17 09:05:03  -805.172755  -2.39  -1.91    +44.5340
iter:  18 09:06:19  -803.392027  -2.64  -1.93    +44.6075
iter:  19 09:07:35  -804.080547  -2.83  -2.05    +45.1650
iter:  20 09:08:50  -803.741203  -2.83  -2.05    +46.1182
iter:  21 09:10:06  -803.870538  -3.09  -2.09    +46.9484
iter:  22 09:11:22  -804.062720  -3.16  -2.11    +47.3903
iter:  23 09:12:38  -804.564586  -2.96  -2.15    +47.7834
iter:  24 09:13:53  -804.691396  -2.86  -2.13    +48.2843
iter:  25 09:15:09  -804.770018  -3.02  -2.15    +48.4739
iter:  26 09:16:24  -804.975675  -2.91  -2.20    +48.4433
iter:  27 09:17:40  -805.168717  -2.92  -2.21    +48.3990
iter:  28 09:18:56  -804.865780  -3.12  -2.19    +48.6470
iter:  29 09:20:11  -804.878960  -3.38  -2.30    +48.7080
iter:  30 09:21:27  -804.943199c -3.34  -2.34    +48.5015
iter:  31 09:22:43  -804.872301c -3.90  -2.34    +48.5126
iter:  32 09:23:59  -805.020710  -3.66  -2.41    +48.3666
iter:  33 09:25:15  -805.159972  -3.46  -2.40    +48.2552
iter:  34 09:26:30  -805.283740  -3.39  -2.39    +48.1019
iter:  35 09:27:46  -805.221776  -3.38  -2.39    +47.9280
iter:  36 09:29:02  -805.569513  -3.15  -2.45    +47.8852
iter:  37 09:30:18  -805.252997  -3.30  -2.38    +47.6177
iter:  38 09:31:33  -805.223987  -3.65  -2.49    +47.3553
iter:  39 09:32:49  -805.215193c -3.86  -2.57    +47.2701
iter:  40 09:34:05  -805.211592c -4.16  -2.60    +47.2076
iter:  41 09:35:20  -805.220555c -4.18  -2.66    +47.0390
iter:  42 09:36:36  -805.240920c -4.49  -2.67    +46.9025
iter:  43 09:37:52  -805.364566  -3.75  -2.74    +46.6706
iter:  44 09:39:07  -805.294553  -3.93  -2.66    +46.6763
iter:  45 09:40:22  -805.305500c -3.98  -2.83    +46.4578
iter:  46 09:41:38  -805.290985c -4.28  -2.89    +46.3633
iter:  47 09:42:54  -805.307330c -4.30  -3.05    +46.3117
iter:  48 09:44:09  -805.295360c -4.68  -2.99    +46.2704
iter:  49 09:45:25  -805.300532c -4.93  -3.19    +46.1228
iter:  50 09:46:41  -805.309178c -5.04  -3.22    +46.0008
iter:  51 09:47:57  -805.331604c -4.47  -3.23    +45.7660
iter:  52 09:49:13  -805.338140c -4.82  -3.10    +45.7342
iter:  53 09:50:28  -805.344224c -4.90  -3.10    +45.7454
iter:  54 09:51:44  -805.342889c -5.35  -3.05    +45.7364
iter:  55 09:53:00  -805.344371c -5.26  -3.10    +45.6762
iter:  56 09:54:15  -805.362355c -4.39  -3.12    +45.6462
iter:  57 09:55:31  -805.343217c -4.98  -3.02    +45.6241
iter:  58 09:56:47  -805.345908c -5.21  -3.21    +45.5478
iter:  59 09:58:03  -805.349516c -4.86  -3.26    +45.4979
iter:  60 09:59:19  -805.355224c -4.75  -3.30    +45.4617
iter:  61 10:00:34  -805.350588c -4.99  -3.24    +45.4456
iter:  62 10:01:50  -805.351077c -5.24  -3.47    +45.3704
iter:  63 10:03:06  -805.353481c -5.45  -3.52    +45.3265
iter:  64 10:04:22  -805.353719c -5.66  -3.54    +45.2955
iter:  65 10:05:38  -805.356363c -5.72  -3.63    +45.2473
iter:  66 10:06:53  -805.359014c -5.78  -3.66    +45.1926
iter:  67 10:08:09  -805.346902c -4.71  -3.63    +45.4622
iter:  68 10:09:25  -805.340788c -4.86  -3.75    +45.6420
iter:  69 10:10:41  -805.344137c -5.78  -3.74    +45.5589
iter:  70 10:11:57  -805.344887c -5.94  -3.86    +45.5512
iter:  71 10:13:13  -805.346987c -5.79  -3.77    +45.4989
iter:  72 10:14:28  -805.347531c -5.93  -3.87    +45.4621
iter:  73 10:15:44  -805.351422c -5.60  -4.05c   +45.3856
iter:  74 10:17:00  -805.348245c -6.07  -3.90    +45.4570
iter:  75 10:18:16  -805.347241c -6.16  -4.08c   +45.5032
iter:  76 10:19:32  -805.350854c -5.77  -4.14c   +45.4017
iter:  77 10:20:48  -805.344552c -5.27  -4.10c   +45.5841
iter:  78 10:22:04  -805.340344c -5.17  -4.09c   +45.7206
iter:  79 10:23:20  -805.334300c -4.74  -3.91    +45.9748
iter:  80 10:24:36  -805.329871c -3.93  -3.67    +46.6669
iter:  81 10:25:51  -805.330430c -5.26  -3.28    +46.5582
iter:  82 10:27:08  -805.331832c -5.73  -3.32    +46.5358
iter:  83 10:28:23  -805.333267c -5.68  -3.32    +46.5318
iter:  84 10:29:39  -805.331226c -6.13  -3.30    +46.5388
iter:  85 10:30:55  -805.339924c -4.94  -3.32    +46.5477
iter:  86 10:32:11  -805.357830c -4.12  -3.10    +46.5454
iter:  87 10:33:27  -805.330885c -4.44  -3.04    +46.5407
iter:  88 10:34:43  -805.334491c -4.61  -3.23    +46.5051
iter:  89 10:35:58  -805.328752c -5.05  -3.30    +46.4597
iter:  90 10:37:14  -805.330291c -5.26  -3.54    +46.3683
iter:  91 10:38:30  -805.334188c -5.15  -3.71    +46.2361
iter:  92 10:39:46  -805.334418c -5.44  -3.74    +46.1767
iter:  93 10:41:02  -805.335990c -5.23  -3.89    +46.0668
iter:  94 10:42:18  -805.337063c -5.68  -3.87    +46.0324
iter:  95 10:43:34  -805.338062c -6.06  -3.97    +45.9956
iter:  96 10:44:50  -805.337517c -6.51  -3.99    +45.9973
iter:  97 10:46:05  -805.338957c -6.03  -4.07c   +45.9616
iter:  98 10:47:21  -805.337489c -5.94  -4.07c   +45.9949
iter:  99 10:48:37  -805.337410c -5.71  -4.12c   +45.9747
iter: 100 10:49:53  -805.338716c -5.98  -3.98    +45.9274
iter: 101 10:51:09  -805.337870c -6.06  -4.05c   +45.9311
iter: 102 10:52:25  -805.339217c -6.18  -3.94    +45.8747
iter: 103 10:53:41  -805.334428c -5.03  -3.87    +46.1056
iter: 104 10:54:57  -805.334518c -6.00  -3.92    +46.1088
iter: 105 10:56:13  -805.335662c -6.31  -4.09c   +46.0559
iter: 106 10:57:29  -805.334890c -6.44  -4.24c   +46.0840
iter: 107 10:58:45  -805.336691c -6.00  -4.19c   +46.0221
iter: 108 11:00:01  -805.333936c -5.67  -4.14c   +46.1328
iter: 109 11:01:17  -805.329442c -4.86  -4.21c   +46.3704
iter: 110 11:02:33  -805.327969c -5.15  -3.82    +46.4961
iter: 111 11:03:49  -805.326875c -4.69  -3.69    +46.7701
iter: 112 11:05:04  -805.327353c -5.41  -3.49    +46.8264
iter: 113 11:06:20  -805.328079c -5.75  -3.45    +46.8592
iter: 114 11:07:36  -805.327326c -6.28  -3.43    +46.8384
iter: 115 11:08:52  -805.328247c -6.28  -3.46    +46.8510
iter: 116 11:10:08  -805.331499c -5.02  -3.45    +46.8504
iter: 117 11:11:24  -805.350402c -4.40  -3.28    +46.8574
iter: 118 11:12:40  -805.334384c -4.40  -3.04    +46.8329
iter: 119 11:13:56  -805.325436c -4.91  -3.22    +46.7419
iter: 120 11:15:12  -805.329171c -5.12  -3.65    +46.6970
iter: 121 11:16:28  -805.328134c -5.51  -3.53    +46.6716
iter: 122 11:17:44  -805.330108c -5.45  -3.87    +46.5982
iter: 123 11:19:00  -805.329913c -5.68  -3.83    +46.5680
iter: 124 11:20:16  -805.331448c -5.59  -4.11c   +46.5028
iter: 125 11:21:32  -805.331974c -5.99  -4.09c   +46.4723
iter: 126 11:22:47  -805.332998c -5.94  -4.17c   +46.4185
iter: 127 11:24:03  -805.333320c -6.47  -4.20c   +46.4002
iter: 128 11:25:19  -805.333956c -6.56  -4.21c   +46.3776
iter: 129 11:26:36  -805.331268c -5.58  -4.15c   +46.4898
iter: 130 11:27:52  -805.329479c -5.54  -4.16c   +46.5844
iter: 131 11:29:08  -805.331089c -6.08  -4.13c   +46.5089
iter: 132 11:30:24  -805.328657c -5.60  -4.34c   +46.6318
iter: 133 11:31:40  -805.323614c -4.37  -4.09c   +47.0890
iter: 134 11:32:56  -805.323733c -5.03  -3.55    +47.1955
iter: 135 11:34:12  -805.324447c -5.54  -3.48    +47.2494
iter: 136 11:35:28  -805.325277c -5.87  -3.45    +47.2771
iter: 137 11:36:44  -805.325302c -6.64  -3.43    +47.2583
iter: 138 11:38:00  -805.324018c -6.08  -3.44    +47.2982
iter: 139 11:39:16  -805.330065c -5.31  -3.45    +47.2554
iter: 140 11:40:32  -805.322851c -5.20  -3.29    +47.3041
iter: 141 11:41:48  -805.330220c -4.53  -3.38    +47.2804
iter: 142 11:43:03  -805.348426c -4.15  -3.11    +47.3031
iter: 143 11:44:19  -805.324023c -4.48  -3.01    +47.2011
iter: 144 11:45:35  -805.323962c -4.88  -3.33    +47.1560
iter: 145 11:46:51  -805.325095c -5.19  -3.63    +47.0771
iter: 146 11:48:08  -805.327708c -5.12  -3.76    +47.0000
iter: 147 11:49:24  -805.328449c -5.08  -3.99    +46.8830
iter: 148 11:50:40  -805.330336c -5.46  -4.21c   +46.7956
iter: 149 11:51:56  -805.329802c -6.31  -4.14c   +46.8018
iter: 150 11:53:12  -805.330532c -6.26  -4.20c   +46.7728
iter: 151 11:54:28  -805.330386c -6.75  -4.31c   +46.7627
iter: 152 11:55:44  -805.331594c -6.08  -4.33c   +46.7163
iter: 153 11:57:00  -805.330188c -6.00  -4.14c   +46.7712
iter: 154 11:58:16  -805.332291c -5.89  -4.21c   +46.6915
iter: 155 11:59:32  -805.331049c -6.30  -4.13c   +46.7424
iter: 156 12:00:48  -805.332914c -5.99  -4.28c   +46.6687
iter: 157 12:02:04  -805.329437c -5.42  -4.07c   +46.8040
iter: 158 12:03:20  -805.332703c -5.63  -4.25c   +46.6877
iter: 159 12:04:36  -805.332133c -7.09  -4.10c   +46.7079
iter: 160 12:05:52  -805.334743c -5.67  -4.15c   +46.6071
iter: 161 12:07:08  -805.335989c -6.21  -3.90    +46.5864
iter: 162 12:08:24  -805.335654c -6.53  -3.80    +46.5907
iter: 163 12:09:40  -805.336523c -5.95  -3.78    +46.5306
iter: 164 12:10:57  -805.336990c -6.26  -3.78    +46.5049
iter: 165 12:12:13  -805.339489c -5.65  -3.82    +46.4637
iter: 166 12:13:29  -805.336611c -5.19  -3.58    +46.4461
iter: 167 12:14:45  -805.337600c -5.45  -3.46    +46.4312
iter: 168 12:16:01  -805.338412c -5.19  -3.71    +46.4080
iter: 169 12:17:17  -805.336490c -5.43  -3.50    +46.3740
iter: 170 12:18:33  -805.335774c -5.89  -3.69    +46.3507
iter: 171 12:19:49  -805.335795c -6.29  -3.94    +46.3271
iter: 172 12:21:05  -805.336213c -6.01  -3.96    +46.2993
iter: 173 12:22:21  -805.336006c -6.02  -3.94    +46.2931
iter: 174 12:23:37  -805.336761c -6.16  -3.86    +46.2812
iter: 175 12:24:53  -805.336516c -6.17  -3.95    +46.2522
iter: 176 12:26:09  -805.336583c -6.12  -4.10c   +46.2403
iter: 177 12:27:25  -805.336850c -6.34  -4.03c   +46.2335
iter: 178 12:28:41  -805.337060c -6.39  -4.07c   +46.2168
iter: 179 12:29:57  -805.337437c -6.41  -4.17c   +46.1973
iter: 180 12:31:13  -805.337591c -6.47  -4.18c   +46.1816
iter: 181 12:32:29  -805.337613c -7.19  -4.20c   +46.1797
iter: 182 12:33:45  -805.338162c -6.32  -4.20c   +46.1635
iter: 183 12:35:01  -805.337938c -6.87  -4.11c   +46.1689
iter: 184 12:36:17  -805.338320c -6.44  -4.15c   +46.1483
iter: 185 12:37:33  -805.338599c -6.49  -4.14c   +46.1369
iter: 186 12:38:49  -805.338662c -6.44  -4.11c   +46.1180
iter: 187 12:40:06  -805.338716c -6.96  -4.19c   +46.1120
iter: 188 12:41:22  -805.339759c -5.85  -4.28c   +46.0631
iter: 189 12:42:38  -805.338714c -6.13  -4.24c   +46.1117
iter: 190 12:43:54  -805.338543c -6.67  -4.39c   +46.1249
iter: 191 12:45:10  -805.339046c -6.77  -4.38c   +46.1049
iter: 192 12:46:26  -805.338387c -6.42  -4.42c   +46.1409
iter: 193 12:47:42  -805.337539c -5.64  -4.42c   +46.2257
iter: 194 12:48:58  -805.338009c -6.83  -4.34c   +46.1993
iter: 195 12:50:14  -805.338047c -7.18  -4.51c   +46.1931
iter: 196 12:51:30  -805.338470c -6.80  -4.58c   +46.1767
iter: 197 12:52:45  -805.338411c -7.52c -4.68c   +46.1865

Converged after 197 iterations.

Dipole moment: (29.168249, 16.799443, 7.041616) |e|*Ang

Total magnetic moment: (0.000000, 0.000000, 46.186541)
Local magnetic moments:
   0 Cr ( 0.000000,  0.000000, -2.299479)
   1 Al ( 0.000000,  0.000000, -0.027239)
   2 Ni ( 0.000000,  0.000000,  0.001085)
   3 Co ( 0.000000,  0.000000,  0.610743)
   4 Al ( 0.000000,  0.000000, -0.016345)
   5 Cr ( 0.000000,  0.000000, -2.365883)
   6 Co ( 0.000000,  0.000000,  1.175279)
   7 Al ( 0.000000,  0.000000, -0.019829)
   8 Al ( 0.000000,  0.000000, -0.046710)
   9 Fe ( 0.000000,  0.000000,  2.272115)
  10 Fe ( 0.000000,  0.000000,  2.342182)
  11 Fe ( 0.000000,  0.000000,  1.929323)
  12 Cr ( 0.000000,  0.000000,  1.091786)
  13 Cr ( 0.000000,  0.000000, -1.012308)
  14 Co ( 0.000000,  0.000000,  0.727291)
  15 Fe ( 0.000000,  0.000000,  1.967992)
  16 Ni ( 0.000000,  0.000000,  0.079380)
  17 Co ( 0.000000,  0.000000,  1.185378)
  18 Al ( 0.000000,  0.000000, -0.022961)
  19 Ni ( 0.000000,  0.000000,  0.282975)
  20 Co ( 0.000000,  0.000000,  1.132708)
  21 Al ( 0.000000,  0.000000,  0.002293)
  22 Cr ( 0.000000,  0.000000, -1.796695)
  23 Ni ( 0.000000,  0.000000,  0.227901)
  24 Ni ( 0.000000,  0.000000,  0.262820)
  25 Fe ( 0.000000,  0.000000,  2.272236)
  26 Fe ( 0.000000,  0.000000,  2.275541)
  27 Cr ( 0.000000,  0.000000, -2.017107)
  28 Fe ( 0.000000,  0.000000,  2.327927)
  29 Co ( 0.000000,  0.000000,  0.944441)
  30 Ni ( 0.000000,  0.000000,  0.062645)
  31 Fe ( 0.000000,  0.000000,  2.140006)
  32 Cr ( 0.000000,  0.000000, -1.855110)
  33 Co ( 0.000000,  0.000000,  1.236546)
  34 Cr ( 0.000000,  0.000000, -0.118888)
  35 Ni ( 0.000000,  0.000000,  0.034792)
  36 Fe ( 0.000000,  0.000000,  2.174565)
  37 Fe ( 0.000000,  0.000000,  1.587406)
  38 Cr ( 0.000000,  0.000000, -1.758315)
  39 Al ( 0.000000,  0.000000, -0.015528)
  40 Al ( 0.000000,  0.000000,  0.008312)
  41 Co ( 0.000000,  0.000000, -0.131717)
  42 Al ( 0.000000,  0.000000, -0.010876)
  43 Ni ( 0.000000,  0.000000, -0.087308)
  44 Ni ( 0.000000,  0.000000,  0.165901)
  45 Al ( 0.000000,  0.000000, -0.012681)
  46 Al ( 0.000000,  0.000000, -0.025148)
  47 Co ( 0.000000,  0.000000,  1.020349)
  48 Fe ( 0.000000,  0.000000,  1.608404)
  49 Cr ( 0.000000,  0.000000, -1.333089)
  50 Cr ( 0.000000,  0.000000, -1.992040)
  51 Ni ( 0.000000,  0.000000,  0.149400)
  52 Cr ( 0.000000,  0.000000,  1.950775)
  53 Co ( 0.000000,  0.000000,  0.773907)
  54 Ni ( 0.000000,  0.000000,  0.127429)
  55 Al ( 0.000000,  0.000000, -0.011530)
  56 Ni ( 0.000000,  0.000000,  0.033762)
  57 Cr ( 0.000000,  0.000000, -1.190039)
  58 Co ( 0.000000,  0.000000,  0.215864)
  59 Cr ( 0.000000,  0.000000,  0.971281)
  60 Fe ( 0.000000,  0.000000,  2.092259)
  61 Co ( 0.000000,  0.000000,  0.770076)
  62 Co ( 0.000000,  0.000000,  1.098179)
  63 Al ( 0.000000,  0.000000, -0.027672)
  64 Cr ( 0.000000,  0.000000, -2.149016)
  65 Ni ( 0.000000,  0.000000,  0.082559)
  66 Co ( 0.000000,  0.000000,  0.703756)
  67 Ni ( 0.000000,  0.000000,  0.158323)
  68 Ni ( 0.000000,  0.000000,  0.183122)
  69 Al ( 0.000000,  0.000000, -0.014591)
  70 Cr ( 0.000000,  0.000000,  1.058267)
  71 Ni ( 0.000000,  0.000000,  0.190156)
  72 Al ( 0.000000,  0.000000, -0.026235)
  73 Ni ( 0.000000,  0.000000,  0.133527)
  74 Fe ( 0.000000,  0.000000,  2.139563)
  75 Fe ( 0.000000,  0.000000,  2.138277)
  76 Cr ( 0.000000,  0.000000,  1.379741)
  77 Cr ( 0.000000,  0.000000, -1.909759)
  78 Ni ( 0.000000,  0.000000,  0.091744)
  79 Co ( 0.000000,  0.000000,  0.949877)
  80 Co ( 0.000000,  0.000000,  0.261489)
  81 Fe ( 0.000000,  0.000000,  1.784652)
  82 Al ( 0.000000,  0.000000, -0.009066)
  83 Cr ( 0.000000,  0.000000, -0.104776)
  84 Fe ( 0.000000,  0.000000,  1.960753)
  85 Al ( 0.000000,  0.000000, -0.044917)
  86 Fe ( 0.000000,  0.000000,  2.097320)
  87 Fe ( 0.000000,  0.000000,  2.145857)
  88 Cr ( 0.000000,  0.000000, -1.840028)
  89 Al ( 0.000000,  0.000000, -0.041782)
  90 Co ( 0.000000,  0.000000,  0.960830)
  91 Fe ( 0.000000,  0.000000,  2.173685)
  92 Co ( 0.000000,  0.000000,  1.003223)
  93 Co ( 0.000000,  0.000000,  1.299273)
  94 Fe ( 0.000000,  0.000000,  2.018735)
  95 Cr ( 0.000000,  0.000000, -0.941481)
  96 Ni ( 0.000000,  0.000000,  0.247226)
  97 Ni ( 0.000000,  0.000000,  0.171247)
  98 Cr ( 0.000000,  0.000000,  1.430973)
  99 Fe ( 0.000000,  0.000000,  1.856170)
 100 Al ( 0.000000,  0.000000, -0.036374)
 101 Ni ( 0.000000,  0.000000,  0.087858)
 102 Co ( 0.000000,  0.000000,  0.870639)
 103 Al ( 0.000000,  0.000000, -0.005331)
 104 Ni ( 0.000000,  0.000000,  0.200036)
 105 Al ( 0.000000,  0.000000, -0.023440)
 106 Fe ( 0.000000,  0.000000,  2.500247)
 107 Co ( 0.000000,  0.000000,  0.817408)

Energy contributions relative to reference atoms: (reference = -3235165.067515)

Kinetic:       +233.750389
Potential:     -227.385781
External:        +0.000000
XC:            -840.982405
Entropy (-ST):   -4.096094
Local:          +31.327433
--------------------------
Free energy:   -807.386458
Extrapolated:  -805.338411

Spin contamination: 30.044391 electrons
Showing only first 2 kpts
                      Up                     Down
 Kpt  Band  Eigenvalues  Occupancy  Eigenvalues  Occupancy
  0   454      9.08963    0.98771      9.82714    0.04795
  0   455      9.09577    0.98694      9.84357    0.04099
  0   456      9.10724    0.98538      9.85327    0.03734
  0   457      9.13620    0.98056      9.87083    0.03152

  1   454      9.07540    0.98932      9.82837    0.04739
  1   455      9.08686    0.98804      9.83276    0.04545
  1   456      9.10342    0.98592      9.84345    0.04103
  1   457      9.11064    0.98488      9.86423    0.03359


Fermi level: 9.52831

No gap

Forces in eV/Ang:
  0 Cr    0.34548   -0.48752   -0.72108
  1 Al    0.10623   -0.06382   -0.35790
  2 Ni    0.05818    0.04025   -0.04458
  3 Co    0.12183    0.02775    0.03752
  4 Al   -0.04865    0.05175    0.26491
  5 Cr   -0.09253   -0.18211    0.71406
  6 Co   -0.16451    0.14266    0.95900
  7 Al   -0.28561    0.23115   -0.32913
  8 Al   -0.60050   -0.22165    1.92412
  9 Fe    0.28471   -0.15476    0.83492
 10 Fe    0.04100   -0.54180    0.45707
 11 Fe    0.47285    0.15523   -0.05901
 12 Cr   -0.00088   -0.78504    0.43131
 13 Cr    0.28842    0.08648    0.05984
 14 Co    0.19155    0.22839   -0.34225
 15 Fe    0.42615   -0.14498    0.36044
 16 Ni   -0.45934   -0.14420    0.23301
 17 Co   -0.38672    0.46666    0.27577
 18 Al   -0.41218   -0.47685   -0.02473
 19 Ni   -0.24356    0.12796   -0.13721
 20 Co    0.55905    0.14902   -0.10004
 21 Al    0.65376   -0.07221   -0.21591
 22 Cr   -0.67523   -0.33596    0.22664
 23 Ni   -0.05495   -0.00437   -0.11480
 24 Ni   -0.10701    0.62106   -0.16512
 25 Fe   -0.47994    0.26455   -0.81450
 26 Fe    0.19879   -0.25165   -0.02445
 27 Cr   -0.98553   -0.92767    0.04395
 28 Fe    0.16850   -0.00149    0.43861
 29 Co    0.42881   -0.15570    0.25682
 30 Ni   -0.64395    0.08748    0.05209
 31 Fe    0.03966   -0.47988    0.53872
 32 Cr   -0.09644    0.38583   -0.99472
 33 Co   -0.09376    0.29922    0.56341
 34 Cr    0.67082    0.72663    0.41415
 35 Ni    0.36395    0.14233   -0.36818
 36 Fe   -0.31394   -0.42159    0.02022
 37 Fe    0.03560    0.60416   -0.20776
 38 Cr    0.48175    0.29616    0.47309
 39 Al    0.59502    0.22283    0.20228
 40 Al    2.00980    0.81415   -0.72743
 41 Co   -0.14433    0.18478   -0.45679
 42 Al   -0.80824    1.40410   -1.39744
 43 Ni   -0.14371   -0.66319   -0.15946
 44 Ni   -0.68582    0.27168   -0.16224
 45 Al   -0.70964    1.28827   -1.23244
 46 Al   -0.19622   -0.87160   -1.31551
 47 Co   -0.21283    0.30526   -0.35998
 48 Fe    0.14778    0.19386    0.37238
 49 Cr    0.07083    0.29741    0.16445
 50 Cr    0.43851    0.13220    0.98103
 51 Ni    0.20097   -0.19608   -0.03139
 52 Cr   -0.64404   -0.46315    0.28524
 53 Co   -0.49518    0.23990    0.37930
 54 Ni   -0.05654   -0.49665   -0.02287
 55 Al   -0.21236    0.56771    0.83758
 56 Ni    0.17727   -0.27743   -0.81152
 57 Cr    0.80879   -0.20234    0.54425
 58 Co    0.08775    0.26479   -0.03658
 59 Cr   -0.34548   -0.61709    0.24664
 60 Fe    0.25296    0.15115   -0.00080
 61 Co   -0.00449   -0.41019    0.48213
 62 Co   -0.02011   -0.34040    0.19604
 63 Al   -0.36012   -0.26643   -0.38204
 64 Cr    0.00091   -0.23512   -0.34821
 65 Ni    0.00953    0.02402   -0.70747
 66 Co   -0.28435   -0.43107   -0.32082
 67 Ni   -0.14447    0.35981   -0.47334
 68 Ni    0.02996    0.29529   -0.30405
 69 Al    0.62393   -0.69175   -1.01486
 70 Cr    1.00010   -0.50672    0.42720
 71 Ni   -0.20432    0.28941   -0.36328
 72 Al    0.65444   -0.69745    1.20201
 73 Ni    0.12631   -0.36959    0.55837
 74 Fe   -0.56771    0.15474    0.50069
 75 Fe    0.55680    0.63562   -0.18815
 76 Cr   -0.77943    1.44550    0.31697
 77 Cr   -0.70824    0.43887   -0.60644
 78 Ni    0.03752    0.24752   -0.07493
 79 Co   -0.84356    0.54742    0.52226
 80 Co   -0.25182   -0.04671   -0.37863
 81 Fe   -0.00790    0.65539   -0.34344
 82 Al    1.58701    0.10289   -0.30708
 83 Cr    0.34478    1.81778    0.60918
 84 Fe    0.23722    0.01732   -0.20057
 85 Al    0.00570    0.70372   -0.54078
 86 Fe    0.06479   -0.36184   -0.26939
 87 Fe    0.00236   -0.40155   -0.50838
 88 Cr   -0.06247   -0.45787   -0.74044
 89 Al    0.52657   -0.02289    0.39435
 90 Co    0.01469    0.07751   -0.61490
 91 Fe    0.34663   -0.13232    0.13866
 92 Co    0.20512    0.25553    0.44501
 93 Co    0.07242    0.29733   -0.11775
 94 Fe   -0.22492   -0.27987   -0.18194
 95 Cr   -0.57167   -0.18762   -0.32139
 96 Ni    0.12464    0.03978    0.89210
 97 Ni   -0.53695   -0.38414   -0.06347
 98 Cr   -0.85889    0.59056    0.32834
 99 Fe   -0.93358   -0.00386   -0.13316
100 Al   -0.38558   -0.53640   -0.52801
101 Ni    0.28024   -0.27459   -0.03129
102 Co   -0.28836   -0.68129    0.36119
103 Al   -0.26455   -0.93261    1.13104
104 Ni    0.07067   -0.12569    0.70674
105 Al   -0.07884   -1.76582   -0.66476
106 Fe    0.59552    0.41757   -0.52249
107 Co    0.94035   -0.70648    0.17842

Timing:                              incl.     excl.
-----------------------------------------------------------
Forces:                             15.476    15.476   0.1% |
Hamiltonian:                         0.562     0.004   0.0% |
 Atomic:                             0.325     0.092   0.0% |
  XC Correction:                     0.234     0.234   0.0% |
 Calculate atomic Hamiltonians:      0.118     0.118   0.0% |
 Communicate:                        0.020     0.020   0.0% |
 Initialize Hamiltonian:             0.000     0.000   0.0% |
 Poisson:                            0.001     0.001   0.0% |
 XC 3D grid:                         0.094     0.094   0.0% |
LCAO initialization:               104.994     1.014   0.0% |
 LCAO eigensolver:                  10.987     0.011   0.0% |
  Calculate projections:             0.111     0.111   0.0% |
  DenseAtomicCorrection:             0.169     0.169   0.0% |
  Distribute overlap matrix:         1.835     1.835   0.0% |
  Orbital Layouts:                   5.483     5.483   0.0% |
  Potential matrix:                  2.860     2.860   0.0% |
  Sum over cells:                    0.518     0.518   0.0% |
 LCAO to grid:                      91.200    91.200   0.6% |
 Set positions (LCAO WFS):           1.793     1.243   0.0% |
  Basic WFS set positions:           0.003     0.003   0.0% |
  Basis functions set positions:     0.001     0.001   0.0% |
  P tci:                             0.163     0.163   0.0% |
  ST tci:                            0.154     0.154   0.0% |
  mktci:                             0.229     0.229   0.0% |
PWDescriptor:                        0.053     0.053   0.0% |
SCF-cycle:                       14956.153     0.664   0.0% |
 Davidson:                       14699.569  4015.972  26.6% |----------|
  Apply H:                         176.482   173.107   1.1% |
   HMM T:                            3.374     3.374   0.0% |
  Subspace diag:                  1386.385     0.127   0.0% |
   calc_h_matrix:                  501.256   319.841   2.1% ||
    Apply H:                       181.414   177.749   1.2% |
     HMM T:                          3.666     3.666   0.0% |
   diagonalize:                    284.066   284.066   1.9% ||
   rotate_psi:                     600.936   600.936   4.0% |-|
  calc. matrices:                 2914.937  2666.544  17.7% |------|
   Apply H:                        248.393   241.739   1.6% ||
    HMM T:                           6.654     6.654   0.0% |
  diagonalize:                    4849.105  4849.105  32.2% |------------|
  rotate_psi:                     1356.688  1356.688   9.0% |---|
 Density:                          135.396     0.005   0.0% |
  Atomic density matrices:           4.376     4.376   0.0% |
  Mix:                              32.676    32.676   0.2% |
  Multipole moments:                 0.081     0.081   0.0% |
  Pseudo density:                   98.258    98.252   0.7% |
   Symmetrize density:               0.006     0.006   0.0% |
 Hamiltonian:                      112.448     0.683   0.0% |
  Atomic:                           65.199    16.995   0.1% |
   XC Correction:                   48.204    48.204   0.3% |
  Calculate atomic Hamiltonians:    25.224    25.224   0.2% |
  Communicate:                       4.259     4.259   0.0% |
  Poisson:                           0.106     0.106   0.0% |
  XC 3D grid:                       16.975    16.975   0.1% |
 Orthonormalize:                     8.077     0.001   0.0% |
  calc_s_matrix:                     0.914     0.914   0.0% |
  inverse-cholesky:                  0.724     0.724   0.0% |
  projections:                       4.879     4.879   0.0% |
  rotate_psi_s:                      1.557     1.557   0.0% |
Set symmetry:                        0.001     0.001   0.0% |
Other:                               2.627     2.627   0.0% |
-----------------------------------------------------------
Total:                                     15079.865 100.0%

Date: Sat Apr 15 12:53:02 2023
