
  ___ ___ ___ _ _ _  
 |   |   |_  | | | | 
 | | | | | . | | | | 
 |__ |  _|___|_____|  22.8.0
 |___|_|             

User:   c.zeng@d0100
Date:   Mon Apr 17 21:23:10 2023
Arch:   x86_64
Pid:    208918
CWD:    /home/c.zeng/projects/hea-corrosion/hea-mlp/data-curation/surface-md/dft-jobs/85
Python: 3.8.1
gpaw:   /home/c.zeng/usr/installs/gpaw/source/gpaw-22.8.0/gpaw
_gpaw:  /home/c.zeng/usr/installs/gpaw/source/gpaw-22.8.0/
        _gpaw.cpython-38-x86_64-linux-gnu.so
ase:    /home/c.zeng/.local/lib/python3.8/site-packages/ase-3.22.1-py3.8.egg/ase (version 3.22.1)
numpy:  /home/c.zeng/.local/lib/python3.8/site-packages/numpy (version 1.24.2)
scipy:  /home/c.zeng/.local/lib/python3.8/site-packages/scipy (version 1.10.1)
libxc:  4.2.3
units:  Angstrom and eV
cores: 30
OpenMP: False
OMP_NUM_THREADS: 1

Input parameters:
  convergence: {energy: 0.0001}
  kpts: [2 2 1]
  maxiter: 666
  mode: {ecut: 350.0,
         name: pw}
  occupations: {fixmagmom: False,
                name: fermi-dirac,
                width: 0.1}
  poissonsolver: {dipolelayer: xy}
  spinpol: True
  symmetry: {point_group: False}
  xc: PBE

System changes: positions, numbers, cell, pbc, initial_charges, initial_magmoms 

Initialize ...

species:
  Co:
    name: Cobalt
    id: 339d20d5b0b93d2de9531a1bee871d91
    Z: 27.0
    valence: 9
    core: 18
    charge: 0.0
    file: /home/c.zeng/usr/data/gpaw-setups-0.9.20000/Co.PBE.gz
    compensation charges: {type: gauss,
                           rc: 0.32,
                           lmax: 2}
    cutoffs: {filter: 1.87,
              core: 2.55}
    valence states:
      #              energy  rcut
      - 4s(2.00)    -5.469   1.005
      - 4p(0.00)    -1.277   1.058
      - 3d(7.00)    -8.205   1.005
      -  s          21.742   1.005
      -  p          25.934   1.058
      -  d          19.007   1.005
  
    # Using partial waves for Co as LCAO basis

  Fe:
    name: Iron
    id: 37abbd8d6c3c35915a9b583b742da910
    Z: 26.0
    valence: 8
    core: 18
    charge: 0.0
    file: /home/c.zeng/usr/data/gpaw-setups-0.9.20000/Fe.PBE.gz
    compensation charges: {type: gauss,
                           rc: 0.33,
                           lmax: 2}
    cutoffs: {filter: 2.06,
              core: 2.67}
    valence states:
      #              energy  rcut
      - 4s(2.00)    -5.291   1.164
      - 4p(0.00)    -1.326   1.058
      - 3d(6.00)    -7.505   1.058
      -  s          21.920   1.164
      -  p          25.885   1.058
      -  d          19.706   1.058
  
    # Using partial waves for Fe as LCAO basis

  Al:
    name: Aluminium
    id: 0292cae29f5d6237e50f6abdd43a7bdd
    Z: 13.0
    valence: 3
    core: 10
    charge: 0.0
    file: /home/c.zeng/usr/data/gpaw-setups-0.9.20000/Al.PBE.gz
    compensation charges: {type: gauss,
                           rc: 0.34,
                           lmax: 2}
    cutoffs: {filter: 1.91,
              core: 2.36}
    valence states:
      #              energy  rcut
      - 3s(2.00)    -7.753   1.085
      - 3p(1.00)    -2.712   1.085
      -  s          19.459   1.085
      -  p          24.499   1.085
      -  d           0.000   1.085
  
    # Using partial waves for Al as LCAO basis

  Cr:
    name: Chromium
    id: 33f258bda2ca9f93018e70263a35547b
    Z: 24.0
    valence: 6
    core: 18
    charge: 0.0
    file: /home/c.zeng/usr/data/gpaw-setups-0.9.20000/Cr.PBE.gz
    compensation charges: {type: gauss,
                           rc: 0.35,
                           lmax: 2}
    cutoffs: {filter: 2.14,
              core: 3.04}
    valence states:
      #              energy  rcut
      - 4s(1.00)    -4.007   1.164
      - 4p(0.00)    -0.989   1.217
      - 3d(5.00)    -2.913   1.111
      -  s          23.205   1.164
      -  p          26.223   1.217
      -  d          24.299   1.111
  
    # Using partial waves for Cr as LCAO basis

  Ni:
    name: Nickel
    id: 0d9f38a9d6e76a2886f07bb4381f212b
    Z: 28.0
    valence: 16
    core: 12
    charge: 0.0
    file: /home/c.zeng/usr/data/gpaw-setups-0.9.20000/Ni.PBE.gz
    compensation charges: {type: gauss,
                           rc: 0.36,
                           lmax: 2}
    cutoffs: {filter: 2.14,
              core: 1.98}
    valence states:
      #              energy  rcut
      - 4s(2.00)    -5.642   1.164
      - 3p(6.00)   -71.394   1.207
      - 4p(0.00)    -1.226   1.207
      - 3d(8.00)    -8.875   1.138
      -  s          21.570   1.164
      -  d          18.337   1.138
  
    # Using partial waves for Ni as LCAO basis

Reference energy: -3726899.091688  # eV

Spin-polarized calculation.
Magnetic moment: 140.000000

Convergence criteria:
 Maximum [total energy] change in last 3 cyles: 0.0001 eV / electron
 Maximum integral of absolute [dens]ity change: 0.0001 electrons / valence electron
 Maximum integral of absolute [eigenst]ate change: 4e-08 eV^2 / valence electron
 Maximum number of scf [iter]ations: 666
 (Square brackets indicate name in SCF output, whereas a 'c' in
 the SCF output indicates the quantity has converged.)

Symmetries present (total): 1

  ( 1  0  0)
  ( 0  1  0)
  ( 0  0  1)

4 k-points: 2 x 2 x 1 Monkhorst-Pack grid
2 k-points in the irreducible part of the Brillouin zone
       k-points in crystal coordinates                weights
   0:     0.25000000   -0.25000000    0.00000000          2/4
   1:     0.25000000    0.25000000    0.00000000          2/4

Wave functions: Plane wave expansion
  Cutoff energy: 350.000 eV
  Number of coefficients (min, max): 60935, 60955
  Pulay-stress correction: 0.000000 eV/Ang^3 (de/decut=0.000000)
  Using FFTW library
  ScaLapack parameters: grid=1x1, blocksize=None
  Wavefunction extrapolation:
    Improved wavefunction reuse through dual PAW basis 

Occupation numbers: Fermi-Dirac:
  width: 0.1000  # eV
 

Eigensolver
   Davidson(niter=2) 

Densities:
  Coarse grid: 56*56*128 grid
  Fine grid: 112*112*256 grid
  Total Charge: 0.000000 

Density mixing:
  Method: difference
  Backend: pulay
  Linear mixing parameter: 0.05
  old densities: 5
  Damping of long wavelength oscillations: 50 

Hamiltonian:
  XC and Coulomb potentials evaluated on a 112*112*256 grid
  Using the PBE Exchange-Correlation functional
  External potential:
    NoExternalPotential
 

XC parameters: PBE with 2 nearest neighbor stencil

Memory estimate:
  Process memory now: 379.99 MiB
  Calculator: 2131.41 MiB
    Density: 19.02 MiB
      Arrays: 7.39 MiB
      Localized functions: 8.68 MiB
      Mixer: 2.95 MiB
    Hamiltonian: 5.75 MiB
      Arrays: 5.49 MiB
      XC: 0.00 MiB
      Poisson: 0.00 MiB
      vbar: 0.26 MiB
    Wavefunctions: 2106.64 MiB
      Arrays psit_nG: 1335.62 MiB
      Eigensolver: 751.15 MiB
      Projections: 3.10 MiB
      Projectors: 1.18 MiB
      PW-descriptor: 15.59 MiB

Total number of cores used: 30
Parallelization over k-points: 2
Domain decomposition: 1 x 3 x 5

Number of atoms: 125
Number of atomic orbitals: 1075
Number of bands in calculation: 718
Number of valence electrons: 1050
Bands to converge: occupied

... initialized

Initializing position-dependent things.

Density initialized from atomic densities
Creating initial wave functions:
  718 bands from LCAO basis set

                                                                  
                                                                  
                                                                  
                                                                  
                           Cr                Cr    Al             
                                Cr       Fe    Fe                 
                      Fe    Ni    NiFe                            
                        Ni    Al          Cr    AAl    Cr         
                   Al     Fe  CoAl  NiNi    Ni                    
         Cr   Fe         Co Al Fe    Al    Ni     Co              
                    Ni     Fe    NCr   Co  Co Ni                  
                Fe    Cr  CrCo  NiFe Co           Cr              
                 Ni  Cr Fe Fe Fe Cr     AAl   Fe                  
           Co    Cr    Co    Co Al NAl   Al              Al       
             Cr    Cr Fe Co Ni Co Ni     Ni   Al                  
                  FeCo  CrNi  Fe    NCr   ACr                     
        Co    Cr             Ni CNi             Al    Ni          
             AlNi  FeNi  ANiAl  Co   CCr   Ni     Fe              
                     Fe          CCo    Al    Fe                  
                 Al    Fe              Al                         
                CoCo  AlFe  CCr    Co    Fe                       
            Fe                 Co    Co                           
                                                                  
                                                                  
                                                                  
                                                                  
                                                                  

Positions:
   0 Co    12.731385    1.558157    9.946883    ( 0.0000,  0.0000,  2.1000)
   1 Fe     2.753548    1.392394   10.367288    ( 0.0000,  0.0000,  2.0000)
   2 Co     5.045127    1.819457   10.399791    ( 0.0000,  0.0000,  2.1000)
   3 Fe     7.743788    1.656985   10.932933    ( 0.0000,  0.0000,  2.0000)
   4 Co    10.358901    1.467122    9.864051    ( 0.0000,  0.0000,  2.1000)
   5 Fe    14.016565    3.709720   10.242067    ( 0.0000,  0.0000,  2.0000)
   6 Co     3.687983    3.856574   10.039417    ( 0.0000,  0.0000,  2.1000)
   7 Al     6.345164    3.679060    9.919515    ( 0.0000,  0.0000,  0.0000)
   8 Co     8.815625    3.636974    9.919526    ( 0.0000,  0.0000,  2.1000)
   9 Co    11.480889    3.888764   10.077686    ( 0.0000,  0.0000,  2.1000)
  10 Fe    15.375130    5.911445   10.440016    ( 0.0000,  0.0000,  2.0000)
  11 Fe     5.134653    6.015572   10.393919    ( 0.0000,  0.0000,  2.0000)
  12 Co     7.784160    6.292127   10.741116    ( 0.0000,  0.0000,  2.1000)
  13 Co    10.181799    6.063917   10.295568    ( 0.0000,  0.0000,  2.1000)
  14 Al    12.656520    6.100609    9.847882    ( 0.0000,  0.0000,  0.0000)
  15 Fe    16.585520    8.124761   10.290616    ( 0.0000,  0.0000,  2.0000)
  16 Al     6.445531    8.190747   10.329796    ( 0.0000,  0.0000,  0.0000)
  17 Co     9.166116    8.149983   10.078511    ( 0.0000,  0.0000,  2.1000)
  18 Cr    11.385792    8.218964    9.993174    ( 0.0000,  0.0000,  0.0000)
  19 Ni    13.939663    8.194569   10.088983    ( 0.0000,  0.0000,  1.5000)
  20 Ni    17.916029   10.175530    9.930321    ( 0.0000,  0.0000,  1.5000)
  21 Ni     7.681483   10.461676   10.047714    ( 0.0000,  0.0000,  1.5000)
  22 Cr    10.337275   10.269802   10.397015    ( 0.0000,  0.0000,  0.0000)
  23 Al    12.819864   10.681096   10.242932    ( 0.0000,  0.0000,  0.0000)
  24 Al    15.396508   10.372196   10.082173    ( 0.0000,  0.0000,  0.0000)
  25 Al    18.735316   11.065267   12.065198    ( 0.0000,  0.0000,  0.0000)
  26 Al     8.682826   10.511822   12.447531    ( 0.0000,  0.0000,  0.0000)
  27 Al     5.201566   -0.219307   12.557556    ( 0.0000,  0.0000,  0.0000)
  28 Fe     7.617156    0.006364   12.794487    ( 0.0000,  0.0000,  2.0000)
  29 Cr    10.166378   -0.295873   12.108592    ( 0.0000,  0.0000,  0.0000)
  30 Al    13.870236    2.072009   12.347399    ( 0.0000,  0.0000,  0.0000)
  31 Ni     3.691831    1.865182   12.802983    ( 0.0000,  0.0000,  1.5000)
  32 Ni     6.191597    2.181495   12.749153    ( 0.0000,  0.0000,  1.5000)
  33 Al     9.095208    2.260384   12.900802    ( 0.0000,  0.0000,  0.0000)
  34 Co    11.382405    2.258934   12.065710    ( 0.0000,  0.0000,  2.1000)
  35 Al     2.540855    4.304804   12.368380    ( 0.0000,  0.0000,  0.0000)
  36 Fe     5.070732    4.346289   12.027481    ( 0.0000,  0.0000,  2.0000)
  37 Ni     7.698175    4.208561   11.975142    ( 0.0000,  0.0000,  1.5000)
  38 Co    10.100152    4.319836   12.520292    ( 0.0000,  0.0000,  2.1000)
  39 Cr    12.568612    4.613512   12.124777    ( 0.0000,  0.0000,  0.0000)
  40 Fe     3.852447    6.601349   12.525540    ( 0.0000,  0.0000,  2.0000)
  41 Cr     6.354179    6.293011   12.782598    ( 0.0000,  0.0000,  0.0000)
  42 Fe     8.932210    6.265200   12.704471    ( 0.0000,  0.0000,  2.0000)
  43 Ni    11.417600    6.562367   12.435131    ( 0.0000,  0.0000,  1.5000)
  44 Cr    13.954374    6.669383   12.117263    ( 0.0000,  0.0000,  0.0000)
  45 Fe     5.126182    8.545603   12.494832    ( 0.0000,  0.0000,  2.0000)
  46 Ni     7.602476    8.571695   12.337894    ( 0.0000,  0.0000,  1.5000)
  47 Ni    10.074520    8.372505   12.397687    ( 0.0000,  0.0000,  1.5000)
  48 Ni    12.802469    8.801356   12.238516    ( 0.0000,  0.0000,  1.5000)
  49 Al    15.045980    8.654270   12.322455    ( 0.0000,  0.0000,  0.0000)
  50 Co     1.308651    0.791690   14.696016    ( 0.0000,  0.0000,  2.1000)
  51 Cr     3.764412    0.718026   14.735866    ( 0.0000,  0.0000,  0.0000)
  52 Co     6.227167    0.793073   15.006539    ( 0.0000,  0.0000,  2.1000)
  53 Ni     8.780128    0.475895   15.141822    ( 0.0000,  0.0000,  1.5000)
  54 Ni    11.301601    1.132489   14.239191    ( 0.0000,  0.0000,  1.5000)
  55 Cr     2.864553    2.867701   14.810487    ( 0.0000,  0.0000,  0.0000)
  56 Cr     5.200003    3.009249   14.819382    ( 0.0000,  0.0000,  0.0000)
  57 Co     7.763531    2.836208   15.025941    ( 0.0000,  0.0000,  2.1000)
  58 Co    10.231602    3.182141   14.950944    ( 0.0000,  0.0000,  2.1000)
  59 Cr    12.621342    2.974471   14.244178    ( 0.0000,  0.0000,  0.0000)
  60 Cr     3.922654    5.180370   14.634727    ( 0.0000,  0.0000,  0.0000)
  61 Co     6.520199    5.002534   14.977078    ( 0.0000,  0.0000,  2.1000)
  62 Co     8.950908    5.132968   14.883207    ( 0.0000,  0.0000,  2.1000)
  63 Ni    11.264839    5.276314   14.658476    ( 0.0000,  0.0000,  1.5000)
  64 Al    13.869187    5.097836   14.631064    ( 0.0000,  0.0000,  0.0000)
  65 Cr     5.120212    7.269003   14.891183    ( 0.0000,  0.0000,  0.0000)
  66 Fe     7.556604    7.225203   14.683561    ( 0.0000,  0.0000,  2.0000)
  67 Cr    10.041724    7.238124   14.590836    ( 0.0000,  0.0000,  0.0000)
  68 Al    12.842418    7.383237   14.605369    ( 0.0000,  0.0000,  0.0000)
  69 Fe    15.296118    7.336093   14.767977    ( 0.0000,  0.0000,  2.0000)
  70 Cr     6.435321    9.613749   14.515737    ( 0.0000,  0.0000,  0.0000)
  71 Ni     8.802892    9.363774   14.365653    ( 0.0000,  0.0000,  1.5000)
  72 Co    11.101085    9.526403   14.707319    ( 0.0000,  0.0000,  2.1000)
  73 Co    13.503328    9.644500   15.005814    ( 0.0000,  0.0000,  2.1000)
  74 Cr    16.353654    9.676176   14.365478    ( 0.0000,  0.0000,  0.0000)
  75 Al    12.492934    1.423816   16.355385    ( 0.0000,  0.0000,  0.0000)
  76 Co     2.378195    1.297435   16.900370    ( 0.0000,  0.0000,  2.1000)
  77 Ni     4.856092    1.463341   17.012262    ( 0.0000,  0.0000,  1.5000)
  78 Fe     7.644463    1.609027   17.113887    ( 0.0000,  0.0000,  2.0000)
  79 Fe    10.193900    1.296178   17.061901    ( 0.0000,  0.0000,  2.0000)
  80 Al    14.041211    3.530157   16.602519    ( 0.0000,  0.0000,  0.0000)
  81 Cr     3.970297    3.527676   17.351098    ( 0.0000,  0.0000,  0.0000)
  82 Cr     6.350871    3.734463   16.945027    ( 0.0000,  0.0000,  0.0000)
  83 Co     8.809905    3.628069   17.142814    ( 0.0000,  0.0000,  2.1000)
  84 Fe    11.218579    3.583924   17.132336    ( 0.0000,  0.0000,  2.0000)
  85 Ni    15.414540    5.860467   16.962195    ( 0.0000,  0.0000,  1.5000)
  86 Cr     5.015235    6.073343   17.154784    ( 0.0000,  0.0000,  0.0000)
  87 Fe     7.648690    6.002400   17.064568    ( 0.0000,  0.0000,  2.0000)
  88 Ni    10.179682    5.836190   17.049852    ( 0.0000,  0.0000,  1.5000)
  89 Co    12.760460    5.875832   16.612040    ( 0.0000,  0.0000,  2.1000)
  90 Co    16.586479    8.132970   16.978737    ( 0.0000,  0.0000,  2.1000)
  91 Co     6.432672    8.340616   16.562449    ( 0.0000,  0.0000,  2.1000)
  92 Fe     8.920835    7.848831   16.711916    ( 0.0000,  0.0000,  2.0000)
  93 Al    11.464384    8.082159   17.026460    ( 0.0000,  0.0000,  0.0000)
  94 Ni    13.923946    7.762296   17.159635    ( 0.0000,  0.0000,  1.5000)
  95 Cr    17.914391   10.463885   16.917499    ( 0.0000,  0.0000,  0.0000)
  96 Co     7.829928   10.119164   16.501665    ( 0.0000,  0.0000,  2.1000)
  97 Ni    10.305296   10.196702   16.844918    ( 0.0000,  0.0000,  1.5000)
  98 Al    12.731458   10.704422   17.244725    ( 0.0000,  0.0000,  0.0000)
  99 Al    15.201983   10.155054   17.233849    ( 0.0000,  0.0000,  0.0000)
 100 Cr     6.465135   10.950338   19.079984    ( 0.0000,  0.0000,  0.0000)
 101 Cr     8.821463   10.883910   18.788841    ( 0.0000,  0.0000,  0.0000)
 102 Fe     4.879148    0.060222   19.033264    ( 0.0000,  0.0000,  2.0000)
 103 Cr    14.062164   11.077803   19.473993    ( 0.0000,  0.0000,  0.0000)
 104 Al    16.659816   10.424346   19.559836    ( 0.0000,  0.0000,  0.0000)
 105 Cr     1.153162    2.478888   19.152264    ( 0.0000,  0.0000,  0.0000)
 106 Fe     3.454852    2.195616   19.495992    ( 0.0000,  0.0000,  2.0000)
 107 Ni     5.952507    2.014255   19.117228    ( 0.0000,  0.0000,  1.5000)
 108 Al     8.942921    2.127742   19.187353    ( 0.0000,  0.0000,  0.0000)
 109 Cr    11.490642    2.048191   19.047626    ( 0.0000,  0.0000,  0.0000)
 110 Ni    15.061029    4.368109   18.865397    ( 0.0000,  0.0000,  1.5000)
 111 Al     5.039330    4.167576   19.337793    ( 0.0000,  0.0000,  0.0000)
 112 Fe     7.651751    4.327233   19.391189    ( 0.0000,  0.0000,  2.0000)
 113 Al    10.324314    4.403575   19.239166    ( 0.0000,  0.0000,  0.0000)
 114 Ni    12.718234    4.626798   18.712893    ( 0.0000,  0.0000,  1.5000)
 115 Al    16.451209    6.414155   19.208809    ( 0.0000,  0.0000,  0.0000)
 116 Ni     6.427181    6.299416   19.142959    ( 0.0000,  0.0000,  1.5000)
 117 Al     8.888243    6.530784   19.311712    ( 0.0000,  0.0000,  0.0000)
 118 Fe    11.368194    6.967307   19.428568    ( 0.0000,  0.0000,  2.0000)
 119 Cr    13.710815    6.599064   19.244207    ( 0.0000,  0.0000,  0.0000)
 120 Fe     5.214625    8.347950   18.909264    ( 0.0000,  0.0000,  2.0000)
 121 Ni     7.687525    8.714327   18.615112    ( 0.0000,  0.0000,  1.5000)
 122 Ni    10.111964    8.932606   18.913978    ( 0.0000,  0.0000,  1.5000)
 123 Fe    12.723157    9.148273   18.995717    ( 0.0000,  0.0000,  2.0000)
 124 Fe    15.128231    8.606811   19.280893    ( 0.0000,  0.0000,  2.0000)

Unit cell:
           periodic     x           y           z      points  spacing
  1. axis:    yes   12.688900    0.000000    0.000000    56     0.1962
  2. axis:    yes    6.352870   11.003500    0.000000    56     0.1965
  3. axis:    no     0.000000    0.000000   29.353100   128     0.2293

  Lengths:  12.688900  12.705746  29.353100
  Angles:   90.000000  90.000000  60.000014

Effective grid spacing dv^(1/3) = 0.2169

     iter     time        total  log10-change:  magmom
                         energy  eigst   dens
iter:   1 21:30:01 -1091.737224                  +140.3334
iter:   2 21:32:19  -968.034463  -0.04  -1.09    +73.8448
iter:   3 21:34:38 -1346.290889  -0.18  -1.08    +71.9844
iter:   4 21:36:56 -1204.220125  +0.02  -0.88    +62.0277
iter:   5 21:39:14  -954.891197  -0.93  -0.93    +46.4990
iter:   6 21:41:31  -907.472425  -1.56  -1.17    +41.4403
iter:   7 21:43:49  -899.144969  -1.77  -1.25    +41.8324
iter:   8 21:46:07  -898.274187  -1.58  -1.28    +45.9413
iter:   9 21:48:25  -892.073572  -1.05  -1.31    +46.5542
iter:  10 21:50:43  -880.119765  -1.60  -1.33    +48.3602
iter:  11 21:53:01 -1039.079300  -1.20  -1.45    +50.7113
iter:  12 21:55:19  -899.018191  -1.23  -1.05    +49.8718
iter:  13 21:57:38  -888.034788  -1.52  -1.40    +46.3895
iter:  14 21:59:56  -882.133103  -1.85  -1.50    +44.4044
iter:  15 22:02:14  -879.509703  -2.14  -1.53    +46.2830
iter:  16 22:04:33  -881.993995  -2.21  -1.61    +49.1735
iter:  17 22:06:51 -1141.188994  -0.93  -1.58    +50.5753
iter:  18 22:09:10  -877.372105  -1.26  -0.99    +48.3657
iter:  19 22:11:29  -878.093882  -2.18  -1.66    +48.9381
iter:  20 22:13:47  -877.622580  -2.32  -1.67    +52.5923
iter:  21 22:16:06  -875.941189  -2.58  -1.72    +54.2402
iter:  22 22:18:24  -875.363732  -2.58  -1.78    +57.4483
iter:  23 22:20:43  -885.944557  -2.00  -1.86    +59.7710
iter:  24 22:23:01  -880.412692  -2.09  -1.65    +60.3320
iter:  25 22:25:20  -876.251424  -2.73  -1.78    +62.0010
iter:  26 22:27:39  -878.859319  -2.72  -1.98    +64.6670
iter:  27 22:29:58  -876.678391  -2.88  -1.89    +65.4348
iter:  28 22:32:17  -877.301847  -3.00  -2.08    +67.2930
iter:  29 22:34:36  -879.705017  -2.43  -2.08    +68.9779
iter:  30 22:36:55  -877.815437  -2.78  -1.94    +69.1398
iter:  31 22:39:13  -877.633918  -3.08  -2.10    +70.1918
iter:  32 22:41:32  -878.938832  -3.09  -2.20    +70.4142
iter:  33 22:43:50  -877.942436  -3.28  -2.06    +70.7612
iter:  34 22:46:09  -878.016764  -3.36  -2.26    +71.1753
iter:  35 22:48:28  -877.997364c -3.51  -2.30    +71.3400
iter:  36 22:50:47  -878.400529  -3.26  -2.39    +71.7012
iter:  37 22:53:05  -878.574381  -3.14  -2.36    +71.7758
iter:  38 22:55:24  -878.819272  -3.32  -2.36    +71.7656
iter:  39 22:57:43  -878.451160  -3.43  -2.29    +71.6849
iter:  40 23:00:01  -878.460248  -3.75  -2.52    +71.6590
iter:  41 23:02:20  -878.542651c -3.77  -2.57    +71.6823
iter:  42 23:04:39  -878.505898c -4.19  -2.55    +71.6588
iter:  43 23:06:57  -878.549734c -3.76  -2.62    +71.5174
iter:  44 23:09:15  -878.586761c -3.82  -2.68    +71.2561
iter:  45 23:11:34  -878.757914  -3.98  -2.68    +71.2703
iter:  46 23:13:52  -878.663641  -3.81  -2.50    +71.2481
iter:  47 23:16:11  -878.602048  -4.09  -2.65    +71.1438
iter:  48 23:18:29  -878.620052c -4.44  -2.75    +71.1251
iter:  49 23:20:48  -878.634472c -4.44  -2.76    +71.0259
iter:  50 23:23:07  -878.671495c -4.06  -2.78    +70.8210
iter:  51 23:25:27  -878.862482  -3.80  -2.76    +70.6828
iter:  52 23:27:47  -878.764652  -4.49  -2.53    +70.7941
iter:  53 23:30:07  -878.870788  -4.31  -2.63    +70.8208
iter:  54 23:32:27  -878.849810  -4.45  -2.52    +70.8098
iter:  55 23:34:47  -878.675960  -3.91  -2.53    +70.6688
iter:  56 23:37:08  -878.659645  -4.20  -2.85    +70.7323
iter:  57 23:39:28  -878.705050c -4.10  -2.99    +70.7397
iter:  58 23:41:48  -878.698369c -4.27  -2.79    +70.6650
iter:  59 23:44:09  -878.670327c -4.76  -2.93    +70.5952
iter:  60 23:46:29  -878.676781c -4.88  -3.11    +70.5608
iter:  61 23:48:50  -878.683149c -4.81  -3.08    +70.5155
iter:  62 23:51:10  -878.679827c -5.12  -3.15    +70.5365
iter:  63 23:53:31  -878.681822c -5.08  -3.17    +70.5510
iter:  64 23:55:52  -878.684004c -5.03  -3.24    +70.5481
iter:  65 23:58:12  -878.684934c -4.90  -3.29    +70.5155
iter:  66 00:00:33  -878.697342c -5.13  -3.44    +70.5310
iter:  67 00:02:53  -878.691934c -5.08  -3.20    +70.5473
iter:  68 00:05:14  -878.694901c -5.06  -3.23    +70.5248
iter:  69 00:07:34  -878.692235c -5.60  -3.28    +70.5350
iter:  70 00:09:55  -878.694431c -5.53  -3.44    +70.5098
iter:  71 00:12:15  -878.699591c -5.07  -3.46    +70.4782
iter:  72 00:14:36  -878.702904c -4.97  -3.39    +70.4534
iter:  73 00:16:56  -878.702281c -5.82  -3.33    +70.4655
iter:  74 00:19:17  -878.704520c -5.18  -3.33    +70.4703
iter:  75 00:21:37  -878.709501c -5.72  -3.32    +70.4578
iter:  76 00:23:57  -878.706731c -4.89  -3.26    +70.4497
iter:  77 00:26:18  -878.715244c -4.96  -3.17    +70.4595
iter:  78 00:28:39  -878.720155c -5.37  -3.26    +70.4408
iter:  79 00:30:59  -878.740070c -4.78  -3.24    +70.4183
iter:  80 00:33:19  -878.715826c -4.70  -2.95    +70.3579
iter:  81 00:35:40  -878.723148c -4.91  -3.08    +70.3159
iter:  82 00:38:00  -878.739322c -4.33  -3.08    +70.3208
iter:  83 00:40:21  -878.715264c -4.68  -2.91    +70.3381
iter:  84 00:42:41  -878.722600c -5.00  -3.23    +70.3495
iter:  85 00:45:02  -878.720377c -5.31  -3.19    +70.3244
iter:  86 00:47:22  -878.727717c -4.92  -3.30    +70.3166
iter:  87 00:49:42  -878.723808c -5.17  -3.13    +70.3263
iter:  88 00:52:03  -878.725118c -4.91  -3.29    +70.3025
iter:  89 00:54:23  -878.723373c -5.15  -3.30    +70.2958
iter:  90 00:56:43  -878.739021c -5.03  -3.41    +70.2559
iter:  91 00:59:04  -878.731939c -5.64  -3.15    +70.2099
iter:  92 01:01:24  -878.736285c -5.05  -3.33    +70.1369
iter:  93 01:03:45  -878.737648c -5.55  -3.31    +70.1537
iter:  94 01:06:06  -878.740126c -5.24  -3.31    +70.0734
iter:  95 01:08:26  -878.739700c -6.09  -3.42    +70.0861
iter:  96 01:10:47  -878.747945c -4.94  -3.39    +70.0206
iter:  97 01:13:07  -878.745026c -5.22  -3.16    +70.0109
iter:  98 01:15:28  -878.755731c -5.06  -3.44    +69.9246
iter:  99 01:17:48  -878.747587c -5.28  -3.38    +69.9645
iter: 100 01:20:08  -878.761969c -4.93  -3.40    +69.8637
iter: 101 01:22:29  -878.762671c -5.45  -3.63    +69.8374
iter: 102 01:24:49  -878.772654c -5.23  -3.74    +69.7787
iter: 103 01:27:11  -878.733376c -4.01  -3.82    +70.0961
iter: 104 01:29:32  -878.732101c -4.73  -3.45    +70.1378
iter: 105 01:31:52  -878.741159c -5.31  -3.35    +70.0609
iter: 106 01:34:13  -878.743396c -5.54  -3.37    +70.0224
iter: 107 01:36:34  -878.747809c -5.74  -3.42    +69.9892
iter: 108 01:38:54  -878.769379c -4.59  -3.30    +69.9724
iter: 109 01:41:14  -878.751285c -4.93  -3.03    +69.9312
iter: 110 01:43:34  -878.763040c -4.90  -3.51    +69.8191
iter: 111 01:45:55  -878.764686c -5.56  -3.42    +69.8118
iter: 112 01:48:15  -878.776414c -5.10  -3.64    +69.7113
iter: 113 01:50:36  -878.753740c -4.67  -3.55    +69.9177
iter: 114 01:52:57  -878.738197c -4.33  -3.68    +70.1961
iter: 115 01:55:17  -878.733254c -4.33  -3.56    +70.4259
iter: 116 01:57:38  -878.736472c -4.85  -3.39    +70.5064
iter: 117 01:59:59  -878.741835c -5.09  -3.34    +70.5379
iter: 118 02:02:19  -878.743843c -5.43  -3.22    +70.4971
iter: 119 02:04:40  -878.747194c -5.16  -3.24    +70.5159
iter: 120 02:06:59  -878.744668c -5.18  -3.19    +70.5156
iter: 121 02:09:18  -878.771147c -4.04  -3.25    +70.5516
iter: 122 02:11:37  -878.771560c -4.21  -2.94    +70.5122
iter: 123 02:13:56  -878.748793c -4.57  -2.92    +70.4350
iter: 124 02:16:15  -878.750728c -4.94  -3.11    +70.4074
iter: 125 02:18:34  -878.753441c -5.09  -3.35    +70.3341
iter: 126 02:20:53  -878.775106c -4.78  -3.47    +70.2641
iter: 127 02:23:12  -878.746451c -4.29  -3.30    +70.3843
iter: 128 02:25:31  -878.749363c -4.91  -3.29    +70.3731
iter: 129 02:27:50  -878.750050c -5.24  -3.56    +70.3341
iter: 130 02:30:09  -878.752491c -5.44  -3.64    +70.3171
iter: 131 02:32:27  -878.755005c -5.41  -3.64    +70.3032
iter: 132 02:34:46  -878.756897c -5.48  -3.61    +70.2797
iter: 133 02:37:06  -878.757044c -5.96  -3.54    +70.2725
iter: 134 02:39:25  -878.760973c -5.51  -3.57    +70.2558
iter: 135 02:41:44  -878.765510c -5.54  -3.54    +70.2387
iter: 136 02:44:03  -878.765618c -5.56  -3.40    +70.2196
iter: 137 02:46:22  -878.796136c -4.98  -3.43    +70.1876
iter: 138 02:48:41  -878.767995c -5.12  -2.97    +70.1778
iter: 139 02:51:00  -878.772625c -4.98  -3.42    +70.1171
iter: 140 02:53:19  -878.769755c -5.29  -3.33    +70.1112
iter: 141 02:55:38  -878.774334c -5.33  -3.44    +70.0805
iter: 142 02:57:57  -878.774409c -6.12  -3.56    +70.0766
iter: 143 03:00:17  -878.789055c -5.17  -3.60    +70.0322
iter: 144 03:02:37  -878.778959c -5.82  -3.24    +70.0471
iter: 145 03:04:56  -878.785746c -5.32  -3.60    +69.9870
iter: 146 03:07:15  -878.776881c -5.26  -3.44    +70.0373
iter: 147 03:09:34  -878.773832c -4.94  -3.62    +70.0596
iter: 148 03:11:53  -878.773205c -5.28  -3.46    +70.0839
iter: 149 03:14:12  -878.779478c -5.16  -3.49    +70.0507
iter: 150 03:16:32  -878.776993c -5.34  -3.19    +70.0893
iter: 151 03:18:50  -878.782927c -5.24  -3.63    +70.0819
iter: 152 03:21:09  -878.771009c -5.04  -3.72    +70.1232
iter: 153 03:23:28  -878.763870c -4.57  -3.78    +70.1773
iter: 154 03:25:47  -878.758452c -4.43  -3.49    +70.2277
iter: 155 03:28:06  -878.759589c -5.51  -3.33    +70.2276
iter: 156 03:30:26  -878.760712c -5.65  -3.44    +70.2359
iter: 157 03:32:46  -878.764250c -5.41  -3.49    +70.2377
iter: 158 03:35:05  -878.759470c -5.44  -3.27    +70.2420
iter: 159 03:37:24  -878.761939c -5.57  -3.52    +70.2425
iter: 160 03:39:43  -878.765889c -5.28  -3.65    +70.2482
iter: 161 03:42:02  -878.763734c -5.58  -3.55    +70.2351
iter: 162 03:44:21  -878.768600c -5.36  -3.68    +70.2357
iter: 163 03:46:40  -878.771155c -5.41  -3.53    +70.2349
iter: 164 03:48:59  -878.771692c -5.23  -3.36    +70.2293
iter: 165 03:51:18  -878.774372c -5.63  -3.91    +70.2167
iter: 166 03:53:37  -878.778852c -5.62  -3.92    +70.2079
iter: 167 03:55:56  -878.765807c -4.93  -3.75    +70.2189
iter: 168 03:58:15  -878.756060c -4.54  -3.76    +70.2535
iter: 169 04:00:34  -878.759139c -5.44  -3.55    +70.2634
iter: 170 04:02:54  -878.759256c -5.79  -3.50    +70.2839
iter: 171 04:05:13  -878.760275c -6.23  -3.55    +70.2829
iter: 172 04:07:32  -878.767523c -5.37  -3.61    +70.2825
iter: 173 04:09:51  -878.763819c -4.94  -3.38    +70.2817
iter: 174 04:12:10  -878.766127c -5.17  -3.35    +70.3012
iter: 175 04:14:30  -878.822924c -4.50  -3.59    +70.2901
iter: 176 04:16:49  -878.776677c -4.75  -2.80    +70.2906
iter: 177 04:19:08  -878.777897c -5.09  -3.30    +70.2824
iter: 178 04:21:27  -878.776843c -5.71  -3.50    +70.2869
iter: 179 04:23:47  -878.782636c -5.20  -3.61    +70.2509
iter: 180 04:26:06  -878.778104c -5.37  -3.62    +70.3050
iter: 181 04:28:25  -878.824744c -4.40  -3.65    +70.2231
iter: 182 04:30:45  -878.781895c -4.65  -2.90    +70.3419
iter: 183 04:33:04  -878.782034c -5.28  -3.46    +70.3868
iter: 184 04:35:24  -878.807650c -5.00  -3.53    +70.3720
iter: 185 04:37:43  -878.792351c -5.50  -3.36    +70.3845
iter: 186 04:40:03  -878.777857c -4.68  -3.37    +70.3412
iter: 187 04:42:22  -878.780912c -5.03  -3.33    +70.3300
iter: 188 04:44:41  -878.783357c -5.07  -3.40    +70.3213
iter: 189 04:47:00  -878.785549c -5.26  -3.44    +70.3038
iter: 190 04:49:20  -878.786333c -5.53  -3.50    +70.2865
iter: 191 04:51:39  -878.792997c -5.17  -3.54    +70.2626
iter: 192 04:53:58  -878.791425c -5.14  -3.22    +70.2075
iter: 193 04:56:18  -878.798676c -5.08  -3.51    +70.1389
iter: 194 04:58:37  -878.798045c -5.64  -3.53    +70.1093
iter: 195 05:00:57  -878.807089c -5.27  -3.82    +70.0354
iter: 196 05:03:16  -878.773106c -4.02  -3.84    +70.4693
iter: 197 05:05:35  -878.772395c -4.56  -3.78    +70.6074
iter: 198 05:07:55  -878.772719c -5.46  -3.45    +70.5320
iter: 199 05:10:14  -878.774030c -5.89  -3.85    +70.5381
iter: 200 05:12:33  -878.773644c -6.07  -3.75    +70.5223
iter: 201 05:14:53  -878.774423c -5.93  -3.73    +70.5211
iter: 202 05:17:12  -878.775188c -6.12  -3.89    +70.5101
iter: 203 05:19:32  -878.784410c -5.44  -3.90    +70.5051
iter: 204 05:21:51  -878.776187c -5.57  -3.31    +70.4942
iter: 205 05:24:10  -878.777678c -5.69  -3.61    +70.4798
iter: 206 05:26:31  -878.777966c -6.00  -3.57    +70.4837
iter: 207 05:28:53  -878.779050c -5.88  -3.96    +70.4529
iter: 208 05:31:14  -878.779156c -6.54  -4.03c   +70.4620
iter: 209 05:33:36  -878.781769c -5.85  -4.16c   +70.4297
iter: 210 05:35:57  -878.774305c -4.87  -4.23c   +70.5771
iter: 211 05:38:18  -878.772710c -5.15  -4.02c   +70.6444
iter: 212 05:40:39  -878.772889c -5.36  -3.87    +70.6899
iter: 213 05:43:00  -878.773144c -6.19  -3.84    +70.6847
iter: 214 05:45:21  -878.773824c -6.19  -3.87    +70.6841
iter: 215 05:47:41  -878.774579c -6.47  -3.88    +70.6876
iter: 216 05:50:02  -878.781131c -5.64  -3.77    +70.6866
iter: 217 05:52:23  -878.774107c -5.49  -3.33    +70.6972
iter: 218 05:54:41  -878.774385c -5.75  -3.70    +70.7081
iter: 219 05:56:58  -878.775235c -6.15  -3.79    +70.7060
iter: 220 05:59:15  -878.775293c -6.18  -3.94    +70.7026
iter: 221 06:01:32  -878.776347c -6.07  -4.04c   +70.7205
iter: 222 06:03:49  -878.776075c -6.13  -3.98    +70.7204
iter: 223 06:06:06  -878.776707c -6.37  -3.85    +70.7215
iter: 224 06:08:24  -878.776984c -6.39  -4.02c   +70.7280
iter: 225 06:10:41  -878.776935c -6.60  -4.00    +70.7313
iter: 226 06:12:58  -878.777439c -6.22  -3.91    +70.7355
iter: 227 06:15:15  -878.779659c -6.08  -3.97    +70.7412
iter: 228 06:17:32  -878.778283c -5.81  -3.68    +70.7511
iter: 229 06:19:49  -878.781092c -5.76  -3.62    +70.7416
iter: 230 06:22:07  -878.778574c -5.97  -3.55    +70.7469
iter: 231 06:24:24  -878.779375c -6.13  -4.02c   +70.7529
iter: 232 06:26:41  -878.779701c -6.45  -4.10c   +70.7500
iter: 233 06:28:59  -878.780434c -6.36  -4.19c   +70.7456
iter: 234 06:31:16  -878.778456c -5.69  -4.13c   +70.7705
iter: 235 06:33:32  -878.778000c -5.86  -4.04c   +70.7836
iter: 236 06:35:49  -878.778760c -6.50  -4.09c   +70.7805
iter: 237 06:38:06  -878.778358c -6.99  -4.13c   +70.7883
iter: 238 06:40:23  -878.777951c -5.91  -4.13c   +70.8225
iter: 239 06:42:41  -878.778378c -6.40  -3.85    +70.8310
iter: 240 06:44:58  -878.778057c -6.61  -3.75    +70.8310
iter: 241 06:47:15  -878.778219c -6.65  -3.72    +70.8380
iter: 242 06:49:32  -878.778588c -6.79  -3.93    +70.8452
iter: 243 06:51:49  -878.780594c -5.46  -3.93    +70.8395
iter: 244 06:54:07  -878.779221c -5.56  -3.58    +70.8566
iter: 245 06:56:24  -878.779404c -5.87  -3.78    +70.8540
iter: 246 06:58:41  -878.780080c -6.18  -4.12c   +70.8640
iter: 247 07:00:59  -878.780760c -5.89  -4.15c   +70.8705
iter: 248 07:03:16  -878.781279c -6.39  -3.90    +70.8736
iter: 249 07:05:33  -878.780922c -6.35  -3.90    +70.8800
iter: 250 07:07:50  -878.781359c -6.36  -4.16c   +70.8893
iter: 251 07:10:07  -878.781437c -6.90  -4.09c   +70.8864
iter: 252 07:12:24  -878.782327c -6.15  -4.09c   +70.8910
iter: 253 07:14:41  -878.781889c -6.87  -4.16c   +70.8907
iter: 254 07:16:58  -878.783166c -6.22  -3.99    +70.8926
iter: 255 07:19:15  -878.783382c -6.64  -4.13c   +70.8929
iter: 256 07:21:32  -878.784006c -6.06  -3.97    +70.8931
iter: 257 07:23:50  -878.783858c -6.86  -4.14c   +70.8887
iter: 258 07:26:07  -878.784774c -6.27  -4.18c   +70.8856
iter: 259 07:28:24  -878.781950c -5.35  -4.12c   +70.9071
iter: 260 07:30:41  -878.783840c -5.80  -3.60    +70.8988
iter: 261 07:32:58  -878.783812c -6.83  -4.11c   +70.9025
iter: 262 07:35:16  -878.784727c -6.17  -4.06c   +70.9001
iter: 263 07:37:34  -878.784145c -6.83  -4.13c   +70.8996
iter: 264 07:39:51  -878.782817c -5.88  -4.16c   +70.9156
iter: 265 07:42:08  -878.782301c -5.68  -4.21c   +70.9431
iter: 266 07:44:25  -878.783058c -5.98  -3.55    +70.9348
iter: 267 07:46:43  -878.783347c -6.59  -4.34c   +70.9477
iter: 268 07:49:01  -878.783530c -6.80  -4.33c   +70.9289
iter: 269 07:51:19  -878.783944c -6.02  -4.31c   +70.9851
iter: 270 07:53:37  -878.784961c -6.22  -4.22c   +70.9808
iter: 271 07:55:55  -878.783756c -6.14  -4.14c   +71.0047
iter: 272 07:58:13  -878.782882c -5.64  -4.16c   +71.0554
iter: 273 08:00:33  -878.783457c -6.33  -4.04c   +71.0791
iter: 274 08:02:58  -878.784719c -5.92  -4.04c   +71.1171
iter: 275 08:05:20  -878.784400c -6.37  -4.01c   +71.1071
iter: 276 08:07:39  -878.785407c -6.08  -3.62    +71.1317
iter: 277 08:09:58  -878.785596c -6.05  -3.89    +71.1362
iter: 278 08:12:17  -878.787558c -5.87  -3.89    +71.1482
iter: 279 08:14:36  -878.786506c -5.84  -3.63    +71.1324
iter: 280 08:16:56  -878.787247c -5.98  -3.79    +71.1375
iter: 281 08:19:16  -878.788808c -5.48  -3.89    +71.1402
iter: 282 08:21:37  -878.787243c -6.00  -3.35    +71.1392
iter: 283 08:23:57  -878.787710c -6.11  -4.04c   +71.1518
iter: 284 08:26:17  -878.787617c -6.71  -3.95    +71.1478
iter: 285 08:28:37  -878.788164c -6.05  -4.02c   +71.1621
iter: 286 08:30:59  -878.788504c -6.53  -3.94    +71.1616
iter: 287 08:33:20  -878.788876c -6.13  -4.01c   +71.1616
iter: 288 08:35:41  -878.788684c -6.90  -3.83    +71.1553
iter: 289 08:38:02  -878.788962c -6.58  -4.08c   +71.1518
iter: 290 08:40:25  -878.789459c -5.95  -4.05c   +71.1626
iter: 291 08:42:47  -878.789593c -6.07  -4.00    +71.1580
iter: 292 08:45:10  -878.790412c -6.12  -3.95    +71.1630
iter: 293 08:47:34  -878.788214c -5.07  -3.93    +71.1656
iter: 294 08:49:58  -878.787322c -5.31  -3.77    +71.1844
iter: 295 08:52:21  -878.788578c -5.90  -3.61    +71.1847
iter: 296 08:54:45  -878.794784c -5.81  -3.78    +71.1971
iter: 297 08:57:07  -878.790044c -6.30  -3.39    +71.1999
iter: 298 08:59:31  -878.791175c -5.28  -3.74    +71.2083
iter: 299 09:01:54  -878.789896c -5.65  -3.39    +71.2065
iter: 300 09:04:16  -878.792262c -5.62  -3.80    +71.2028
iter: 301 09:06:40  -878.789813c -6.00  -3.51    +71.2008
iter: 302 09:09:02  -878.790023c -5.97  -3.94    +71.2141
iter: 303 09:11:25  -878.790881c -6.18  -3.90    +71.2046
iter: 304 09:13:48  -878.789345c -6.11  -3.70    +71.2177
iter: 305 09:16:12  -878.791313c -6.26  -3.93    +71.2218
iter: 306 09:18:35  -878.791767c -5.93  -3.83    +71.2411
iter: 307 09:20:58  -878.792174c -6.43  -4.07c   +71.2415
iter: 308 09:23:21  -878.793041c -6.09  -4.05c   +71.2396
iter: 309 09:25:44  -878.790600c -5.34  -4.06c   +71.2719
iter: 310 09:28:07  -878.787098c -4.92  -3.90    +71.3202
iter: 311 09:30:30  -878.791463c -5.37  -3.77    +71.2877
iter: 312 09:32:53  -878.790091c -6.41  -3.69    +71.2993
iter: 313 09:35:16  -878.790614c -6.10  -3.90    +71.2926
iter: 314 09:37:40  -878.789926c -6.00  -4.10c   +71.3267
iter: 315 09:40:03  -878.788245c -5.62  -3.98    +71.3708
iter: 316 09:42:26  -878.790896c -5.55  -3.73    +71.3027
iter: 317 09:44:49  -878.791197c -5.77  -3.91    +71.3061
iter: 318 09:47:12  -878.790344c -6.16  -4.21c   +71.3154
iter: 319 09:49:35  -878.788639c -5.47  -4.18c   +71.3442
iter: 320 09:51:58  -878.788973c -6.34  -3.99    +71.3593
iter: 321 09:54:21  -878.789718c -5.59  -4.03c   +71.4099
iter: 322 09:56:44  -878.790590c -5.60  -4.10c   +71.4482
iter: 323 09:59:07  -878.786536c -4.42  -3.90    +71.2240
iter: 324 10:01:30  -878.788184c -5.48  -3.60    +71.3176
iter: 325 10:03:53  -878.787119c -6.20  -3.86    +71.2789
iter: 326 10:06:16  -878.788337c -5.82  -3.81    +71.3053
iter: 327 10:08:39  -878.808817c -5.34  -3.77    +71.2996
iter: 328 10:11:03  -878.789873c -5.21  -3.09    +71.3119
iter: 329 10:13:26  -878.789280c -5.44  -3.55    +71.3518
iter: 330 10:15:49  -878.790184c -5.57  -3.72    +71.3715
iter: 331 10:18:12  -878.790513c -5.91  -3.91    +71.3839
iter: 332 10:20:35  -878.793524c -5.42  -4.06c   +71.4167
iter: 333 10:22:58  -878.791707c -5.96  -3.42    +71.4047
iter: 334 10:25:21  -878.790995c -6.07  -3.90    +71.4154
iter: 335 10:27:44  -878.791150c -5.79  -3.85    +71.4124
iter: 336 10:30:07  -878.791614c -5.88  -3.81    +71.4018
iter: 337 10:32:31  -878.792052c -6.09  -4.00    +71.4044
iter: 338 10:34:53  -878.795041c -5.75  -4.00c   +71.4111
iter: 339 10:37:16  -878.793002c -6.13  -3.60    +71.4137
iter: 340 10:39:39  -878.794159c -6.00  -3.90    +71.4183
iter: 341 10:42:02  -878.792736c -6.13  -3.76    +71.4118
iter: 342 10:44:25  -878.792602c -6.35  -3.90    +71.3987
iter: 343 10:46:48  -878.794674c -5.77  -3.99    +71.4120
iter: 344 10:49:11  -878.802100c -5.62  -3.98    +71.4128
iter: 345 10:51:34  -878.795036c -5.62  -3.33    +71.4039
iter: 346 10:53:57  -878.796215c -5.95  -3.73    +71.4054
iter: 347 10:56:20  -878.793126c -5.43  -3.78    +71.4275
iter: 348 10:58:43  -878.790693c -5.04  -3.79    +71.4674
iter: 349 11:01:06  -878.791083c -5.95  -3.79    +71.5012
iter: 350 11:03:29  -878.798278c -5.37  -3.80    +71.5735
iter: 351 11:05:52  -878.791525c -5.88  -3.39    +71.5244
iter: 352 11:08:15  -878.791898c -6.44  -3.95    +71.5401
iter: 353 11:10:38  -878.792038c -6.20  -3.89    +71.5439
iter: 354 11:13:01  -878.792393c -6.27  -3.82    +71.5655
iter: 355 11:15:24  -878.792820c -6.14  -4.09c   +71.5836
iter: 356 11:17:47  -878.796655c -5.87  -3.82    +71.5870
iter: 357 11:20:10  -878.793272c -6.07  -3.55    +71.5946
iter: 358 11:22:33  -878.793613c -6.32  -3.96    +71.5952
iter: 359 11:24:56  -878.793508c -7.32  -3.98    +71.5931
iter: 360 11:27:20  -878.794255c -6.25  -3.98    +71.6070
iter: 361 11:29:43  -878.793502c -6.32  -4.07c   +71.5876
iter: 362 11:32:06  -878.792786c -5.24  -4.07c   +71.5479
iter: 363 11:34:30  -878.793390c -5.62  -3.99    +71.5910
iter: 364 11:36:53  -878.793331c -6.74  -4.03c   +71.5902
iter: 365 11:39:15  -878.793678c -6.34  -4.27c   +71.6077
iter: 366 11:41:39  -878.793545c -7.00  -4.16c   +71.6121
iter: 367 11:44:02  -878.794098c -6.49  -3.93    +71.6267
iter: 368 11:46:25  -878.794347c -6.67  -4.11c   +71.6342
iter: 369 11:48:47  -878.794700c -6.66  -4.12c   +71.6435
iter: 370 11:51:11  -878.798174c -5.78  -4.15c   +71.6670
iter: 371 11:53:33  -878.795350c -6.46  -3.58    +71.6583
iter: 372 11:55:56  -878.795341c -6.35  -4.12c   +71.6617
iter: 373 11:58:19  -878.795802c -6.25  -4.06c   +71.6687
iter: 374 12:00:42  -878.796045c -6.74  -4.06c   +71.6721
iter: 375 12:03:05  -878.796351c -6.50  -4.18c   +71.6769
iter: 376 12:05:28  -878.796336c -5.96  -4.04c   +71.6630
iter: 377 12:07:51  -878.796388c -6.09  -3.94    +71.6784
iter: 378 12:10:14  -878.796189c -6.61  -4.02c   +71.6804
iter: 379 12:12:38  -878.796757c -6.35  -3.80    +71.6852
iter: 380 12:15:00  -878.796987c -6.60  -4.03c   +71.6884
iter: 381 12:17:23  -878.797124c -6.86  -4.01c   +71.6865
iter: 382 12:19:46  -878.802698c -5.76  -4.01c   +71.6900
iter: 383 12:22:09  -878.798753c -6.10  -3.44    +71.6901
iter: 384 12:24:32  -878.798548c -5.93  -3.89    +71.6878
iter: 385 12:26:55  -878.799808c -6.08  -4.00    +71.6888
iter: 386 12:29:18  -878.799636c -6.14  -3.91    +71.6855
iter: 387 12:31:41  -878.800096c -6.52  -4.07c   +71.6787
iter: 388 12:34:04  -878.801077c -6.14  -4.16c   +71.6719
iter: 389 12:36:27  -878.797580c -5.23  -3.96    +71.7114
iter: 390 12:38:50  -878.799125c -6.10  -3.72    +71.6986
iter: 391 12:41:13  -878.799368c -6.50  -4.14c   +71.6964
iter: 392 12:43:36  -878.799785c -6.30  -4.06c   +71.6875
iter: 393 12:45:59  -878.801238c -6.39  -3.97    +71.7043
iter: 394 12:48:22  -878.800819c -5.97  -3.78    +71.6929
iter: 395 12:50:45  -878.801470c -6.25  -4.09c   +71.6918
iter: 396 12:53:08  -878.801128c -6.41  -3.94    +71.6812
iter: 397 12:55:31  -878.801812c -6.07  -4.06c   +71.6587
iter: 398 12:57:54  -878.801547c -6.67  -3.72    +71.6813
iter: 399 13:00:17  -878.805713c -5.73  -3.91    +71.7179
iter: 400 13:02:40  -878.803661c -6.10  -3.57    +71.6806
iter: 401 13:05:03  -878.805548c -5.91  -4.09c   +71.6712
iter: 402 13:07:26  -878.803839c -6.07  -3.99    +71.6937
iter: 403 13:09:49  -878.801490c -5.73  -3.97    +71.6964
iter: 404 13:12:12  -878.802207c -6.19  -4.02c   +71.6774
iter: 405 13:14:35  -878.802497c -6.62  -3.74    +71.6770
iter: 406 13:16:58  -878.804037c -5.86  -4.03c   +71.6577
iter: 407 13:19:21  -878.803139c -6.08  -3.97    +71.6533
iter: 408 13:21:44  -878.803130c -5.55  -4.27c   +71.6181
iter: 409 13:24:04  -878.805146c -5.80  -4.05c   +71.6308
iter: 410 13:26:26  -878.801181c -4.85  -4.29c   +71.6237
iter: 411 13:28:47  -878.801404c -4.81  -3.74    +71.6608
iter: 412 13:31:08  -878.802393c -4.78  -3.49    +71.7339
iter: 413 13:33:30  -878.802275c -5.79  -3.34    +71.7563
iter: 414 13:35:50  -878.802454c -6.02  -3.35    +71.7872
iter: 415 13:38:11  -878.804064c -6.20  -3.37    +71.8048
iter: 416 13:40:32  -878.800394c -5.45  -3.32    +71.8125
iter: 417 13:42:52  -878.802658c -4.27  -3.15    +71.8311
iter: 418 13:45:13  -878.794894c -4.73  -3.21    +71.8475
iter: 419 13:47:33  -878.794449c -5.07  -3.41    +71.8697
iter: 420 13:49:53  -878.799731c -4.95  -3.68    +71.8890
iter: 421 13:52:13  -878.799042c -5.39  -3.52    +71.8615
iter: 422 13:54:33  -878.807098c -5.15  -3.83    +71.8846
iter: 423 13:56:54  -878.802887c -5.51  -3.21    +71.8790
iter: 424 13:59:14  -878.802993c -5.52  -3.58    +71.8681
iter: 425 14:01:34  -878.803490c -5.55  -3.67    +71.8603
iter: 426 14:03:54  -878.804163c -5.39  -3.67    +71.8536
iter: 427 14:06:14  -878.802733c -5.17  -3.44    +71.8274
iter: 428 14:08:31  -878.814503c -5.05  -3.66    +71.8170
iter: 429 14:10:49  -878.816989c -4.90  -3.07    +71.8374
iter: 430 14:13:06  -878.802563c -5.45  -3.14    +71.8386
iter: 431 14:15:24  -878.803553c -5.77  -4.01c   +71.8247
iter: 432 14:17:42  -878.804306c -6.07  -4.07c   +71.8178
iter: 433 14:20:01  -878.805176c -6.05  -3.97    +71.8140
iter: 434 14:22:20  -878.805484c -6.03  -4.07c   +71.7961
iter: 435 14:24:39  -878.808062c -6.04  -3.80    +71.7960
iter: 436 14:26:57  -878.807615c -5.95  -3.72    +71.7745
iter: 437 14:29:16  -878.809326c -5.97  -3.99    +71.7550
iter: 438 14:31:33  -878.804708c -5.38  -4.08c   +71.8130
iter: 439 14:33:50  -878.801034c -4.88  -3.94    +71.9190
iter: 440 14:36:08  -878.801209c -5.65  -3.74    +71.9602
iter: 441 14:38:27  -878.803170c -5.76  -3.68    +71.9873
iter: 442 14:40:45  -878.801379c -6.39  -3.61    +71.9612
iter: 443 14:43:04  -878.801997c -6.43  -3.80    +71.9528
iter: 444 14:45:23  -878.802205c -5.52  -3.79    +71.9717
iter: 445 14:47:42  -878.803351c -5.55  -3.82    +71.9588
iter: 446 14:50:01  -878.803964c -5.72  -3.81    +71.9702
iter: 447 14:52:21  -878.804780c -6.07  -4.02c   +71.9552
iter: 448 14:54:38  -878.805139c -6.04  -4.11c   +71.9436
iter: 449 14:56:56  -878.805994c -6.03  -4.00    +71.9237
iter: 450 14:59:14  -878.807413c -6.32  -4.03c   +71.9260
iter: 451 15:01:32  -878.807054c -5.81  -3.75    +71.9045
iter: 452 15:03:51  -878.807772c -6.27  -3.76    +71.8942
iter: 453 15:06:09  -878.808873c -6.15  -4.00    +71.8840
iter: 454 15:08:28  -878.807982c -6.41  -4.08c   +71.8736
iter: 455 15:10:46  -878.806802c -5.44  -4.09c   +71.8444
iter: 456 15:13:04  -878.810324c -5.48  -3.95    +71.8420
iter: 457 15:15:21  -878.809157c -6.13  -3.52    +71.8485
iter: 458 15:17:39  -878.808209c -6.11  -3.78    +71.8470
iter: 459 15:19:57  -878.810078c -5.93  -3.78    +71.8375
iter: 460 15:22:15  -878.807926c -5.55  -3.82    +71.8654
iter: 461 15:24:33  -878.809103c -5.69  -3.68    +71.8763
iter: 462 15:26:50  -878.833609c -4.95  -3.65    +71.8786
iter: 463 15:29:07  -878.817607c -4.96  -2.93    +71.8480
iter: 464 15:31:24  -878.814780c -5.48  -3.35    +71.8471
iter: 465 15:33:42  -878.818156c -5.09  -3.55    +71.8387
iter: 466 15:36:00  -878.816228c -5.37  -3.45    +71.8321
iter: 467 15:38:18  -878.820663c -5.49  -3.85    +71.7796
iter: 468 15:40:36  -878.827185c -5.32  -3.75    +71.7944
iter: 469 15:42:54  -878.825978c -5.21  -3.15    +71.7448
iter: 470 15:45:13  -878.832551c -5.33  -3.73    +71.6870
iter: 471 15:47:32  -878.808276c -4.15  -3.64    +72.0150
iter: 472 15:49:50  -878.805550c -4.83  -3.64    +72.1006
iter: 473 15:52:08  -878.806084c -5.72  -3.74    +72.1020
iter: 474 15:54:27  -878.807585c -5.62  -3.76    +72.1062
iter: 475 15:56:44  -878.807008c -5.88  -3.36    +72.1064
iter: 476 15:59:02  -878.808045c -6.09  -3.73    +72.1001
iter: 477 16:01:20  -878.808734c -6.24  -3.65    +72.1007
iter: 478 16:03:38  -878.807232c -5.80  -3.62    +72.1038
iter: 479 16:05:57  -878.807310c -6.29  -3.94    +72.1017
iter: 480 16:08:15  -878.807206c -5.98  -3.94    +72.1098
iter: 481 16:10:33  -878.807268c -6.44  -3.79    +72.1076
iter: 482 16:12:51  -878.808192c -5.81  -4.24c   +72.1124
iter: 483 16:15:09  -878.806573c -5.10  -4.05c   +72.1153
iter: 484 16:17:27  -878.806676c -5.21  -4.02c   +72.1281
iter: 485 16:19:45  -878.808149c -5.08  -3.77    +72.1482
iter: 486 16:22:03  -878.807075c -5.30  -3.54    +72.1204
iter: 487 16:24:21  -878.808706c -5.28  -3.76    +72.1633
iter: 488 16:26:38  -878.809465c -5.94  -3.59    +72.1686
iter: 489 16:28:55  -878.809573c -5.90  -3.51    +72.1870
iter: 490 16:31:13  -878.811947c -5.78  -3.58    +72.2243
iter: 491 16:33:30  -878.840721c -4.98  -3.50    +72.1973
iter: 492 16:35:48  -878.815132c -4.82  -2.95    +72.2424
iter: 493 16:38:06  -878.814771c -5.23  -3.36    +72.2900
iter: 494 16:40:24  -878.812974c -5.37  -3.46    +72.2828
iter: 495 16:42:42  -878.826648c -4.61  -3.58    +72.2978
iter: 496 16:45:00  -878.811222c -5.05  -2.99    +72.3047
iter: 497 16:47:18  -878.966306  -4.24  -3.50    +72.3595
iter: 498 16:49:36  -878.808136  -4.58  -2.61    +72.3512
iter: 499 16:51:54  -878.811743  -5.18  -3.62    +72.3851
iter: 500 16:54:12  -878.809438c -5.74  -3.61    +72.3754
iter: 501 16:56:31  -878.810757c -5.40  -3.85    +72.4073
iter: 502 16:58:48  -878.811823c -5.66  -3.84    +72.4015
iter: 503 17:01:05  -878.815946c -5.75  -3.90    +72.4207
iter: 504 17:03:23  -878.812216c -6.05  -3.52    +72.4286
iter: 505 17:05:41  -878.812864c -6.07  -3.85    +72.4470
iter: 506 17:07:59  -878.813352c -6.40  -3.87    +72.4667
iter: 507 17:10:17  -878.813856c -6.23  -3.96    +72.4912
iter: 508 17:12:35  -878.814000c -6.50  -3.98    +72.4944
iter: 509 17:14:54  -878.814466c -6.17  -4.00c   +72.5226
iter: 510 17:17:12  -878.817615c -6.03  -3.96    +72.5338
iter: 511 17:19:31  -878.815132c -6.18  -3.60    +72.5533
iter: 512 17:21:49  -878.816079c -6.18  -4.14c   +72.5897
iter: 513 17:24:07  -878.816226c -6.68  -4.30c   +72.5872
iter: 514 17:26:25  -878.816948c -6.26  -4.19c   +72.6161
iter: 515 17:28:43  -878.817205c -6.80  -4.33c   +72.6189
iter: 516 17:31:02  -878.817506c -6.70  -4.27c   +72.6346
iter: 517 17:33:19  -878.818025c -6.04  -3.99    +72.6504
iter: 518 17:35:37  -878.818146c -6.58  -4.12c   +72.6752
iter: 519 17:37:55  -878.818960c -6.33  -4.13c   +72.6949
iter: 520 17:40:13  -878.816340c -5.53  -4.12c   +72.6447
iter: 521 17:42:31  -878.813392c -5.00  -4.07c   +72.5711
iter: 522 17:44:48  -878.817921c -5.81  -3.77    +72.5909
iter: 523 17:47:06  -878.814510c -6.24  -3.53    +72.5720
iter: 524 17:49:24  -878.814786c -6.56  -3.98    +72.5817
iter: 525 17:51:42  -878.815918c -6.08  -4.05c   +72.5958
iter: 526 17:54:01  -878.814589c -6.16  -3.91    +72.5984
iter: 527 17:56:19  -878.815507c -6.22  -3.87    +72.6065
iter: 528 17:58:36  -878.815827c -6.67  -4.20c   +72.6118
iter: 529 18:00:53  -878.816061c -6.27  -4.13c   +72.6218
iter: 530 18:03:10  -878.817074c -6.28  -4.19c   +72.6341
iter: 531 18:05:28  -878.817215c -6.73  -4.37c   +72.6400
iter: 532 18:07:46  -878.818212c -6.13  -4.49c   +72.6733
iter: 533 18:10:04  -878.814983c -5.29  -4.38c   +72.5580
iter: 534 18:12:22  -878.813198c -5.20  -4.31c   +72.4588
iter: 535 18:14:40  -878.813909c -6.43  -4.02c   +72.4789
iter: 536 18:16:57  -878.814445c -6.50  -4.06c   +72.4914
iter: 537 18:19:14  -878.813524c -6.50  -4.12c   +72.4769
iter: 538 18:21:31  -878.814870c -6.53  -4.07c   +72.4881
iter: 539 18:23:48  -878.813777c -5.92  -3.83    +72.4891
iter: 540 18:26:05  -878.814449c -6.01  -3.58    +72.4943
iter: 541 18:28:24  -878.814513c -6.42  -4.15c   +72.5105
iter: 542 18:30:42  -878.815306c -6.52  -4.37c   +72.5156
iter: 543 18:33:00  -878.815196c -6.67  -4.24c   +72.5203
iter: 544 18:35:18  -878.816117c -6.37  -4.37c   +72.5340
iter: 545 18:37:37  -878.815918c -6.81  -4.24c   +72.5387
iter: 546 18:39:54  -878.816707c -6.55  -4.27c   +72.5528
iter: 547 18:42:12  -878.816709c -6.98  -4.33c   +72.5570
iter: 548 18:44:29  -878.817336c -6.47  -4.48c   +72.5767
iter: 549 18:46:47  -878.817190c -7.35  -4.41c   +72.5693
iter: 550 18:49:05  -878.817228c -6.69  -4.35c   +72.5795
iter: 551 18:51:23  -878.817741c -6.88  -4.29c   +72.5850
iter: 552 18:53:40  -878.817878c -6.52  -4.41c   +72.5975
iter: 553 18:55:58  -878.818198c -6.87  -4.17c   +72.6027
iter: 554 18:58:16  -878.818811c -6.50  -4.56c   +72.6201
iter: 555 19:00:34  -878.818991c -7.15  -4.42c   +72.6169
iter: 556 19:02:52  -878.819255c -6.45  -4.34c   +72.6385
iter: 557 19:05:11  -878.819391c -7.29  -4.22c   +72.6409
iter: 558 19:07:28  -878.819772c -6.42  -4.32c   +72.6584
iter: 559 19:09:45  -878.819680c -6.84  -3.89    +72.6569
iter: 560 19:12:03  -878.820275c -6.37  -4.28c   +72.6798
iter: 561 19:14:21  -878.820776c -6.59  -4.14c   +72.6860
iter: 562 19:16:39  -878.821019c -6.51  -4.24c   +72.7024
iter: 563 19:18:57  -878.822909c -6.28  -4.19c   +72.7137
iter: 564 19:21:15  -878.821690c -6.56  -3.81    +72.7165
iter: 565 19:23:34  -878.822249c -6.38  -4.02c   +72.7282
iter: 566 19:25:51  -878.822359c -6.86  -4.10c   +72.7348
iter: 567 19:28:09  -878.823160c -6.36  -4.06c   +72.7524
iter: 568 19:30:26  -878.822105c -5.87  -4.03c   +72.7007
iter: 569 19:32:44  -878.824638c -5.82  -3.96    +72.7688
iter: 570 19:35:02  -878.822992c -6.43  -3.82    +72.7561
iter: 571 19:37:21  -878.823758c -6.28  -3.95    +72.7835
iter: 572 19:39:38  -878.823973c -6.16  -4.13c   +72.7975
iter: 573 19:41:57  -878.825500c -6.19  -3.92    +72.8001
iter: 574 19:44:15  -878.825795c -6.29  -3.85    +72.8013
iter: 575 19:46:33  -878.825448c -6.26  -3.75    +72.8296
iter: 576 19:48:51  -878.825875c -6.23  -4.04c   +72.8580
iter: 577 19:51:09  -878.825636c -6.53  -3.98    +72.8617
iter: 578 19:53:28  -878.826190c -6.15  -3.97    +72.8949
iter: 579 19:55:46  -878.826555c -6.63  -3.77    +72.9043
iter: 580 19:58:05  -878.828913c -5.98  -4.00    +72.9317
iter: 581 20:00:24  -878.829789c -6.27  -3.73    +72.9319
iter: 582 20:02:42  -878.829208c -6.09  -3.58    +72.9551
iter: 583 20:05:01  -878.829828c -6.05  -3.82    +72.9858
iter: 584 20:07:20  -878.829746c -7.08  -3.81    +72.9693
iter: 585 20:09:38  -878.839090c -5.20  -3.77    +73.0102
iter: 586 20:11:56  -878.829416c -5.69  -3.12    +73.0135
iter: 587 20:14:16  -878.830581c -5.97  -3.93    +73.0457
iter: 588 20:16:34  -878.830431c -6.64  -3.86    +73.0501
iter: 589 20:18:52  -878.831910c -6.02  -3.95    +73.0776
iter: 590 20:21:11  -878.832765c -6.37  -3.90    +73.0697
iter: 591 20:23:28  -878.832619c -5.93  -3.70    +73.1113
iter: 592 20:25:47  -878.833154c -6.36  -3.82    +73.1283
iter: 593 20:28:06  -878.833940c -6.16  -3.84    +73.1511
iter: 594 20:30:24  -878.833878c -5.96  -3.80    +73.1723
iter: 595 20:32:42  -878.835330c -5.81  -3.61    +73.1949
iter: 596 20:35:00  -878.844397c -5.53  -3.86    +73.2230
iter: 597 20:37:18  -878.836885c -5.92  -3.28    +73.2315
iter: 598 20:39:36  -878.839182c -5.77  -3.84    +73.2822
iter: 599 20:41:54  -878.836238c -5.76  -3.74    +73.1843
iter: 600 20:44:13  -878.835484c -5.82  -3.80    +73.1779
iter: 601 20:46:31  -878.837511c -5.80  -3.64    +73.2465
iter: 602 20:48:49  -878.843605c -5.70  -3.85    +73.2852
iter: 603 20:51:08  -878.839122c -6.02  -3.39    +73.3008
iter: 604 20:53:26  -878.841067c -5.83  -3.84    +73.3680
iter: 605 20:55:44  -878.841501c -6.06  -3.84    +73.3629
iter: 606 20:58:02  -878.843961c -5.43  -3.74    +73.4240
iter: 607 21:00:19  -878.842774c -5.71  -3.47    +73.4106
iter: 608 21:02:37  -878.857324c -5.22  -3.58    +73.4231
iter: 609 21:04:55  -878.844381c -5.63  -3.17    +73.4269
iter: 610 21:07:13  -878.847304c -5.61  -3.77    +73.4781
iter: 611 21:09:31  -878.847773c -6.02  -3.69    +73.4970
iter: 612 21:11:49  -878.849051c -5.77  -3.73    +73.5614
iter: 613 21:14:07  -878.851163c -5.65  -3.79    +73.6048
iter: 614 21:16:25  -878.849939c -6.37  -3.63    +73.5872
iter: 615 21:18:44  -878.856041c -5.47  -3.65    +73.6137
iter: 616 21:21:02  -878.854482c -5.44  -3.22    +73.6260
iter: 617 21:23:20  -878.853757c -5.45  -3.55    +73.6652
