data.fcc.fecrnicoal0.10 (written by ASE) 

108 	 atoms 
5  atom types
0.0      12.149999999999999  xlo xhi
0.0      12.149999999999999  ylo yhi
0.0      12.149999999999999  zlo zhi


Atoms 

     1   4                       0                       0                       0
     2   2                       0      2.0249999999999999      2.0249999999999999
     3   5      2.0249999999999999                       0      2.0249999999999999
     4   3      2.0249999999999999      2.0249999999999999                       0
     5   2                       0                       0      4.0499999999999998
     6   2                       0      2.0249999999999999      6.0749999999999993
     7   4      2.0249999999999999                       0      6.0749999999999993
     8   2      2.0249999999999999      2.0249999999999999      4.0499999999999998
     9   5                       0                       0      8.0999999999999996
    10   4                       0      2.0249999999999999                  10.125
    11   4      2.0249999999999999                       0                  10.125
    12   1      2.0249999999999999      2.0249999999999999      8.0999999999999996
    13   4                       0      4.0499999999999998                       0
    14   1                       0      6.0749999999999993      2.0249999999999999
    15   5      2.0249999999999999      4.0499999999999998      2.0249999999999999
    16   5      2.0249999999999999      6.0749999999999993                       0
    17   3                       0      4.0499999999999998      4.0499999999999998
    18   1                       0      6.0749999999999993      6.0749999999999993
    19   1      2.0249999999999999      4.0499999999999998      6.0749999999999993
    20   2      2.0249999999999999      6.0749999999999993      4.0499999999999998
    21   3                       0      4.0499999999999998      8.0999999999999996
    22   4                       0      6.0749999999999993                  10.125
    23   2      2.0249999999999999      4.0499999999999998                  10.125
    24   1      2.0249999999999999      6.0749999999999993      8.0999999999999996
    25   1                       0      8.0999999999999996                       0
    26   5                       0                  10.125      2.0249999999999999
    27   2      2.0249999999999999      8.0999999999999996      2.0249999999999999
    28   3      2.0249999999999999                  10.125                       0
    29   2                       0      8.0999999999999996      4.0499999999999998
    30   2                       0                  10.125      6.0749999999999993
    31   3      2.0249999999999999      8.0999999999999996      6.0749999999999993
    32   2      2.0249999999999999                  10.125      4.0499999999999998
    33   4                       0      8.0999999999999996      8.0999999999999996
    34   2                       0                  10.125                  10.125
    35   2      2.0249999999999999      8.0999999999999996                  10.125
    36   4      2.0249999999999999                  10.125      8.0999999999999996
    37   3      4.0499999999999998                       0                       0
    38   1      4.0499999999999998      2.0249999999999999      2.0249999999999999
    39   1      6.0749999999999993                       0      2.0249999999999999
    40   1      6.0749999999999993      2.0249999999999999                       0
    41   4      4.0499999999999998                       0      4.0499999999999998
    42   2      4.0499999999999998      2.0249999999999999      6.0749999999999993
    43   4      6.0749999999999993                       0      6.0749999999999993
    44   2      6.0749999999999993      2.0249999999999999      4.0499999999999998
    45   1      4.0499999999999998                       0      8.0999999999999996
    46   1      4.0499999999999998      2.0249999999999999                  10.125
    47   1      6.0749999999999993                       0                  10.125
    48   3      6.0749999999999993      2.0249999999999999      8.0999999999999996
    49   3      4.0499999999999998      4.0499999999999998                       0
    50   3      4.0499999999999998      6.0749999999999993      2.0249999999999999
    51   5      6.0749999999999993      4.0499999999999998      2.0249999999999999
    52   4      6.0749999999999993      6.0749999999999993                       0
    53   2      4.0499999999999998      4.0499999999999998      4.0499999999999998
    54   2      4.0499999999999998      6.0749999999999993      6.0749999999999993
    55   4      6.0749999999999993      4.0499999999999998      6.0749999999999993
    56   3      6.0749999999999993      6.0749999999999993      4.0499999999999998
    57   4      4.0499999999999998      4.0499999999999998      8.0999999999999996
    58   1      4.0499999999999998      6.0749999999999993                  10.125
    59   5      6.0749999999999993      4.0499999999999998                  10.125
    60   4      6.0749999999999993      6.0749999999999993      8.0999999999999996
    61   1      4.0499999999999998      8.0999999999999996                       0
    62   2      4.0499999999999998                  10.125      2.0249999999999999
    63   4      6.0749999999999993      8.0999999999999996      2.0249999999999999
    64   1      6.0749999999999993                  10.125                       0
    65   4      4.0499999999999998      8.0999999999999996      4.0499999999999998
    66   4      4.0499999999999998                  10.125      6.0749999999999993
    67   4      6.0749999999999993      8.0999999999999996      6.0749999999999993
    68   3      6.0749999999999993                  10.125      4.0499999999999998
    69   4      4.0499999999999998      8.0999999999999996      8.0999999999999996
    70   2      4.0499999999999998                  10.125                  10.125
    71   1      6.0749999999999993      8.0999999999999996                  10.125
    72   4      6.0749999999999993                  10.125      8.0999999999999996
    73   3      8.0999999999999996                       0                       0
    74   1      8.0999999999999996      2.0249999999999999      2.0249999999999999
    75   1                  10.125                       0      2.0249999999999999
    76   5                  10.125      2.0249999999999999                       0
    77   3      8.0999999999999996                       0      4.0499999999999998
    78   4      8.0999999999999996      2.0249999999999999      6.0749999999999993
    79   5                  10.125                       0      6.0749999999999993
    80   2                  10.125      2.0249999999999999      4.0499999999999998
    81   2      8.0999999999999996                       0      8.0999999999999996
    82   3      8.0999999999999996      2.0249999999999999                  10.125
    83   5                  10.125                       0                  10.125
    84   2                  10.125      2.0249999999999999      8.0999999999999996
    85   4      8.0999999999999996      4.0499999999999998                       0
    86   3      8.0999999999999996      6.0749999999999993      2.0249999999999999
    87   3                  10.125      4.0499999999999998      2.0249999999999999
    88   3                  10.125      6.0749999999999993                       0
    89   3      8.0999999999999996      4.0499999999999998      4.0499999999999998
    90   4      8.0999999999999996      6.0749999999999993      6.0749999999999993
    91   3                  10.125      4.0499999999999998      6.0749999999999993
    92   1                  10.125      6.0749999999999993      4.0499999999999998
    93   1      8.0999999999999996      4.0499999999999998      8.0999999999999996
    94   2      8.0999999999999996      6.0749999999999993                  10.125
    95   3                  10.125      4.0499999999999998                  10.125
    96   3                  10.125      6.0749999999999993      8.0999999999999996
    97   1      8.0999999999999996      8.0999999999999996                       0
    98   3      8.0999999999999996                  10.125      2.0249999999999999
    99   1                  10.125      8.0999999999999996      2.0249999999999999
   100   3                  10.125                  10.125                       0
   101   3      8.0999999999999996      8.0999999999999996      4.0499999999999998
   102   3      8.0999999999999996                  10.125      6.0749999999999993
   103   1                  10.125      8.0999999999999996      6.0749999999999993
   104   2                  10.125                  10.125      4.0499999999999998
   105   4      8.0999999999999996      8.0999999999999996      8.0999999999999996
   106   2      8.0999999999999996                  10.125                  10.125
   107   1                  10.125      8.0999999999999996                  10.125
   108   1                  10.125                  10.125      8.0999999999999996
