data.fcc.fecrnicoal0.15 (written by ASE) 

108 	 atoms 
5  atom types
0.0      12.149999999999999  xlo xhi
0.0      12.149999999999999  ylo yhi
0.0      12.149999999999999  zlo zhi


Atoms 

     1   1                       0                       0                       0
     2   3                       0      2.0249999999999999      2.0249999999999999
     3   2      2.0249999999999999                       0      2.0249999999999999
     4   3      2.0249999999999999      2.0249999999999999                       0
     5   2                       0                       0      4.0499999999999998
     6   4                       0      2.0249999999999999      6.0749999999999993
     7   4      2.0249999999999999                       0      6.0749999999999993
     8   3      2.0249999999999999      2.0249999999999999      4.0499999999999998
     9   1                       0                       0      8.0999999999999996
    10   4                       0      2.0249999999999999                  10.125
    11   4      2.0249999999999999                       0                  10.125
    12   4      2.0249999999999999      2.0249999999999999      8.0999999999999996
    13   2                       0      4.0499999999999998                       0
    14   3                       0      6.0749999999999993      2.0249999999999999
    15   1      2.0249999999999999      4.0499999999999998      2.0249999999999999
    16   3      2.0249999999999999      6.0749999999999993                       0
    17   2                       0      4.0499999999999998      4.0499999999999998
    18   3                       0      6.0749999999999993      6.0749999999999993
    19   4      2.0249999999999999      4.0499999999999998      6.0749999999999993
    20   5      2.0249999999999999      6.0749999999999993      4.0499999999999998
    21   2                       0      4.0499999999999998      8.0999999999999996
    22   1                       0      6.0749999999999993                  10.125
    23   4      2.0249999999999999      4.0499999999999998                  10.125
    24   3      2.0249999999999999      6.0749999999999993      8.0999999999999996
    25   2                       0      8.0999999999999996                       0
    26   3                       0                  10.125      2.0249999999999999
    27   3      2.0249999999999999      8.0999999999999996      2.0249999999999999
    28   5      2.0249999999999999                  10.125                       0
    29   1                       0      8.0999999999999996      4.0499999999999998
    30   4                       0                  10.125      6.0749999999999993
    31   5      2.0249999999999999      8.0999999999999996      6.0749999999999993
    32   2      2.0249999999999999                  10.125      4.0499999999999998
    33   2                       0      8.0999999999999996      8.0999999999999996
    34   1                       0                  10.125                  10.125
    35   4      2.0249999999999999      8.0999999999999996                  10.125
    36   2      2.0249999999999999                  10.125      8.0999999999999996
    37   5      4.0499999999999998                       0                       0
    38   1      4.0499999999999998      2.0249999999999999      2.0249999999999999
    39   2      6.0749999999999993                       0      2.0249999999999999
    40   5      6.0749999999999993      2.0249999999999999                       0
    41   1      4.0499999999999998                       0      4.0499999999999998
    42   5      4.0499999999999998      2.0249999999999999      6.0749999999999993
    43   1      6.0749999999999993                       0      6.0749999999999993
    44   2      6.0749999999999993      2.0249999999999999      4.0499999999999998
    45   1      4.0499999999999998                       0      8.0999999999999996
    46   1      4.0499999999999998      2.0249999999999999                  10.125
    47   3      6.0749999999999993                       0                  10.125
    48   1      6.0749999999999993      2.0249999999999999      8.0999999999999996
    49   4      4.0499999999999998      4.0499999999999998                       0
    50   3      4.0499999999999998      6.0749999999999993      2.0249999999999999
    51   4      6.0749999999999993      4.0499999999999998      2.0249999999999999
    52   1      6.0749999999999993      6.0749999999999993                       0
    53   5      4.0499999999999998      4.0499999999999998      4.0499999999999998
    54   1      4.0499999999999998      6.0749999999999993      6.0749999999999993
    55   1      6.0749999999999993      4.0499999999999998      6.0749999999999993
    56   1      6.0749999999999993      6.0749999999999993      4.0499999999999998
    57   2      4.0499999999999998      4.0499999999999998      8.0999999999999996
    58   1      4.0499999999999998      6.0749999999999993                  10.125
    59   2      6.0749999999999993      4.0499999999999998                  10.125
    60   4      6.0749999999999993      6.0749999999999993      8.0999999999999996
    61   3      4.0499999999999998      8.0999999999999996                       0
    62   3      4.0499999999999998                  10.125      2.0249999999999999
    63   1      6.0749999999999993      8.0999999999999996      2.0249999999999999
    64   1      6.0749999999999993                  10.125                       0
    65   5      4.0499999999999998      8.0999999999999996      4.0499999999999998
    66   3      4.0499999999999998                  10.125      6.0749999999999993
    67   5      6.0749999999999993      8.0999999999999996      6.0749999999999993
    68   2      6.0749999999999993                  10.125      4.0499999999999998
    69   3      4.0499999999999998      8.0999999999999996      8.0999999999999996
    70   5      4.0499999999999998                  10.125                  10.125
    71   3      6.0749999999999993      8.0999999999999996                  10.125
    72   4      6.0749999999999993                  10.125      8.0999999999999996
    73   5      8.0999999999999996                       0                       0
    74   4      8.0999999999999996      2.0249999999999999      2.0249999999999999
    75   2                  10.125                       0      2.0249999999999999
    76   4                  10.125      2.0249999999999999                       0
    77   3      8.0999999999999996                       0      4.0499999999999998
    78   4      8.0999999999999996      2.0249999999999999      6.0749999999999993
    79   4                  10.125                       0      6.0749999999999993
    80   2                  10.125      2.0249999999999999      4.0499999999999998
    81   4      8.0999999999999996                       0      8.0999999999999996
    82   5      8.0999999999999996      2.0249999999999999                  10.125
    83   2                  10.125                       0                  10.125
    84   2                  10.125      2.0249999999999999      8.0999999999999996
    85   3      8.0999999999999996      4.0499999999999998                       0
    86   1      8.0999999999999996      6.0749999999999993      2.0249999999999999
    87   4                  10.125      4.0499999999999998      2.0249999999999999
    88   5                  10.125      6.0749999999999993                       0
    89   2      8.0999999999999996      4.0499999999999998      4.0499999999999998
    90   2      8.0999999999999996      6.0749999999999993      6.0749999999999993
    91   4                  10.125      4.0499999999999998      6.0749999999999993
    92   4                  10.125      6.0749999999999993      4.0499999999999998
    93   5      8.0999999999999996      4.0499999999999998      8.0999999999999996
    94   3      8.0999999999999996      6.0749999999999993                  10.125
    95   1                  10.125      4.0499999999999998                  10.125
    96   3                  10.125      6.0749999999999993      8.0999999999999996
    97   2      8.0999999999999996      8.0999999999999996                       0
    98   3      8.0999999999999996                  10.125      2.0249999999999999
    99   4                  10.125      8.0999999999999996      2.0249999999999999
   100   2                  10.125                  10.125                       0
   101   5      8.0999999999999996      8.0999999999999996      4.0499999999999998
   102   1      8.0999999999999996                  10.125      6.0749999999999993
   103   3                  10.125      8.0999999999999996      6.0749999999999993
   104   3                  10.125                  10.125      4.0499999999999998
   105   5      8.0999999999999996      8.0999999999999996      8.0999999999999996
   106   2      8.0999999999999996                  10.125                  10.125
   107   4                  10.125      8.0999999999999996                  10.125
   108   1                  10.125                  10.125      8.0999999999999996
