data.fcc.fecrnicoal0.00 (written by ASE) 

108 	 atoms 
5  atom types
0.0      12.149999999999999  xlo xhi
0.0      12.149999999999999  ylo yhi
0.0      12.149999999999999  zlo zhi


Atoms 

     1   4                       0                       0                       0
     2   4                       0      2.0249999999999999      2.0249999999999999
     3   1      2.0249999999999999                       0      2.0249999999999999
     4   1      2.0249999999999999      2.0249999999999999                       0
     5   1                       0                       0      4.0499999999999998
     6   2                       0      2.0249999999999999      6.0749999999999993
     7   3      2.0249999999999999                       0      6.0749999999999993
     8   1      2.0249999999999999      2.0249999999999999      4.0499999999999998
     9   4                       0                       0      8.0999999999999996
    10   4                       0      2.0249999999999999                  10.125
    11   1      2.0249999999999999                       0                  10.125
    12   3      2.0249999999999999      2.0249999999999999      8.0999999999999996
    13   3                       0      4.0499999999999998                       0
    14   1                       0      6.0749999999999993      2.0249999999999999
    15   3      2.0249999999999999      4.0499999999999998      2.0249999999999999
    16   1      2.0249999999999999      6.0749999999999993                       0
    17   3                       0      4.0499999999999998      4.0499999999999998
    18   2                       0      6.0749999999999993      6.0749999999999993
    19   1      2.0249999999999999      4.0499999999999998      6.0749999999999993
    20   4      2.0249999999999999      6.0749999999999993      4.0499999999999998
    21   3                       0      4.0499999999999998      8.0999999999999996
    22   4                       0      6.0749999999999993                  10.125
    23   3      2.0249999999999999      4.0499999999999998                  10.125
    24   2      2.0249999999999999      6.0749999999999993      8.0999999999999996
    25   1                       0      8.0999999999999996                       0
    26   4                       0                  10.125      2.0249999999999999
    27   3      2.0249999999999999      8.0999999999999996      2.0249999999999999
    28   3      2.0249999999999999                  10.125                       0
    29   2                       0      8.0999999999999996      4.0499999999999998
    30   1                       0                  10.125      6.0749999999999993
    31   1      2.0249999999999999      8.0999999999999996      6.0749999999999993
    32   2      2.0249999999999999                  10.125      4.0499999999999998
    33   2                       0      8.0999999999999996      8.0999999999999996
    34   4                       0                  10.125                  10.125
    35   1      2.0249999999999999      8.0999999999999996                  10.125
    36   3      2.0249999999999999                  10.125      8.0999999999999996
    37   3      4.0499999999999998                       0                       0
    38   3      4.0499999999999998      2.0249999999999999      2.0249999999999999
    39   4      6.0749999999999993                       0      2.0249999999999999
    40   3      6.0749999999999993      2.0249999999999999                       0
    41   1      4.0499999999999998                       0      4.0499999999999998
    42   4      4.0499999999999998      2.0249999999999999      6.0749999999999993
    43   3      6.0749999999999993                       0      6.0749999999999993
    44   1      6.0749999999999993      2.0249999999999999      4.0499999999999998
    45   3      4.0499999999999998                       0      8.0999999999999996
    46   4      4.0499999999999998      2.0249999999999999                  10.125
    47   1      6.0749999999999993                       0                  10.125
    48   3      6.0749999999999993      2.0249999999999999      8.0999999999999996
    49   2      4.0499999999999998      4.0499999999999998                       0
    50   4      4.0499999999999998      6.0749999999999993      2.0249999999999999
    51   2      6.0749999999999993      4.0499999999999998      2.0249999999999999
    52   3      6.0749999999999993      6.0749999999999993                       0
    53   4      4.0499999999999998      4.0499999999999998      4.0499999999999998
    54   1      4.0499999999999998      6.0749999999999993      6.0749999999999993
    55   1      6.0749999999999993      4.0499999999999998      6.0749999999999993
    56   2      6.0749999999999993      6.0749999999999993      4.0499999999999998
    57   3      4.0499999999999998      4.0499999999999998      8.0999999999999996
    58   1      4.0499999999999998      6.0749999999999993                  10.125
    59   2      6.0749999999999993      4.0499999999999998                  10.125
    60   4      6.0749999999999993      6.0749999999999993      8.0999999999999996
    61   1      4.0499999999999998      8.0999999999999996                       0
    62   3      4.0499999999999998                  10.125      2.0249999999999999
    63   4      6.0749999999999993      8.0999999999999996      2.0249999999999999
    64   4      6.0749999999999993                  10.125                       0
    65   1      4.0499999999999998      8.0999999999999996      4.0499999999999998
    66   2      4.0499999999999998                  10.125      6.0749999999999993
    67   4      6.0749999999999993      8.0999999999999996      6.0749999999999993
    68   2      6.0749999999999993                  10.125      4.0499999999999998
    69   4      4.0499999999999998      8.0999999999999996      8.0999999999999996
    70   3      4.0499999999999998                  10.125                  10.125
    71   1      6.0749999999999993      8.0999999999999996                  10.125
    72   4      6.0749999999999993                  10.125      8.0999999999999996
    73   1      8.0999999999999996                       0                       0
    74   2      8.0999999999999996      2.0249999999999999      2.0249999999999999
    75   2                  10.125                       0      2.0249999999999999
    76   4                  10.125      2.0249999999999999                       0
    77   1      8.0999999999999996                       0      4.0499999999999998
    78   1      8.0999999999999996      2.0249999999999999      6.0749999999999993
    79   2                  10.125                       0      6.0749999999999993
    80   4                  10.125      2.0249999999999999      4.0499999999999998
    81   2      8.0999999999999996                       0      8.0999999999999996
    82   1      8.0999999999999996      2.0249999999999999                  10.125
    83   4                  10.125                       0                  10.125
    84   2                  10.125      2.0249999999999999      8.0999999999999996
    85   4      8.0999999999999996      4.0499999999999998                       0
    86   2      8.0999999999999996      6.0749999999999993      2.0249999999999999
    87   4                  10.125      4.0499999999999998      2.0249999999999999
    88   3                  10.125      6.0749999999999993                       0
    89   2      8.0999999999999996      4.0499999999999998      4.0499999999999998
    90   1      8.0999999999999996      6.0749999999999993      6.0749999999999993
    91   4                  10.125      4.0499999999999998      6.0749999999999993
    92   2                  10.125      6.0749999999999993      4.0499999999999998
    93   2      8.0999999999999996      4.0499999999999998      8.0999999999999996
    94   2      8.0999999999999996      6.0749999999999993                  10.125
    95   2                  10.125      4.0499999999999998                  10.125
    96   3                  10.125      6.0749999999999993      8.0999999999999996
    97   3      8.0999999999999996      8.0999999999999996                       0
    98   2      8.0999999999999996                  10.125      2.0249999999999999
    99   2                  10.125      8.0999999999999996      2.0249999999999999
   100   3                  10.125                  10.125                       0
   101   1      8.0999999999999996      8.0999999999999996      4.0499999999999998
   102   4      8.0999999999999996                  10.125      6.0749999999999993
   103   3                  10.125      8.0999999999999996      6.0749999999999993
   104   2                  10.125                  10.125      4.0499999999999998
   105   2      8.0999999999999996      8.0999999999999996      8.0999999999999996
   106   4      8.0999999999999996                  10.125                  10.125
   107   3                  10.125      8.0999999999999996                  10.125
   108   3                  10.125                  10.125      8.0999999999999996
