data.fcc.fecrnicoal0.05 (written by ASE) 

108 	 atoms 
5  atom types
0.0      12.149999999999999  xlo xhi
0.0      12.149999999999999  ylo yhi
0.0      12.149999999999999  zlo zhi


Atoms 

     1   3                       0                       0                       0
     2   5                       0      2.0249999999999999      2.0249999999999999
     3   3      2.0249999999999999                       0      2.0249999999999999
     4   4      2.0249999999999999      2.0249999999999999                       0
     5   1                       0                       0      4.0499999999999998
     6   4                       0      2.0249999999999999      6.0749999999999993
     7   3      2.0249999999999999                       0      6.0749999999999993
     8   1      2.0249999999999999      2.0249999999999999      4.0499999999999998
     9   3                       0                       0      8.0999999999999996
    10   1                       0      2.0249999999999999                  10.125
    11   1      2.0249999999999999                       0                  10.125
    12   3      2.0249999999999999      2.0249999999999999      8.0999999999999996
    13   4                       0      4.0499999999999998                       0
    14   4                       0      6.0749999999999993      2.0249999999999999
    15   1      2.0249999999999999      4.0499999999999998      2.0249999999999999
    16   1      2.0249999999999999      6.0749999999999993                       0
    17   1                       0      4.0499999999999998      4.0499999999999998
    18   1                       0      6.0749999999999993      6.0749999999999993
    19   2      2.0249999999999999      4.0499999999999998      6.0749999999999993
    20   2      2.0249999999999999      6.0749999999999993      4.0499999999999998
    21   2                       0      4.0499999999999998      8.0999999999999996
    22   2                       0      6.0749999999999993                  10.125
    23   4      2.0249999999999999      4.0499999999999998                  10.125
    24   4      2.0249999999999999      6.0749999999999993      8.0999999999999996
    25   3                       0      8.0999999999999996                       0
    26   2                       0                  10.125      2.0249999999999999
    27   1      2.0249999999999999      8.0999999999999996      2.0249999999999999
    28   2      2.0249999999999999                  10.125                       0
    29   3                       0      8.0999999999999996      4.0499999999999998
    30   2                       0                  10.125      6.0749999999999993
    31   1      2.0249999999999999      8.0999999999999996      6.0749999999999993
    32   2      2.0249999999999999                  10.125      4.0499999999999998
    33   1                       0      8.0999999999999996      8.0999999999999996
    34   2                       0                  10.125                  10.125
    35   2      2.0249999999999999      8.0999999999999996                  10.125
    36   1      2.0249999999999999                  10.125      8.0999999999999996
    37   1      4.0499999999999998                       0                       0
    38   3      4.0499999999999998      2.0249999999999999      2.0249999999999999
    39   2      6.0749999999999993                       0      2.0249999999999999
    40   1      6.0749999999999993      2.0249999999999999                       0
    41   4      4.0499999999999998                       0      4.0499999999999998
    42   2      4.0499999999999998      2.0249999999999999      6.0749999999999993
    43   2      6.0749999999999993                       0      6.0749999999999993
    44   5      6.0749999999999993      2.0249999999999999      4.0499999999999998
    45   3      4.0499999999999998                       0      8.0999999999999996
    46   3      4.0499999999999998      2.0249999999999999                  10.125
    47   5      6.0749999999999993                       0                  10.125
    48   4      6.0749999999999993      2.0249999999999999      8.0999999999999996
    49   1      4.0499999999999998      4.0499999999999998                       0
    50   1      4.0499999999999998      6.0749999999999993      2.0249999999999999
    51   3      6.0749999999999993      4.0499999999999998      2.0249999999999999
    52   4      6.0749999999999993      6.0749999999999993                       0
    53   3      4.0499999999999998      4.0499999999999998      4.0499999999999998
    54   4      4.0499999999999998      6.0749999999999993      6.0749999999999993
    55   1      6.0749999999999993      4.0499999999999998      6.0749999999999993
    56   3      6.0749999999999993      6.0749999999999993      4.0499999999999998
    57   4      4.0499999999999998      4.0499999999999998      8.0999999999999996
    58   4      4.0499999999999998      6.0749999999999993                  10.125
    59   2      6.0749999999999993      4.0499999999999998                  10.125
    60   2      6.0749999999999993      6.0749999999999993      8.0999999999999996
    61   4      4.0499999999999998      8.0999999999999996                       0
    62   4      4.0499999999999998                  10.125      2.0249999999999999
    63   4      6.0749999999999993      8.0999999999999996      2.0249999999999999
    64   3      6.0749999999999993                  10.125                       0
    65   4      4.0499999999999998      8.0999999999999996      4.0499999999999998
    66   4      4.0499999999999998                  10.125      6.0749999999999993
    67   2      6.0749999999999993      8.0999999999999996      6.0749999999999993
    68   1      6.0749999999999993                  10.125      4.0499999999999998
    69   2      4.0499999999999998      8.0999999999999996      8.0999999999999996
    70   3      4.0499999999999998                  10.125                  10.125
    71   3      6.0749999999999993      8.0999999999999996                  10.125
    72   3      6.0749999999999993                  10.125      8.0999999999999996
    73   3      8.0999999999999996                       0                       0
    74   4      8.0999999999999996      2.0249999999999999      2.0249999999999999
    75   2                  10.125                       0      2.0249999999999999
    76   1                  10.125      2.0249999999999999                       0
    77   1      8.0999999999999996                       0      4.0499999999999998
    78   4      8.0999999999999996      2.0249999999999999      6.0749999999999993
    79   1                  10.125                       0      6.0749999999999993
    80   2                  10.125      2.0249999999999999      4.0499999999999998
    81   3      8.0999999999999996                       0      8.0999999999999996
    82   4      8.0999999999999996      2.0249999999999999                  10.125
    83   4                  10.125                       0                  10.125
    84   3                  10.125      2.0249999999999999      8.0999999999999996
    85   1      8.0999999999999996      4.0499999999999998                       0
    86   2      8.0999999999999996      6.0749999999999993      2.0249999999999999
    87   4                  10.125      4.0499999999999998      2.0249999999999999
    88   3                  10.125      6.0749999999999993                       0
    89   4      8.0999999999999996      4.0499999999999998      4.0499999999999998
    90   1      8.0999999999999996      6.0749999999999993      6.0749999999999993
    91   2                  10.125      4.0499999999999998      6.0749999999999993
    92   1                  10.125      6.0749999999999993      4.0499999999999998
    93   2      8.0999999999999996      4.0499999999999998      8.0999999999999996
    94   2      8.0999999999999996      6.0749999999999993                  10.125
    95   4                  10.125      4.0499999999999998                  10.125
    96   3                  10.125      6.0749999999999993      8.0999999999999996
    97   5      8.0999999999999996      8.0999999999999996                       0
    98   3      8.0999999999999996                  10.125      2.0249999999999999
    99   3                  10.125      8.0999999999999996      2.0249999999999999
   100   3                  10.125                  10.125                       0
   101   2      8.0999999999999996      8.0999999999999996      4.0499999999999998
   102   5      8.0999999999999996                  10.125      6.0749999999999993
   103   2                  10.125      8.0999999999999996      6.0749999999999993
   104   1                  10.125                  10.125      4.0499999999999998
   105   4      8.0999999999999996      8.0999999999999996      8.0999999999999996
   106   1      8.0999999999999996                  10.125                  10.125
   107   3                  10.125      8.0999999999999996                  10.125
   108   2                  10.125                  10.125      8.0999999999999996
