data.fcc.fecrnicoal0.20 (written by ASE) 

108 	 atoms 
5  atom types
0.0      12.149999999999999  xlo xhi
0.0      12.149999999999999  ylo yhi
0.0      12.149999999999999  zlo zhi


Atoms 

     1   5                       0                       0                       0
     2   1                       0      2.0249999999999999      2.0249999999999999
     3   3      2.0249999999999999                       0      2.0249999999999999
     4   3      2.0249999999999999      2.0249999999999999                       0
     5   1                       0                       0      4.0499999999999998
     6   4                       0      2.0249999999999999      6.0749999999999993
     7   3      2.0249999999999999                       0      6.0749999999999993
     8   2      2.0249999999999999      2.0249999999999999      4.0499999999999998
     9   4                       0                       0      8.0999999999999996
    10   5                       0      2.0249999999999999                  10.125
    11   3      2.0249999999999999                       0                  10.125
    12   4      2.0249999999999999      2.0249999999999999      8.0999999999999996
    13   1                       0      4.0499999999999998                       0
    14   4                       0      6.0749999999999993      2.0249999999999999
    15   3      2.0249999999999999      4.0499999999999998      2.0249999999999999
    16   4      2.0249999999999999      6.0749999999999993                       0
    17   1                       0      4.0499999999999998      4.0499999999999998
    18   1                       0      6.0749999999999993      6.0749999999999993
    19   5      2.0249999999999999      4.0499999999999998      6.0749999999999993
    20   4      2.0249999999999999      6.0749999999999993      4.0499999999999998
    21   3                       0      4.0499999999999998      8.0999999999999996
    22   3                       0      6.0749999999999993                  10.125
    23   3      2.0249999999999999      4.0499999999999998                  10.125
    24   5      2.0249999999999999      6.0749999999999993      8.0999999999999996
    25   2                       0      8.0999999999999996                       0
    26   5                       0                  10.125      2.0249999999999999
    27   2      2.0249999999999999      8.0999999999999996      2.0249999999999999
    28   3      2.0249999999999999                  10.125                       0
    29   4                       0      8.0999999999999996      4.0499999999999998
    30   3                       0                  10.125      6.0749999999999993
    31   1      2.0249999999999999      8.0999999999999996      6.0749999999999993
    32   1      2.0249999999999999                  10.125      4.0499999999999998
    33   5                       0      8.0999999999999996      8.0999999999999996
    34   5                       0                  10.125                  10.125
    35   1      2.0249999999999999      8.0999999999999996                  10.125
    36   4      2.0249999999999999                  10.125      8.0999999999999996
    37   2      4.0499999999999998                       0                       0
    38   5      4.0499999999999998      2.0249999999999999      2.0249999999999999
    39   5      6.0749999999999993                       0      2.0249999999999999
    40   2      6.0749999999999993      2.0249999999999999                       0
    41   5      4.0499999999999998                       0      4.0499999999999998
    42   5      4.0499999999999998      2.0249999999999999      6.0749999999999993
    43   3      6.0749999999999993                       0      6.0749999999999993
    44   5      6.0749999999999993      2.0249999999999999      4.0499999999999998
    45   4      4.0499999999999998                       0      8.0999999999999996
    46   5      4.0499999999999998      2.0249999999999999                  10.125
    47   4      6.0749999999999993                       0                  10.125
    48   3      6.0749999999999993      2.0249999999999999      8.0999999999999996
    49   1      4.0499999999999998      4.0499999999999998                       0
    50   5      4.0499999999999998      6.0749999999999993      2.0249999999999999
    51   1      6.0749999999999993      4.0499999999999998      2.0249999999999999
    52   1      6.0749999999999993      6.0749999999999993                       0
    53   4      4.0499999999999998      4.0499999999999998      4.0499999999999998
    54   2      4.0499999999999998      6.0749999999999993      6.0749999999999993
    55   2      6.0749999999999993      4.0499999999999998      6.0749999999999993
    56   4      6.0749999999999993      6.0749999999999993      4.0499999999999998
    57   3      4.0499999999999998      4.0499999999999998      8.0999999999999996
    58   5      4.0499999999999998      6.0749999999999993                  10.125
    59   4      6.0749999999999993      4.0499999999999998                  10.125
    60   2      6.0749999999999993      6.0749999999999993      8.0999999999999996
    61   1      4.0499999999999998      8.0999999999999996                       0
    62   2      4.0499999999999998                  10.125      2.0249999999999999
    63   2      6.0749999999999993      8.0999999999999996      2.0249999999999999
    64   2      6.0749999999999993                  10.125                       0
    65   5      4.0499999999999998      8.0999999999999996      4.0499999999999998
    66   2      4.0499999999999998                  10.125      6.0749999999999993
    67   4      6.0749999999999993      8.0999999999999996      6.0749999999999993
    68   3      6.0749999999999993                  10.125      4.0499999999999998
    69   1      4.0499999999999998      8.0999999999999996      8.0999999999999996
    70   4      4.0499999999999998                  10.125                  10.125
    71   5      6.0749999999999993      8.0999999999999996                  10.125
    72   1      6.0749999999999993                  10.125      8.0999999999999996
    73   1      8.0999999999999996                       0                       0
    74   4      8.0999999999999996      2.0249999999999999      2.0249999999999999
    75   2                  10.125                       0      2.0249999999999999
    76   1                  10.125      2.0249999999999999                       0
    77   5      8.0999999999999996                       0      4.0499999999999998
    78   4      8.0999999999999996      2.0249999999999999      6.0749999999999993
    79   3                  10.125                       0      6.0749999999999993
    80   2                  10.125      2.0249999999999999      4.0499999999999998
    81   2      8.0999999999999996                       0      8.0999999999999996
    82   1      8.0999999999999996      2.0249999999999999                  10.125
    83   2                  10.125                       0                  10.125
    84   1                  10.125      2.0249999999999999      8.0999999999999996
    85   3      8.0999999999999996      4.0499999999999998                       0
    86   4      8.0999999999999996      6.0749999999999993      2.0249999999999999
    87   5                  10.125      4.0499999999999998      2.0249999999999999
    88   1                  10.125      6.0749999999999993                       0
    89   5      8.0999999999999996      4.0499999999999998      4.0499999999999998
    90   3      8.0999999999999996      6.0749999999999993      6.0749999999999993
    91   2                  10.125      4.0499999999999998      6.0749999999999993
    92   3                  10.125      6.0749999999999993      4.0499999999999998
    93   3      8.0999999999999996      4.0499999999999998      8.0999999999999996
    94   4      8.0999999999999996      6.0749999999999993                  10.125
    95   2                  10.125      4.0499999999999998                  10.125
    96   1                  10.125      6.0749999999999993      8.0999999999999996
    97   4      8.0999999999999996      8.0999999999999996                       0
    98   3      8.0999999999999996                  10.125      2.0249999999999999
    99   1                  10.125      8.0999999999999996      2.0249999999999999
   100   2                  10.125                  10.125                       0
   101   2      8.0999999999999996      8.0999999999999996      4.0499999999999998
   102   2      8.0999999999999996                  10.125      6.0749999999999993
   103   1                  10.125      8.0999999999999996      6.0749999999999993
   104   3                  10.125                  10.125      4.0499999999999998
   105   4      8.0999999999999996      8.0999999999999996      8.0999999999999996
   106   2      8.0999999999999996                  10.125                  10.125
   107   5                  10.125      8.0999999999999996                  10.125
   108   3                  10.125                  10.125      8.0999999999999996
