
  ___ ___ ___ _ _ _  
 |   |   |_  | | | | 
 | | | | | . | | | | 
 |__ |  _|___|_____|  22.8.0
 |___|_|             

User:   c.zeng@d0137
Date:   Fri Apr 14 20:25:17 2023
Arch:   x86_64
Pid:    28281
CWD:    /home/c.zeng/projects/hea-corrosion/hea-mlp/data-curation/bulk-mcmc/dft-jobs/168
Python: 3.8.1
gpaw:   /home/c.zeng/usr/installs/gpaw/source/gpaw-22.8.0/gpaw
_gpaw:  /home/c.zeng/usr/installs/gpaw/source/gpaw-22.8.0/
        _gpaw.cpython-38-x86_64-linux-gnu.so
ase:    /home/c.zeng/.local/lib/python3.8/site-packages/ase-3.22.1-py3.8.egg/ase (version 3.22.1)
numpy:  /shared/centos7/python/3.8.1/lib/python3.8/site-packages/numpy (version 1.17.4)
scipy:  /shared/centos7/python/3.8.1/lib/python3.8/site-packages/scipy (version 1.4.1)
libxc:  4.2.3
units:  Angstrom and eV
cores: 30
OpenMP: False
OMP_NUM_THREADS: 1

Input parameters:
  convergence: {energy: 0.0001}
  kpts: [2 2 2]
  maxiter: 666
  mode: {ecut: 350.0,
         name: pw}
  occupations: {fixmagmom: False,
                name: fermi-dirac,
                width: 0.1}
  spinpol: True
  xc: PBE

System changes: positions, numbers, cell, pbc, initial_charges, initial_magmoms 

Initialize ...

species:
  Co:
    name: Cobalt
    id: 339d20d5b0b93d2de9531a1bee871d91
    Z: 27.0
    valence: 9
    core: 18
    charge: 0.0
    file: /home/c.zeng/usr/data/gpaw-setups-0.9.20000/Co.PBE.gz
    compensation charges: {type: gauss,
                           rc: 0.32,
                           lmax: 2}
    cutoffs: {filter: 1.87,
              core: 2.55}
    valence states:
      #              energy  rcut
      - 4s(2.00)    -5.469   1.005
      - 4p(0.00)    -1.277   1.058
      - 3d(7.00)    -8.205   1.005
      -  s          21.742   1.005
      -  p          25.934   1.058
      -  d          19.007   1.005
  
    # Using partial waves for Co as LCAO basis

  Fe:
    name: Iron
    id: 37abbd8d6c3c35915a9b583b742da910
    Z: 26.0
    valence: 8
    core: 18
    charge: 0.0
    file: /home/c.zeng/usr/data/gpaw-setups-0.9.20000/Fe.PBE.gz
    compensation charges: {type: gauss,
                           rc: 0.33,
                           lmax: 2}
    cutoffs: {filter: 2.06,
              core: 2.67}
    valence states:
      #              energy  rcut
      - 4s(2.00)    -5.291   1.164
      - 4p(0.00)    -1.326   1.058
      - 3d(6.00)    -7.505   1.058
      -  s          21.920   1.164
      -  p          25.885   1.058
      -  d          19.706   1.058
  
    # Using partial waves for Fe as LCAO basis

  Al:
    name: Aluminium
    id: 0292cae29f5d6237e50f6abdd43a7bdd
    Z: 13.0
    valence: 3
    core: 10
    charge: 0.0
    file: /home/c.zeng/usr/data/gpaw-setups-0.9.20000/Al.PBE.gz
    compensation charges: {type: gauss,
                           rc: 0.34,
                           lmax: 2}
    cutoffs: {filter: 1.91,
              core: 2.36}
    valence states:
      #              energy  rcut
      - 3s(2.00)    -7.753   1.085
      - 3p(1.00)    -2.712   1.085
      -  s          19.459   1.085
      -  p          24.499   1.085
      -  d           0.000   1.085
  
    # Using partial waves for Al as LCAO basis

  Cr:
    name: Chromium
    id: 33f258bda2ca9f93018e70263a35547b
    Z: 24.0
    valence: 6
    core: 18
    charge: 0.0
    file: /home/c.zeng/usr/data/gpaw-setups-0.9.20000/Cr.PBE.gz
    compensation charges: {type: gauss,
                           rc: 0.35,
                           lmax: 2}
    cutoffs: {filter: 2.14,
              core: 3.04}
    valence states:
      #              energy  rcut
      - 4s(1.00)    -4.007   1.164
      - 4p(0.00)    -0.989   1.217
      - 3d(5.00)    -2.913   1.111
      -  s          23.205   1.164
      -  p          26.223   1.217
      -  d          24.299   1.111
  
    # Using partial waves for Cr as LCAO basis

  Ni:
    name: Nickel
    id: 0d9f38a9d6e76a2886f07bb4381f212b
    Z: 28.0
    valence: 16
    core: 12
    charge: 0.0
    file: /home/c.zeng/usr/data/gpaw-setups-0.9.20000/Ni.PBE.gz
    compensation charges: {type: gauss,
                           rc: 0.36,
                           lmax: 2}
    cutoffs: {filter: 2.14,
              core: 1.98}
    valence states:
      #              energy  rcut
      - 4s(2.00)    -5.642   1.164
      - 3p(6.00)   -71.394   1.207
      - 4p(0.00)    -1.226   1.207
      - 3d(8.00)    -8.875   1.138
      -  s          21.570   1.164
      -  d          18.337   1.138
  
    # Using partial waves for Ni as LCAO basis

Reference energy: -3382523.201499  # eV

Spin-polarized calculation.
Magnetic moment: 128.800000

Convergence criteria:
 Maximum [total energy] change in last 3 cyles: 0.0001 eV / electron
 Maximum integral of absolute [dens]ity change: 0.0001 electrons / valence electron
 Maximum integral of absolute [eigenst]ate change: 4e-08 eV^2 / valence electron
 Maximum number of scf [iter]ations: 666
 (Square brackets indicate name in SCF output, whereas a 'c' in
 the SCF output indicates the quantity has converged.)

Symmetries present (total): 1

  ( 1  0  0)
  ( 0  1  0)
  ( 0  0  1)

8 k-points: 2 x 2 x 2 Monkhorst-Pack grid
4 k-points in the irreducible part of the Brillouin zone
       k-points in crystal coordinates                weights
   0:     0.25000000   -0.25000000   -0.25000000          2/8
   1:     0.25000000   -0.25000000    0.25000000          2/8
   2:     0.25000000    0.25000000   -0.25000000          2/8
   3:     0.25000000    0.25000000    0.25000000          2/8

Wave functions: Plane wave expansion
  Cutoff energy: 350.000 eV
  Number of coefficients (min, max): 18865, 18865
  Pulay-stress correction: 0.000000 eV/Ang^3 (de/decut=0.000000)
  Using FFTW library
  ScaLapack parameters: grid=1x1, blocksize=None
  Wavefunction extrapolation:
    Improved wavefunction reuse through dual PAW basis 

Occupation numbers: Fermi-Dirac:
  width: 0.1000  # eV
 

Eigensolver
   Davidson(niter=2) 

Densities:
  Coarse grid: 48*48*48 grid
  Fine grid: 96*96*96 grid
  Total Charge: 0.000000 

Density mixing:
  Method: difference
  Backend: pulay
  Linear mixing parameter: 0.05
  old densities: 5
  Damping of long wavelength oscillations: 50 

Hamiltonian:
  XC and Coulomb potentials evaluated on a 96*96*96 grid
  Using the PBE Exchange-Correlation functional
  External potential:
    NoExternalPotential
 

XC parameters: PBE with 2 nearest neighbor stencil

Memory estimate:
  Process memory now: 238.65 MiB
  Calculator: 1017.03 MiB
    Density: 5.55 MiB
      Arrays: 2.05 MiB
      Localized functions: 2.68 MiB
      Mixer: 0.82 MiB
    Hamiltonian: 1.60 MiB
      Arrays: 1.52 MiB
      XC: 0.00 MiB
      Poisson: 0.00 MiB
      vbar: 0.08 MiB
    Wavefunctions: 1009.87 MiB
      Arrays psit_nG: 747.28 MiB
      Eigensolver: 252.55 MiB
      Projections: 4.92 MiB
      Projectors: 0.73 MiB
      PW-descriptor: 4.39 MiB

Total number of cores used: 30
Parallelization over k-points: 2
Domain decomposition: 5 x 3 x 1

Number of atoms: 108
Number of atomic orbitals: 961
Number of bands in calculation: 649
Number of valence electrons: 945
Bands to converge: occupied

... initialized

Initializing position-dependent things.

Density initialized from atomic densities
Creating initial wave functions:
  649 bands from LCAO basis set

        .--------------------------.  
       /|                     Co   |  
      / |            Fe Fe     CrCo|  
     /  |       Cr       Ni       Cr  
    /   |Co       Fel     CFer     |  
   /i   | Coo        Co      Co    |  
  /  CrAl   NCr       Ni           |  
 *      Ni     FeFe   AlCoCrCo   Cr|  
 |      |FeNi   CrNiAl   NiAlNi   Fe  
 | CrFe | AlNi   AlAlFe     Ni     |  
 |     Co  FeCr Cr  Fe FeNi  CrNi  |  
 |      FeNi   AlCr   FeCoCoNi  Fe |  
 |Al    |CoCr   AlCrFe   CrCo     Co  
 |      .-CrCo-----NiCr-CoFeCrNi---.  
 |     /   Ni Fe    Cr CoNi    Al /   
 |    Co       AFei       Al     /    
 |   /  Fe         Al       Cr  /     
 |  /      Fe       Al       Co/      
 | / Fe     Co       Ni Ni    /       
 |/             Cr       Ni  /        
 *--------Co----------------*         

Positions:
   0 Co    10.764147   10.861293   10.805330    ( 0.0000,  0.0000,  2.0000)
   1 Co    10.786221    1.792513    1.813624    ( 0.0000,  0.0000,  0.0000)
   2 Fe     1.744156    0.036560    1.851269    ( 0.0000,  0.0000,  1.5000)
   3 Al     1.736571    1.831142   10.798805    ( 0.0000,  0.0000,  0.0000)
   4 Co     3.575126    0.057318    0.061759    ( 0.0000,  0.0000,  0.0000)
   5 Fe     3.594289    1.817617    1.845577    ( 0.0000,  0.0000,  2.0000)
   6 Fe     5.429813   10.817005    1.865054    ( 0.0000,  0.0000,  1.5000)
   7 Cr     5.429608    1.929425    0.057134    ( 0.0000,  0.0000,  0.0000)
   8 Fe     7.316909   10.723332    0.087382    ( 0.0000,  0.0000,  0.0000)
   9 Al     7.263142    1.825786    1.869404    ( 0.0000,  0.0000,  2.1000)
  10 Ni     9.063554    0.025226    1.863474    ( 0.0000,  0.0000,  1.5000)
  11 Ni     9.049217    1.829703    0.033106    ( 0.0000,  0.0000,  2.1000)
  12 Ni     0.004792    3.558981   10.794801    ( 0.0000,  0.0000,  1.5000)
  13 Al    10.759710    5.390697    1.778165    ( 0.0000,  0.0000,  0.0000)
  14 Fe     1.733585    3.561849    1.761112    ( 0.0000,  0.0000,  2.0000)
  15 Co     1.776899    5.391834   10.795505    ( 0.0000,  0.0000,  0.0000)
  16 Co     3.565452    3.619360   10.832619    ( 0.0000,  0.0000,  2.1000)
  17 Fe     3.633221    5.394614    1.719551    ( 0.0000,  0.0000,  0.0000)
  18 Ni     5.471624    3.659114    1.836033    ( 0.0000,  0.0000,  2.1000)
  19 Fe     5.440212    5.373060   -0.002773    ( 0.0000,  0.0000,  2.0000)
  20 Ni     7.258997    3.609080    0.031294    ( 0.0000,  0.0000,  0.0000)
  21 Co     7.268941    5.378362    1.785274    ( 0.0000,  0.0000,  2.0000)
  22 Al     9.030724    3.577636    1.833728    ( 0.0000,  0.0000,  2.1000)
  23 Fe     9.040420    5.372281   10.801110    ( 0.0000,  0.0000,  0.0000)
  24 Co    10.791663    7.196206   10.792486    ( 0.0000,  0.0000,  1.5000)
  25 Co    10.758434    9.040387    1.848239    ( 0.0000,  0.0000,  0.0000)
  26 Cr     1.690487    7.202493    1.786032    ( 0.0000,  0.0000,  0.0000)
  27 Ni     1.652691    8.981047    0.027217    ( 0.0000,  0.0000,  0.0000)
  28 Al     3.631241    7.164437    0.034633    ( 0.0000,  0.0000,  0.0000)
  29 Al     3.625452    9.063759    1.801678    ( 0.0000,  0.0000,  0.0000)
  30 Ni     5.490852    7.187095    1.746342    ( 0.0000,  0.0000,  2.0000)
  31 Cr     5.426935    8.989152    0.009861    ( 0.0000,  0.0000,  2.0000)
  32 Fe     7.229122    7.237075   -0.008698    ( 0.0000,  0.0000,  1.5000)
  33 Cr     7.249194    8.995850    1.810713    ( 0.0000,  0.0000,  0.0000)
  34 Cr     9.052073    7.204300    1.764218    ( 0.0000,  0.0000,  2.1000)
  35 Co     9.092553    8.989639   10.808760    ( 0.0000,  0.0000,  1.5000)
  36 Cr    -0.000975   10.826235    3.639789    ( 0.0000,  0.0000,  1.5000)
  37 Al    10.822772    1.771770    5.422044    ( 0.0000,  0.0000,  2.1000)
  38 Ni     1.754263   10.802084    5.428872    ( 0.0000,  0.0000,  2.1000)
  39 Co     1.741873    1.774270    3.610801    ( 0.0000,  0.0000,  0.0000)
  40 Al     3.591183   10.794152    3.612143    ( 0.0000,  0.0000,  2.0000)
  41 Cr     3.593088    1.736744    5.455177    ( 0.0000,  0.0000,  0.0000)
  42 Al     5.437150   10.794563    5.400804    ( 0.0000,  0.0000,  2.0000)
  43 Fe     5.451931    1.783251    3.601387    ( 0.0000,  0.0000,  1.5000)
  44 Al     7.226222    0.007781    3.626209    ( 0.0000,  0.0000,  0.0000)
  45 Fe     7.236069    1.766512    5.381392    ( 0.0000,  0.0000,  2.1000)
  46 Co     9.034587   10.848850    5.403844    ( 0.0000,  0.0000,  2.1000)
  47 Ni     9.031558    1.804946    3.616730    ( 0.0000,  0.0000,  1.5000)
  48 Ni    10.773885    3.543973    3.617867    ( 0.0000,  0.0000,  1.5000)
  49 Ni    10.772186    5.358409    5.454917    ( 0.0000,  0.0000,  0.0000)
  50 Fe     1.757531    3.575678    5.428937    ( 0.0000,  0.0000,  2.1000)
  51 Co     1.621766    5.386986    3.572550    ( 0.0000,  0.0000,  0.0000)
  52 Co     3.634303    3.633188    3.540792    ( 0.0000,  0.0000,  0.0000)
  53 Cr     3.550606    5.397969    5.404753    ( 0.0000,  0.0000,  2.0000)
  54 Cr     5.402221    3.610887    5.370193    ( 0.0000,  0.0000,  2.0000)
  55 Cr     5.460241    5.433590    3.575613    ( 0.0000,  0.0000,  2.0000)
  56 Cr     7.250157    3.615183    3.623169    ( 0.0000,  0.0000,  1.5000)
  57 Fe     7.248707    5.410715    5.362099    ( 0.0000,  0.0000,  1.5000)
  58 Co     9.058230    3.565236    5.380082    ( 0.0000,  0.0000,  2.1000)
  59 Co     9.074071    5.365323    3.589008    ( 0.0000,  0.0000,  2.1000)
  60 Fe    10.732086    7.267719    3.615162    ( 0.0000,  0.0000,  2.0000)
  61 Fe    10.775779    9.094782    5.426621    ( 0.0000,  0.0000,  2.1000)
  62 Al     1.686775    7.280195    5.496879    ( 0.0000,  0.0000,  0.0000)
  63 Fe     1.734277    9.054854    3.595598    ( 0.0000,  0.0000,  1.5000)
  64 Al     3.592936    7.268141    3.470210    ( 0.0000,  0.0000,  0.0000)
  65 Cr     3.586606    9.093570    5.438989    ( 0.0000,  0.0000,  0.0000)
  66 Al     5.383004    7.229273    5.440602    ( 0.0000,  0.0000,  0.0000)
  67 Fe     5.438189    9.045072    3.590069    ( 0.0000,  0.0000,  1.5000)
  68 Co     7.326074    7.204776    3.545683    ( 0.0000,  0.0000,  0.0000)
  69 Ni     7.279632    9.072199    5.413107    ( 0.0000,  0.0000,  2.0000)
  70 Ni     9.092152    7.237465    5.436987    ( 0.0000,  0.0000,  0.0000)
  71 Cr     9.065675    9.066703    3.636153    ( 0.0000,  0.0000,  0.0000)
  72 Ni    10.809723   10.839544    7.207860    ( 0.0000,  0.0000,  2.0000)
  73 Ni    10.806033    1.798562    8.996921    ( 0.0000,  0.0000,  2.1000)
  74 Fe     1.743366    0.025229    8.997224    ( 0.0000,  0.0000,  2.1000)
  75 Co     1.767453    1.793054    7.239326    ( 0.0000,  0.0000,  2.1000)
  76 Ni     3.586833    0.005591    7.224978    ( 0.0000,  0.0000,  2.0000)
  77 Ni     3.553431    1.854828    8.998555    ( 0.0000,  0.0000,  2.0000)
  78 Fe     5.409460   10.815988    8.971428    ( 0.0000,  0.0000,  0.0000)
  79 Cr     5.421081    1.784279    7.188372    ( 0.0000,  0.0000,  2.0000)
  80 Co     7.245937   10.799746    7.160228    ( 0.0000,  0.0000,  2.1000)
  81 Al     7.320999    1.765083    8.948813    ( 0.0000,  0.0000,  0.0000)
  82 Cr     9.091124   10.807104    8.993610    ( 0.0000,  0.0000,  1.5000)
  83 Ni     9.075738    1.781649    7.163106    ( 0.0000,  0.0000,  1.5000)
  84 Cr    10.826451    3.561578    7.207611    ( 0.0000,  0.0000,  1.5000)
  85 Cr     0.036832    5.383155    8.996207    ( 0.0000,  0.0000,  2.0000)
  86 Ni     1.771305    3.603573    9.016896    ( 0.0000,  0.0000,  2.1000)
  87 Fe     1.802046    5.346615    7.250741    ( 0.0000,  0.0000,  0.0000)
  88 Ni     3.593250    3.620096    7.230713    ( 0.0000,  0.0000,  1.5000)
  89 Cr     3.560215    5.391985    9.052268    ( 0.0000,  0.0000,  2.0000)
  90 Fe     5.376880    3.650263    8.987215    ( 0.0000,  0.0000,  1.5000)
  91 Ni     5.354319    5.395567    7.215694    ( 0.0000,  0.0000,  2.1000)
  92 Fe     7.220974    3.645372    7.098821    ( 0.0000,  0.0000,  0.0000)
  93 Ni     7.211073    5.388295    9.040181    ( 0.0000,  0.0000,  0.0000)
  94 Cr     9.095052    3.598119    8.980636    ( 0.0000,  0.0000,  2.0000)
  95 Al     9.078205    5.402416    7.227759    ( 0.0000,  0.0000,  0.0000)
  96 Cr    10.763411    7.244682    7.260285    ( 0.0000,  0.0000,  1.5000)
  97 Cr    10.795093    9.034566    8.977574    ( 0.0000,  0.0000,  2.0000)
  98 Co     1.740045    7.178947    8.984662    ( 0.0000,  0.0000,  2.1000)
  99 Co     1.734429    9.080207    7.236696    ( 0.0000,  0.0000,  1.5000)
 100 Fe     3.580482    7.154277    7.248285    ( 0.0000,  0.0000,  0.0000)
 101 Cr     3.612835    8.970898    8.958086    ( 0.0000,  0.0000,  0.0000)
 102 Al     5.410943    7.155878    9.067049    ( 0.0000,  0.0000,  0.0000)
 103 Co     5.466441    9.064062    7.220963    ( 0.0000,  0.0000,  2.1000)
 104 Co     7.307203    7.271549    7.289738    ( 0.0000,  0.0000,  0.0000)
 105 Ni     7.271073    9.044683    9.027879    ( 0.0000,  0.0000,  1.5000)
 106 Cr     9.081743    7.219805    9.041166    ( 0.0000,  0.0000,  2.1000)
 107 Co     9.063684    9.083009    7.213865    ( 0.0000,  0.0000,  2.0000)

Unit cell:
           periodic     x           y           z      points  spacing
  1. axis:    yes   10.820500    0.000000    0.000000    48     0.2254
  2. axis:    yes    0.000000   10.820500    0.000000    48     0.2254
  3. axis:    yes    0.000000    0.000000   10.820500    48     0.2254

  Lengths:  10.820500  10.820500  10.820500
  Angles:   90.000000  90.000000  90.000000

Effective grid spacing dv^(1/3) = 0.2254

     iter     time        total  log10-change:  magmom
                         energy  eigst   dens
iter:   1 20:28:29  -895.590876                  +128.4417
iter:   2 20:29:52  -861.564437  -0.40  -1.31    +96.5629
iter:   3 20:31:15  -846.081240  -0.94  -1.30    +67.7510
iter:   4 20:32:39  -832.832047  -1.26  -1.36    +58.2687
iter:   5 20:34:01  -826.318220  -1.86  -1.40    +53.5545
iter:   6 20:35:25  -827.287487  -1.97  -1.47    +51.4462
iter:   7 20:36:48  -826.102553  -1.64  -1.50    +50.0975
iter:   8 20:38:11  -824.045794  -1.74  -1.55    +50.2671
iter:   9 20:39:35  -827.436986  -1.84  -1.69    +50.7792
iter:  10 20:40:58  -823.192486  -2.11  -1.69    +50.3836
iter:  11 20:42:21  -823.911623  -2.36  -1.82    +51.1636
iter:  12 20:43:44  -823.102554  -2.48  -1.84    +51.8362
iter:  13 20:45:07  -823.531192  -2.59  -1.89    +52.7446
iter:  14 20:46:31  -823.989850  -2.54  -1.94    +53.3792
iter:  15 20:47:54  -824.657871  -2.53  -1.95    +54.0712
iter:  16 20:49:17  -824.771298  -2.44  -1.97    +54.9330
iter:  17 20:50:40  -824.349689  -2.73  -1.99    +55.0195
iter:  18 20:52:03  -824.462475  -2.67  -2.07    +55.5468
iter:  19 20:53:26  -823.984092  -2.93  -2.09    +55.9144
iter:  20 20:54:49  -823.992233  -3.20  -2.17    +56.3406
iter:  21 20:56:12  -824.135629  -3.26  -2.22    +56.7625
iter:  22 20:57:35  -824.242936  -3.26  -2.24    +56.8891
iter:  23 20:58:58  -824.242238  -3.42  -2.24    +57.1587
iter:  24 21:00:21  -824.506318  -3.25  -2.29    +57.2131
iter:  25 21:01:43  -824.530329  -3.23  -2.27    +57.2862
iter:  26 21:03:06  -824.604908  -3.22  -2.32    +57.2066
iter:  27 21:04:29  -824.681985  -3.21  -2.33    +57.1125
iter:  28 21:05:52  -824.666784c -3.21  -2.33    +57.1185
iter:  29 21:07:16  -824.621429c -3.40  -2.42    +56.8777
iter:  30 21:08:39  -824.567918  -3.67  -2.42    +56.7846
iter:  31 21:10:01  -824.614080c -3.80  -2.49    +56.5918
iter:  32 21:11:25  -824.626432c -3.91  -2.50    +56.4424
iter:  33 21:12:47  -824.682124c -3.92  -2.54    +56.2239
iter:  34 21:14:10  -824.697459c -4.01  -2.55    +56.0762
iter:  35 21:15:33  -824.884545  -3.54  -2.61    +55.7721
iter:  36 21:16:56  -824.798636  -3.66  -2.53    +55.6665
iter:  37 21:18:19  -824.855069c -3.75  -2.65    +55.3536
iter:  38 21:19:42  -824.878642c -3.70  -2.68    +55.1777
iter:  39 21:21:05  -824.855216c -3.80  -2.66    +54.8488
iter:  40 21:22:28  -824.833264c -4.17  -2.74    +54.6683
iter:  41 21:23:51  -824.845670c -4.42  -2.88    +54.3929
iter:  42 21:25:14  -824.874286c -4.54  -2.90    +54.1079
iter:  43 21:26:37  -824.980944  -3.51  -2.91    +52.9838
iter:  44 21:28:00  -825.023987  -4.10  -2.85    +52.6238
iter:  45 21:29:23  -825.049265c -4.30  -2.78    +52.4242
iter:  46 21:30:47  -825.032207c -4.37  -2.75    +52.3925
iter:  47 21:32:10  -825.011801c -4.47  -2.81    +52.2859
iter:  48 21:33:33  -824.994026c -4.52  -2.91    +52.2185
iter:  49 21:34:56  -824.993777c -4.29  -3.07    +52.2190
iter:  50 21:36:18  -824.994137c -4.71  -3.11    +52.2392
iter:  51 21:37:41  -824.996930c -4.80  -3.16    +52.2757
iter:  52 21:39:04  -824.995424c -5.09  -3.20    +52.3252
iter:  53 21:40:26  -824.998264c -5.27  -3.27    +52.3532
iter:  54 21:41:49  -825.002117c -5.28  -3.29    +52.3643
iter:  55 21:43:12  -825.003254c -5.56  -3.30    +52.3892
iter:  56 21:44:35  -825.008991c -5.21  -3.32    +52.4098
iter:  57 21:45:58  -825.009366c -5.22  -3.28    +52.4221
iter:  58 21:47:21  -825.016337c -5.04  -3.32    +52.4342
iter:  59 21:48:44  -825.013650c -5.10  -3.30    +52.4372
iter:  60 21:50:06  -825.017946c -4.94  -3.38    +52.4682
iter:  61 21:51:29  -825.016802c -5.17  -3.32    +52.4787
iter:  62 21:52:52  -825.018753c -5.36  -3.43    +52.4793
iter:  63 21:54:15  -825.019018c -5.68  -3.46    +52.4866
iter:  64 21:55:37  -825.022041c -5.75  -3.54    +52.5005
iter:  65 21:57:00  -825.012982c -5.05  -3.53    +52.4723
iter:  66 21:58:23  -825.008125c -5.14  -3.56    +52.4799
iter:  67 21:59:47  -825.016250c -5.20  -3.55    +52.4944
iter:  68 22:01:09  -825.012187c -5.67  -3.53    +52.5242
iter:  69 22:02:32  -825.015026c -5.95  -3.53    +52.5482
iter:  70 22:03:55  -825.016794c -5.94  -3.53    +52.5619
iter:  71 22:05:17  -825.019092c -5.84  -3.54    +52.5755
iter:  72 22:06:40  -825.022536c -5.22  -3.53    +52.5946
iter:  73 22:08:02  -825.025228c -5.10  -3.43    +52.5976
iter:  74 22:09:23  -825.024886c -5.31  -3.43    +52.5878
iter:  75 22:10:46  -825.025811c -5.66  -3.55    +52.5823
iter:  76 22:12:09  -825.028450c -5.57  -3.73    +52.5802
iter:  77 22:13:32  -825.029750c -5.80  -3.73    +52.5807
iter:  78 22:14:54  -825.032141c -5.76  -3.78    +52.5717
iter:  79 22:16:16  -825.032959c -5.79  -3.82    +52.5696
iter:  80 22:17:39  -825.034721c -5.99  -3.78    +52.5722
iter:  81 22:19:02  -825.037734c -5.70  -3.91    +52.5680
iter:  82 22:20:25  -825.036104c -6.57  -3.89    +52.5726
iter:  83 22:21:48  -825.036982c -6.54  -3.90    +52.5634
iter:  84 22:23:11  -825.038900c -6.10  -3.90    +52.5606
iter:  85 22:24:34  -825.039328c -6.35  -3.88    +52.5658
iter:  86 22:25:57  -825.041999c -5.77  -3.92    +52.5588
iter:  87 22:27:20  -825.041359c -6.29  -3.91    +52.5587
iter:  88 22:28:44  -825.044479c -5.84  -3.87    +52.5469
iter:  89 22:30:06  -825.046707c -5.93  -3.85    +52.5381
iter:  90 22:31:30  -825.048493c -5.86  -3.77    +52.5289
iter:  91 22:32:52  -825.048892c -6.35  -3.72    +52.5164
iter:  92 22:34:14  -825.052150c -5.69  -3.70    +52.5138
iter:  93 22:35:37  -825.051712c -6.11  -3.71    +52.5165
iter:  94 22:37:00  -825.054221c -5.77  -3.72    +52.5326
iter:  95 22:38:23  -825.061349c -5.00  -3.69    +52.5344
iter:  96 22:39:46  -825.064300c -5.29  -3.60    +52.5078
iter:  97 22:41:08  -825.064507c -5.71  -3.51    +52.5006
iter:  98 22:42:32  -825.066578c -5.79  -3.52    +52.4660
iter:  99 22:43:55  -825.072362c -5.17  -3.52    +52.4203
iter: 100 22:45:17  -825.067994c -5.79  -3.43    +52.4406
iter: 101 22:46:41  -825.074640c -5.22  -3.55    +52.4589
iter: 102 22:48:03  -825.071367c -5.38  -3.36    +52.4655
iter: 103 22:49:26  -825.072135c -5.53  -3.48    +52.4741
iter: 104 22:50:49  -825.071642c -5.77  -3.51    +52.4701
iter: 105 22:52:12  -825.073739c -5.40  -3.58    +52.4822
iter: 106 22:53:35  -825.072257c -6.17  -3.47    +52.4852
iter: 107 22:54:57  -825.072353c -6.00  -3.63    +52.4927
iter: 108 22:56:19  -825.074365c -5.48  -3.62    +52.5146
iter: 109 22:57:43  -825.073197c -5.57  -3.61    +52.5367
iter: 110 22:59:05  -825.073738c -5.91  -3.80    +52.5526
iter: 111 23:00:27  -825.073497c -6.34  -3.74    +52.5593
iter: 112 23:01:50  -825.074097c -6.24  -3.87    +52.5888
iter: 113 23:03:13  -825.074415c -6.61  -3.88    +52.5940
iter: 114 23:04:36  -825.074336c -6.17  -3.92    +52.6062
iter: 115 23:05:59  -825.075084c -6.30  -3.90    +52.6171
iter: 116 23:07:22  -825.075437c -6.14  -3.96    +52.6446
iter: 117 23:08:45  -825.075643c -6.23  -4.04c   +52.6558
iter: 118 23:10:09  -825.075584c -6.48  -4.03c   +52.6600
iter: 119 23:11:31  -825.075996c -6.40  -4.07c   +52.6855
iter: 120 23:12:54  -825.076433c -6.80  -4.16c   +52.6961
iter: 121 23:14:18  -825.076758c -6.65  -4.20c   +52.7164
iter: 122 23:15:42  -825.077212c -6.45  -4.20c   +52.7362
iter: 123 23:17:04  -825.077086c -6.96  -4.06c   +52.7337
iter: 124 23:18:26  -825.077565c -6.41  -4.08c   +52.7559
iter: 125 23:19:48  -825.078223c -6.08  -4.07c   +52.7949
iter: 126 23:21:11  -825.078596c -6.48  -3.98    +52.8200
iter: 127 23:22:33  -825.080255c -5.69  -3.96    +52.8986
iter: 128 23:23:56  -825.079459c -6.55  -3.83    +52.8607
iter: 129 23:25:19  -825.080104c -6.37  -3.93    +52.8980
iter: 130 23:26:41  -825.079965c -6.68  -3.86    +52.8712
iter: 131 23:28:04  -825.080692c -5.93  -3.84    +52.9343
iter: 132 23:29:27  -825.081197c -6.03  -3.87    +52.9656
iter: 133 23:30:50  -825.081516c -6.42  -3.74    +52.9845
iter: 134 23:32:13  -825.082105c -5.93  -3.79    +53.0068
iter: 135 23:33:36  -825.082367c -6.33  -3.76    +53.0116
iter: 136 23:34:58  -825.082362c -6.18  -3.78    +53.0211
iter: 137 23:36:21  -825.083679c -5.90  -3.80    +53.0305
iter: 138 23:37:43  -825.082873c -6.23  -3.73    +53.0341
iter: 139 23:39:06  -825.082577c -6.17  -3.87    +53.0464
iter: 140 23:40:28  -825.082806c -6.79  -3.84    +53.0525
iter: 141 23:41:50  -825.083172c -6.52  -3.91    +53.0670
iter: 142 23:43:12  -825.083211c -6.47  -3.90    +53.0785
iter: 143 23:44:35  -825.084177c -5.87  -3.95    +53.0906
iter: 144 23:45:58  -825.083838c -5.91  -3.87    +53.0956
iter: 145 23:47:21  -825.084193c -6.31  -3.95    +53.1064
iter: 146 23:48:44  -825.084100c -6.53  -4.15c   +53.1077
iter: 147 23:50:06  -825.084218c -7.01  -4.24c   +53.1103
iter: 148 23:51:30  -825.084445c -6.64  -4.30c   +53.1192
iter: 149 23:52:52  -825.084555c -6.84  -4.31c   +53.1233
iter: 150 23:54:15  -825.084925c -6.60  -4.36c   +53.1259
iter: 151 23:55:37  -825.084781c -6.94  -4.24c   +53.1289
iter: 152 23:57:00  -825.085023c -6.81  -4.50c   +53.1356
iter: 153 23:58:23  -825.084845c -7.29  -4.49c   +53.1326
iter: 154 23:59:46  -825.084694c -6.83  -4.65c   +53.1316
iter: 155 00:01:10  -825.084965c -6.69  -4.54c   +53.1393
iter: 156 00:02:32  -825.084596c -6.54  -4.67c   +53.1270
iter: 157 00:03:54  -825.084107c -6.14  -4.62c   +53.1092
iter: 158 00:05:17  -825.084353c -7.28  -4.39c   +53.1115
iter: 159 00:06:40  -825.084077c -7.09  -4.47c   +53.1074
iter: 160 00:08:03  -825.083916c -7.24  -4.42c   +53.1056
iter: 161 00:09:26  -825.083992c -7.38  -4.38c   +53.1091
iter: 162 00:10:49  -825.084030c -6.51  -4.36c   +53.1148
iter: 163 00:12:12  -825.084003c -6.88  -4.26c   +53.1063
iter: 164 00:13:34  -825.084063c -7.14  -4.50c   +53.1036
iter: 165 00:14:57  -825.084150c -6.66  -4.50c   +53.1176
iter: 166 00:16:18  -825.084368c -6.90  -4.45c   +53.1195
iter: 167 00:17:40  -825.084595c -6.94  -4.78c   +53.1288
iter: 168 00:19:02  -825.084843c -7.08  -4.81c   +53.1338
iter: 169 00:20:26  -825.085105c -6.72  -4.82c   +53.1442
iter: 170 00:21:49  -825.084976c -7.84c -4.79c   +53.1397

Converged after 170 iterations.

Dipole moment: (28.888356, -3.985379, -10.124425) |e|*Ang

Total magnetic moment: (0.000000, 0.000000, 53.139661)
Local magnetic moments:
   0 Co ( 0.000000,  0.000000,  1.183936)
   1 Co ( 0.000000,  0.000000,  1.380933)
   2 Fe ( 0.000000,  0.000000,  2.362258)
   3 Al ( 0.000000,  0.000000, -0.047694)
   4 Co ( 0.000000,  0.000000,  1.326928)
   5 Fe ( 0.000000,  0.000000,  2.417703)
   6 Fe ( 0.000000,  0.000000,  1.918864)
   7 Cr ( 0.000000,  0.000000, -2.413661)
   8 Fe ( 0.000000,  0.000000,  2.136953)
   9 Al ( 0.000000,  0.000000, -0.011191)
  10 Ni ( 0.000000,  0.000000,  0.182230)
  11 Ni ( 0.000000,  0.000000,  0.180909)
  12 Ni ( 0.000000,  0.000000,  0.250347)
  13 Al ( 0.000000,  0.000000, -0.025516)
  14 Fe ( 0.000000,  0.000000,  2.407030)
  15 Co ( 0.000000,  0.000000,  0.709513)
  16 Co ( 0.000000,  0.000000,  1.234918)
  17 Fe ( 0.000000,  0.000000,  2.216336)
  18 Ni ( 0.000000,  0.000000,  0.265005)
  19 Fe ( 0.000000,  0.000000,  2.186312)
  20 Ni ( 0.000000,  0.000000,  0.136705)
  21 Co ( 0.000000,  0.000000,  1.213427)
  22 Al ( 0.000000,  0.000000, -0.020707)
  23 Fe ( 0.000000,  0.000000,  2.071464)
  24 Co ( 0.000000,  0.000000,  0.370311)
  25 Co ( 0.000000,  0.000000,  1.034936)
  26 Cr ( 0.000000,  0.000000, -1.837719)
  27 Ni ( 0.000000,  0.000000,  0.110079)
  28 Al ( 0.000000,  0.000000, -0.013621)
  29 Al ( 0.000000,  0.000000, -0.020025)
  30 Ni ( 0.000000,  0.000000,  0.329422)
  31 Cr ( 0.000000,  0.000000,  1.548367)
  32 Fe ( 0.000000,  0.000000,  2.005500)
  33 Cr ( 0.000000,  0.000000, -1.424283)
  34 Cr ( 0.000000,  0.000000, -1.607079)
  35 Co ( 0.000000,  0.000000,  0.924345)
  36 Cr ( 0.000000,  0.000000, -1.536573)
  37 Al ( 0.000000,  0.000000, -0.021444)
  38 Ni ( 0.000000,  0.000000,  0.098610)
  39 Co ( 0.000000,  0.000000,  1.083855)
  40 Al ( 0.000000,  0.000000, -0.042155)
  41 Cr ( 0.000000,  0.000000, -1.821466)
  42 Al ( 0.000000,  0.000000, -0.021678)
  43 Fe ( 0.000000,  0.000000,  1.822394)
  44 Al ( 0.000000,  0.000000, -0.030716)
  45 Fe ( 0.000000,  0.000000,  1.895096)
  46 Co ( 0.000000,  0.000000,  0.878954)
  47 Ni ( 0.000000,  0.000000,  0.140107)
  48 Ni ( 0.000000,  0.000000,  0.370208)
  49 Ni ( 0.000000,  0.000000,  0.151127)
  50 Fe ( 0.000000,  0.000000,  2.336989)
  51 Co ( 0.000000,  0.000000,  1.096150)
  52 Co ( 0.000000,  0.000000,  1.166414)
  53 Cr ( 0.000000,  0.000000, -1.596789)
  54 Cr ( 0.000000,  0.000000,  1.001724)
  55 Cr ( 0.000000,  0.000000,  1.103716)
  56 Cr ( 0.000000,  0.000000, -1.595977)
  57 Fe ( 0.000000,  0.000000,  2.231719)
  58 Co ( 0.000000,  0.000000,  0.837982)
  59 Co ( 0.000000,  0.000000,  1.097110)
  60 Fe ( 0.000000,  0.000000,  2.016392)
  61 Fe ( 0.000000,  0.000000,  1.984932)
  62 Al ( 0.000000,  0.000000, -0.015946)
  63 Fe ( 0.000000,  0.000000,  1.733187)
  64 Al ( 0.000000,  0.000000, -0.027004)
  65 Cr ( 0.000000,  0.000000,  1.579801)
  66 Al ( 0.000000,  0.000000, -0.017413)
  67 Fe ( 0.000000,  0.000000,  2.031594)
  68 Co ( 0.000000,  0.000000,  1.135221)
  69 Ni ( 0.000000,  0.000000,  0.280155)
  70 Ni ( 0.000000,  0.000000,  0.307258)
  71 Cr ( 0.000000,  0.000000,  1.003274)
  72 Ni ( 0.000000,  0.000000,  0.273926)
  73 Ni ( 0.000000,  0.000000,  0.210424)
  74 Fe ( 0.000000,  0.000000,  2.446071)
  75 Co ( 0.000000,  0.000000,  1.251158)
  76 Ni ( 0.000000,  0.000000,  0.113911)
  77 Ni ( 0.000000,  0.000000,  0.395032)
  78 Fe ( 0.000000,  0.000000,  2.319604)
  79 Cr ( 0.000000,  0.000000,  0.597710)
  80 Co ( 0.000000,  0.000000,  1.135787)
  81 Al ( 0.000000,  0.000000, -0.018720)
  82 Cr ( 0.000000,  0.000000, -0.178501)
  83 Ni ( 0.000000,  0.000000,  0.075282)
  84 Cr ( 0.000000,  0.000000, -1.337193)
  85 Cr ( 0.000000,  0.000000, -0.576046)
  86 Ni ( 0.000000,  0.000000,  0.071340)
  87 Fe ( 0.000000,  0.000000, -1.506341)
  88 Ni ( 0.000000,  0.000000,  0.061844)
  89 Cr ( 0.000000,  0.000000,  0.153584)
  90 Fe ( 0.000000,  0.000000,  2.185404)
  91 Ni ( 0.000000,  0.000000,  0.135839)
  92 Fe ( 0.000000,  0.000000, -1.931422)
  93 Ni ( 0.000000,  0.000000,  0.265394)
  94 Cr ( 0.000000,  0.000000,  1.556762)
  95 Al ( 0.000000,  0.000000, -0.006132)
  96 Cr ( 0.000000,  0.000000,  0.944771)
  97 Cr ( 0.000000,  0.000000, -0.629594)
  98 Co ( 0.000000,  0.000000,  0.761903)
  99 Co ( 0.000000,  0.000000,  0.741035)
 100 Fe ( 0.000000,  0.000000, -1.618893)
 101 Cr ( 0.000000,  0.000000, -2.091242)
 102 Al ( 0.000000,  0.000000, -0.010367)
 103 Co ( 0.000000,  0.000000,  1.098968)
 104 Co ( 0.000000,  0.000000,  1.399335)
 105 Ni ( 0.000000,  0.000000,  0.219818)
 106 Cr ( 0.000000,  0.000000, -1.122158)
 107 Co ( 0.000000,  0.000000,  0.979644)

Energy contributions relative to reference atoms: (reference = -3382523.201499)

Kinetic:       +196.165891
Potential:     -209.394118
External:        +0.000000
XC:            -843.030129
Entropy (-ST):   -4.310040
Local:          +33.328400
--------------------------
Free energy:   -827.239996
Extrapolated:  -825.084976

Spin contamination: 29.519754 electrons
Showing only first 2 kpts
                      Up                     Down
 Kpt  Band  Eigenvalues  Occupancy  Eigenvalues  Occupancy
  0   470      9.19483    0.99181      9.98559    0.04268
  0   471      9.21119    0.99037     10.00618    0.03502
  0   472      9.22554    0.98890     10.02428    0.02939
  0   473      9.24201    0.98694     10.03559    0.02633

  1   470      9.19897    0.99147      9.99264    0.03989
  1   471      9.22052    0.98944     10.00602    0.03507
  1   472      9.22906    0.98851     10.01216    0.03305
  1   473      9.24354    0.98675     10.01983    0.03068


Fermi level: 9.67455

No gap

Forces in eV/Ang:
  0 Co    0.00373   -0.47315    0.19069
  1 Co    0.53966   -0.29963    0.09518
  2 Fe   -0.27986   -0.14386   -0.70191
  3 Al    0.27190   -0.26491   -0.24938
  4 Co    0.16940   -0.28722   -0.46220
  5 Fe    0.20330    0.54454   -0.21839
  6 Fe    0.21999    0.37735   -0.84022
  7 Cr   -1.08034   -1.00349   -0.87665
  8 Fe   -0.41630    0.43506   -0.44844
  9 Al   -0.23662   -0.52511   -1.23214
 10 Ni   -0.15465   -0.22390   -0.34355
 11 Ni   -0.14990   -0.38386   -0.46323
 12 Ni   -0.23815    0.62735    0.12235
 13 Al    0.96338   -0.21090   -0.11142
 14 Fe    0.56567    0.27780    0.95268
 15 Co   -0.19126    0.09145   -0.16717
 16 Co    0.32143    0.23989    0.16390
 17 Fe   -0.62967   -0.79677    0.76654
 18 Ni   -0.44362   -0.19646    0.03458
 19 Fe    0.33623   -0.49348    0.24232
 20 Ni   -0.11352   -0.02682   -0.37214
 21 Co    0.02999    0.56783    0.12977
 22 Al    0.50054   -0.05137   -0.50308
 23 Fe   -0.48304    0.81602   -0.45517
 24 Co    0.37589   -0.10819   -0.18798
 25 Co    0.24629   -0.02486   -0.40474
 26 Cr   -0.65263    0.13661    0.02175
 27 Ni    0.73119    0.45489   -0.22765
 28 Al   -1.12069    0.08551   -0.01689
 29 Al   -0.55578    0.40841   -1.09272
 30 Ni   -0.13203    0.05614    0.54539
 31 Cr    0.40885    1.09831   -0.41557
 32 Fe    0.71120   -0.15495    0.26980
 33 Cr    0.05093    0.08876   -0.44869
 34 Cr   -0.41567    0.33761   -0.11114
 35 Co   -0.11934    0.05885    0.16616
 36 Cr    0.03431   -0.62930   -0.83059
 37 Al   -0.16664   -0.02797   -0.08887
 38 Ni    0.37282    0.04185    0.18249
 39 Co    0.33911    0.47506   -0.16896
 40 Al   -0.65099    0.88214   -0.14353
 41 Cr   -0.35361    1.48535    0.14751
 42 Al    0.25951   -0.26940    1.12248
 43 Fe   -0.44644    0.45239    0.08044
 44 Al    1.00048   -0.31032    0.03293
 45 Fe    0.44741    0.73016    0.54589
 46 Co   -0.23337   -0.36563   -0.00835
 47 Ni   -0.06498   -0.16119    0.07508
 48 Ni    0.52326    0.39538   -0.05454
 49 Ni    0.30327    0.20571   -0.42972
 50 Fe    0.87063    0.34674   -0.49746
 51 Co    1.04921   -0.04234    0.22630
 52 Co   -0.33063    0.03525    0.23559
 53 Cr   -0.03417   -0.84296   -0.17789
 54 Cr   -0.24272    0.15926    0.38415
 55 Cr   -0.05309   -0.43338   -0.13495
 56 Cr   -0.91294    0.74374    1.34144
 57 Fe    0.40055    0.12155   -0.00532
 58 Co   -0.51544    0.23626    0.22706
 59 Co   -0.44592    0.41183    0.47021
 60 Fe    0.30180   -0.29051   -0.23919
 61 Fe    0.04478    0.06222    0.25220
 62 Al    0.36476   -0.54246   -0.53234
 63 Fe    0.00949   -0.24913   -0.01100
 64 Al   -0.05670   -1.08704    0.89398
 65 Cr   -0.62605   -0.81104    1.03956
 66 Al    1.14593    0.24664    0.38510
 67 Fe    0.31096   -0.74576   -0.14941
 68 Co   -0.35551   -0.17213    0.23829
 69 Ni    0.03948   -0.61792   -0.03461
 70 Ni   -0.68914   -0.03785   -0.09721
 71 Cr   -0.10866   -0.56056   -0.09234
 72 Ni    0.10404   -0.17793    0.15394
 73 Ni   -0.38805   -0.14053   -0.00942
 74 Fe    0.47863   -0.66048    0.00648
 75 Co    0.32077    0.21392    0.04635
 76 Ni   -0.01391   -0.07637    0.21551
 77 Ni    0.53643   -0.46454    0.16941
 78 Fe   -0.09341    0.22923    0.40215
 79 Cr   -0.40814    0.73968    0.22392
 80 Co    0.03124   -0.00089    0.48786
 81 Al   -0.50342    0.22220    0.41062
 82 Cr    0.31676   -0.87679    0.01237
 83 Ni   -0.68507    0.22173    0.23318
 84 Cr    0.43605    0.03602    0.41226
 85 Cr    0.74610   -0.01581    0.97123
 86 Ni    0.26427    0.17691   -0.15317
 87 Fe   -0.25149    0.73653    0.08486
 88 Ni    0.00626   -0.04985   -0.21319
 89 Cr   -0.83037   -0.98474   -0.65810
 90 Fe    0.30401   -0.26443    0.24361
 91 Ni    0.56278   -0.10469   -0.17780
 92 Fe   -0.15735   -0.51994    0.37973
 93 Ni    0.36361   -0.15965   -0.30363
 94 Cr    0.02631    0.21593    0.28063
 95 Al   -1.31585    0.06056   -0.90957
 96 Cr    0.12516    0.33332    0.79982
 97 Cr    0.16871   -0.00208    0.46387
 98 Co   -0.03204    0.32927   -0.00105
 99 Co    0.19977   -0.31562    0.27606
100 Fe   -0.68795    0.27444   -0.06319
101 Cr   -0.41993    0.95675    0.27026
102 Al    1.18889    0.16449   -1.59288
103 Co   -0.09045   -0.41669    0.34153
104 Co   -0.00937   -0.11636   -0.46950
105 Ni    0.08264    0.16374   -0.00277
106 Cr   -0.69985    0.52745    0.18730
107 Co   -0.44549   -0.12365   -0.06054

Timing:                              incl.     excl.
-----------------------------------------------------------
Forces:                             16.977    16.977   0.1% |
Hamiltonian:                         0.753     0.005   0.0% |
 Atomic:                             0.295     0.100   0.0% |
  XC Correction:                     0.195     0.195   0.0% |
 Calculate atomic Hamiltonians:      0.339     0.339   0.0% |
 Communicate:                        0.000     0.000   0.0% |
 Initialize Hamiltonian:             0.000     0.000   0.0% |
 Poisson:                            0.000     0.000   0.0% |
 XC 3D grid:                         0.114     0.114   0.0% |
LCAO initialization:                98.065     0.812   0.0% |
 LCAO eigensolver:                  10.583     0.010   0.0% |
  Calculate projections:             0.464     0.464   0.0% |
  DenseAtomicCorrection:             0.445     0.445   0.0% |
  Distribute overlap matrix:         0.258     0.258   0.0% |
  Orbital Layouts:                   5.006     5.006   0.0% |
  Potential matrix:                  3.390     3.390   0.0% |
  Sum over cells:                    1.008     1.008   0.0% |
 LCAO to grid:                      84.591    84.591   0.6% |
 Set positions (LCAO WFS):           2.080     0.926   0.0% |
  Basic WFS set positions:           0.003     0.003   0.0% |
  Basis functions set positions:     0.001     0.001   0.0% |
  P tci:                             0.697     0.697   0.0% |
  ST tci:                            0.187     0.187   0.0% |
  mktci:                             0.267     0.267   0.0% |
PWDescriptor:                        0.036     0.036   0.0% |
SCF-cycle:                       14091.145     2.487   0.0% |
 Davidson:                       13783.244  3462.772  24.4% |---------|
  Apply H:                         124.627   117.680   0.8% |
   HMM T:                            6.947     6.947   0.0% |
  Subspace diag:                  1255.688     0.155   0.0% |
   calc_h_matrix:                  511.447   325.812   2.3% ||
    Apply H:                       185.635   179.769   1.3% ||
     HMM T:                          5.865     5.865   0.0% |
   diagonalize:                    187.438   187.438   1.3% ||
   rotate_psi:                     556.649   556.649   3.9% |-|
  calc. matrices:                 2554.117  2305.174  16.2% |-----|
   Apply H:                        248.943   236.014   1.7% ||
    HMM T:                          12.929    12.929   0.1% |
  diagonalize:                    5172.442  5172.442  36.4% |--------------|
  rotate_psi:                     1213.597  1213.597   8.5% |--|
 Density:                          173.872     0.005   0.0% |
  Atomic density matrices:           3.331     3.331   0.0% |
  Mix:                              63.397    63.397   0.4% |
  Multipole moments:                 0.063     0.063   0.0% |
  Pseudo density:                  107.075   107.061   0.8% |
   Symmetrize density:               0.014     0.014   0.0% |
 Hamiltonian:                      123.115     1.545   0.0% |
  Atomic:                           47.560    13.729   0.1% |
   XC Correction:                   33.831    33.831   0.2% |
  Calculate atomic Hamiltonians:    57.156    57.156   0.4% |
  Communicate:                       0.829     0.829   0.0% |
  Poisson:                           0.070     0.070   0.0% |
  XC 3D grid:                       15.955    15.955   0.1% |
 Orthonormalize:                     8.427     0.001   0.0% |
  calc_s_matrix:                     1.200     1.200   0.0% |
  inverse-cholesky:                  0.492     0.492   0.0% |
  projections:                       4.986     4.986   0.0% |
  rotate_psi_s:                      1.747     1.747   0.0% |
Set symmetry:                        0.001     0.001   0.0% |
Other:                               2.802     2.802   0.0% |
-----------------------------------------------------------
Total:                                     14209.778 100.0%

Date: Sat Apr 15 00:22:07 2023
