
  ___ ___ ___ _ _ _  
 |   |   |_  | | | | 
 | | | | | . | | | | 
 |__ |  _|___|_____|  22.8.0
 |___|_|             

User:   c.zeng@d0007
Date:   Wed Apr 19 08:40:20 2023
Arch:   x86_64
Pid:    129627
CWD:    /home/c.zeng/projects/hea-corrosion/hea-mlp/data-curation/surface-mcmc/dft-jobs/181
Python: 3.8.1
gpaw:   /home/c.zeng/usr/installs/gpaw/source/gpaw-22.8.0/gpaw
_gpaw:  /home/c.zeng/usr/installs/gpaw/source/gpaw-22.8.0/
        _gpaw.cpython-38-x86_64-linux-gnu.so
ase:    /home/c.zeng/.local/lib/python3.8/site-packages/ase-3.22.1-py3.8.egg/ase (version 3.22.1)
numpy:  /home/c.zeng/.local/lib/python3.8/site-packages/numpy (version 1.24.2)
scipy:  /home/c.zeng/.local/lib/python3.8/site-packages/scipy (version 1.10.1)
libxc:  4.2.3
units:  Angstrom and eV
cores: 30
OpenMP: False
OMP_NUM_THREADS: 1

Input parameters:
  convergence: {energy: 0.0001}
  kpts: [2 2 1]
  maxiter: 666
  mode: {ecut: 350.0,
         name: pw}
  occupations: {fixmagmom: False,
                name: fermi-dirac,
                width: 0.1}
  poissonsolver: {dipolelayer: xy}
  spinpol: True
  symmetry: {point_group: False}
  xc: PBE

System changes: positions, numbers, cell, pbc, initial_charges, initial_magmoms 

Initialize ...

species:
  Ni:
    name: Nickel
    id: 0d9f38a9d6e76a2886f07bb4381f212b
    Z: 28.0
    valence: 16
    core: 12
    charge: 0.0
    file: /home/c.zeng/usr/data/gpaw-setups-0.9.20000/Ni.PBE.gz
    compensation charges: {type: gauss,
                           rc: 0.36,
                           lmax: 2}
    cutoffs: {filter: 2.14,
              core: 1.98}
    valence states:
      #              energy  rcut
      - 4s(2.00)    -5.642   1.164
      - 3p(6.00)   -71.394   1.207
      - 4p(0.00)    -1.226   1.207
      - 3d(8.00)    -8.875   1.138
      -  s          21.570   1.164
      -  d          18.337   1.138
  
    # Using partial waves for Ni as LCAO basis

  Cr:
    name: Chromium
    id: 33f258bda2ca9f93018e70263a35547b
    Z: 24.0
    valence: 6
    core: 18
    charge: 0.0
    file: /home/c.zeng/usr/data/gpaw-setups-0.9.20000/Cr.PBE.gz
    compensation charges: {type: gauss,
                           rc: 0.35,
                           lmax: 2}
    cutoffs: {filter: 2.14,
              core: 3.04}
    valence states:
      #              energy  rcut
      - 4s(1.00)    -4.007   1.164
      - 4p(0.00)    -0.989   1.217
      - 3d(5.00)    -2.913   1.111
      -  s          23.205   1.164
      -  p          26.223   1.217
      -  d          24.299   1.111
  
    # Using partial waves for Cr as LCAO basis

  Fe:
    name: Iron
    id: 37abbd8d6c3c35915a9b583b742da910
    Z: 26.0
    valence: 8
    core: 18
    charge: 0.0
    file: /home/c.zeng/usr/data/gpaw-setups-0.9.20000/Fe.PBE.gz
    compensation charges: {type: gauss,
                           rc: 0.33,
                           lmax: 2}
    cutoffs: {filter: 2.06,
              core: 2.67}
    valence states:
      #              energy  rcut
      - 4s(2.00)    -5.291   1.164
      - 4p(0.00)    -1.326   1.058
      - 3d(6.00)    -7.505   1.058
      -  s          21.920   1.164
      -  p          25.885   1.058
      -  d          19.706   1.058
  
    # Using partial waves for Fe as LCAO basis

  Al:
    name: Aluminium
    id: 0292cae29f5d6237e50f6abdd43a7bdd
    Z: 13.0
    valence: 3
    core: 10
    charge: 0.0
    file: /home/c.zeng/usr/data/gpaw-setups-0.9.20000/Al.PBE.gz
    compensation charges: {type: gauss,
                           rc: 0.34,
                           lmax: 2}
    cutoffs: {filter: 1.91,
              core: 2.36}
    valence states:
      #              energy  rcut
      - 3s(2.00)    -7.753   1.085
      - 3p(1.00)    -2.712   1.085
      -  s          19.459   1.085
      -  p          24.499   1.085
      -  d           0.000   1.085
  
    # Using partial waves for Al as LCAO basis

  Co:
    name: Cobalt
    id: 339d20d5b0b93d2de9531a1bee871d91
    Z: 27.0
    valence: 9
    core: 18
    charge: 0.0
    file: /home/c.zeng/usr/data/gpaw-setups-0.9.20000/Co.PBE.gz
    compensation charges: {type: gauss,
                           rc: 0.32,
                           lmax: 2}
    cutoffs: {filter: 1.87,
              core: 2.55}
    valence states:
      #              energy  rcut
      - 4s(2.00)    -5.469   1.005
      - 4p(0.00)    -1.277   1.058
      - 3d(7.00)    -8.205   1.005
      -  s          21.742   1.005
      -  p          25.934   1.058
      -  d          19.007   1.005
  
    # Using partial waves for Co as LCAO basis

Reference energy: -3927717.499734  # eV

Spin-polarized calculation.
Magnetic moment: 149.100000

Convergence criteria:
 Maximum [total energy] change in last 3 cyles: 0.0001 eV / electron
 Maximum integral of absolute [dens]ity change: 0.0001 electrons / valence electron
 Maximum integral of absolute [eigenst]ate change: 4e-08 eV^2 / valence electron
 Maximum number of scf [iter]ations: 666
 (Square brackets indicate name in SCF output, whereas a 'c' in
 the SCF output indicates the quantity has converged.)

Symmetries present (total): 1

  ( 1  0  0)
  ( 0  1  0)
  ( 0  0  1)

4 k-points: 2 x 2 x 1 Monkhorst-Pack grid
2 k-points in the irreducible part of the Brillouin zone
       k-points in crystal coordinates                weights
   0:     0.25000000   -0.25000000    0.00000000          2/4
   1:     0.25000000    0.25000000    0.00000000          2/4

Wave functions: Plane wave expansion
  Cutoff energy: 350.000 eV
  Number of coefficients (min, max): 60143, 60161
  Pulay-stress correction: 0.000000 eV/Ang^3 (de/decut=0.000000)
  Using FFTW library
  ScaLapack parameters: grid=1x1, blocksize=None
  Wavefunction extrapolation:
    Improved wavefunction reuse through dual PAW basis 

Occupation numbers: Fermi-Dirac:
  width: 0.1000  # eV
 

Eigensolver
   Davidson(niter=2) 

Densities:
  Coarse grid: 56*56*128 grid
  Fine grid: 112*112*256 grid
  Total Charge: 0.000000 

Density mixing:
  Method: difference
  Backend: pulay
  Linear mixing parameter: 0.05
  old densities: 5
  Damping of long wavelength oscillations: 50 

Hamiltonian:
  XC and Coulomb potentials evaluated on a 112*112*256 grid
  Using the PBE Exchange-Correlation functional
  External potential:
    NoExternalPotential
 

XC parameters: PBE with 2 nearest neighbor stencil

Memory estimate:
  Process memory now: 378.55 MiB
  Calculator: 2209.57 MiB
    Density: 18.91 MiB
      Arrays: 7.39 MiB
      Localized functions: 8.57 MiB
      Mixer: 2.95 MiB
    Hamiltonian: 5.75 MiB
      Arrays: 5.49 MiB
      XC: 0.00 MiB
      Poisson: 0.00 MiB
      vbar: 0.26 MiB
    Wavefunctions: 2184.92 MiB
      Arrays psit_nG: 1382.48 MiB
      Eigensolver: 782.37 MiB
      Projections: 3.31 MiB
      Projectors: 1.16 MiB
      PW-descriptor: 15.59 MiB

Total number of cores used: 30
Parallelization over k-points: 2
Domain decomposition: 1 x 3 x 5

Number of atoms: 125
Number of atomic orbitals: 1116
Number of bands in calculation: 753
Number of valence electrons: 1098
Bands to converge: occupied

... initialized

Initializing position-dependent things.

Density initialized from atomic densities
Creating initial wave functions:
  753 bands from LCAO basis set

                                                               
                                                               
                                                               
                                                               
                          Fe          Fe     Ni    Co          
                            Ni    Co    Cr    Co    Fe         
                                                               
                       Al    CFe   FFe   CCr   NCr   Cr        
                   Fe   CFe    Al    Co    Ni    Cr            
        Ni                       Cr                            
               Ni   FAl  CFCr  CCo   NFe    Cr    Fe           
          Ni    Fe   NAl   NCo   CCr   FNi   Cr                
           Ni    Co    Fe Fe  FeCo  Co       Al   Fe           
                Al    Co    ACo   FAl   CNi   Co    Cr         
            Fe   AFe   ANi    Al    Co    Fe                   
        Ni    Co    Ni    Co Ni Co Cr    Ni    Ni    Co        
             Co    Al   CNi    Cr    Fe    Ni    Ni            
         Cr    Cr   CAl   AFe   CFe   Ni     Ni                
                Fe          Ni                                 
               Cr     Cr          Co    Co                     
           Cr    Cr    Fe    Al     Ni                         
                                                               
                                                               
                                                               
                                                               
                                                               

Positions:
   0 Ni    12.638410    1.500640   10.473714    ( 0.0000,  0.0000,  0.0000)
   1 Cr     2.522937    1.464200   10.500925    ( 0.0000,  0.0000,  0.0000)
   2 Cr     5.053910    1.499679   10.110352    ( 0.0000,  0.0000,  0.0000)
   3 Fe     7.557679    1.474012   10.651858    ( 0.0000,  0.0000,  2.0000)
   4 Al    10.063098    1.480808   10.510582    ( 0.0000,  0.0000,  0.0000)
   5 Co    13.876684    3.701125   10.575129    ( 0.0000,  0.0000,  2.1000)
   6 Cr     3.765065    3.676845   10.563946    ( 0.0000,  0.0000,  2.1000)
   7 Cr     6.296333    3.639618   10.618367    ( 0.0000,  0.0000,  1.5000)
   8 Ni     8.839996    3.605986   10.672787    ( 0.0000,  0.0000,  2.0000)
   9 Co    11.352953    3.684964   10.549299    ( 0.0000,  0.0000,  1.5000)
  10 Ni    15.161276    5.824565   10.498577    ( 0.0000,  0.0000,  1.5000)
  11 Co     5.025278    5.836147   10.574572    ( 0.0000,  0.0000,  1.5000)
  12 Al     7.581095    5.809082   10.450437    ( 0.0000,  0.0000,  0.0000)
  13 Cr    10.115365    5.826084   10.611674    ( 0.0000,  0.0000,  0.0000)
  14 Ni    12.590175    5.838835   10.516863    ( 0.0000,  0.0000,  0.0000)
  15 Ni    16.389239    7.986063   10.611380    ( 0.0000,  0.0000,  2.0000)
  16 Co     6.336726    8.007129   10.633278    ( 0.0000,  0.0000,  2.0000)
  17 Cr     8.860477    8.041112   10.593798    ( 0.0000,  0.0000,  2.0000)
  18 Cr    11.352548    8.028917   10.631722    ( 0.0000,  0.0000,  2.1000)
  19 Ni    13.851584    7.983364   10.505680    ( 0.0000,  0.0000,  2.0000)
  20 Co    17.745314   10.116747   10.074659    ( 0.0000,  0.0000,  0.0000)
  21 Ni     7.636083   10.176440   10.530337    ( 0.0000,  0.0000,  1.5000)
  22 Cr    10.089221   10.193890   10.552029    ( 0.0000,  0.0000,  2.1000)
  23 Ni    12.605039   10.182297   10.523703    ( 0.0000,  0.0000,  2.1000)
  24 Ni    15.064141   10.171206   10.358709    ( 0.0000,  0.0000,  0.0000)
  25 Fe     6.302566   10.804692   12.567941    ( 0.0000,  0.0000,  0.0000)
  26 Co     8.851494   10.898072   12.591335    ( 0.0000,  0.0000,  2.0000)
  27 Fe     5.076351    0.044825   12.536856    ( 0.0000,  0.0000,  0.0000)
  28 Al    13.909654   10.893450   12.608008    ( 0.0000,  0.0000,  1.5000)
  29 Fe    16.352727   10.867270   12.510966    ( 0.0000,  0.0000,  0.0000)
  30 Cr     1.347779    2.234477   12.606775    ( 0.0000,  0.0000,  0.0000)
  31 Cr     3.839937    2.209280   12.530604    ( 0.0000,  0.0000,  2.1000)
  32 Al     6.320342    2.230959   12.618927    ( 0.0000,  0.0000,  0.0000)
  33 Fe     8.782195    2.170075   12.671851    ( 0.0000,  0.0000,  0.0000)
  34 Fe    11.261675    2.259871   12.615258    ( 0.0000,  0.0000,  0.0000)
  35 Co     2.575110    4.392020   12.601990    ( 0.0000,  0.0000,  1.5000)
  36 Al     5.033696    4.384579   12.606305    ( 0.0000,  0.0000,  2.1000)
  37 Ni     7.564379    4.363294   12.629230    ( 0.0000,  0.0000,  2.0000)
  38 Cr    10.052143    4.418954   12.638359    ( 0.0000,  0.0000,  2.0000)
  39 Fe    12.588573    4.408563   12.597529    ( 0.0000,  0.0000,  2.0000)
  40 Al     3.825223    6.539248   12.601110    ( 0.0000,  0.0000,  0.0000)
  41 Al     6.285427    6.556719   12.584144    ( 0.0000,  0.0000,  0.0000)
  42 Cr     8.820218    6.557845   12.561307    ( 0.0000,  0.0000,  2.0000)
  43 Al    11.348710    6.570170   12.593977    ( 0.0000,  0.0000,  2.0000)
  44 Fe    13.909132    6.548655   12.525790    ( 0.0000,  0.0000,  0.0000)
  45 Cr    17.626555    8.699096   12.604162    ( 0.0000,  0.0000,  0.0000)
  46 Al     7.618200    8.725899   12.612235    ( 0.0000,  0.0000,  1.5000)
  47 Fe    10.087472    8.739109   12.626412    ( 0.0000,  0.0000,  1.5000)
  48 Cr    12.639844    8.757204   12.602842    ( 0.0000,  0.0000,  2.1000)
  49 Co    15.116728    8.758580   12.586668    ( 0.0000,  0.0000,  0.0000)
  50 Ni     1.234973    0.732950   14.688585    ( 0.0000,  0.0000,  2.1000)
  51 Co     3.756660    0.776875   14.661198    ( 0.0000,  0.0000,  2.0000)
  52 Ni     6.353364    0.739044   14.685297    ( 0.0000,  0.0000,  2.0000)
  53 Co     8.843197    0.707504   14.667421    ( 0.0000,  0.0000,  1.5000)
  54 Co    11.308149    0.724265   14.667803    ( 0.0000,  0.0000,  2.1000)
  55 Fe     2.562577    2.918904   14.681980    ( 0.0000,  0.0000,  0.0000)
  56 Fe     5.047514    2.876224   14.673262    ( 0.0000,  0.0000,  2.0000)
  57 Ni     7.587094    2.887588   14.717057    ( 0.0000,  0.0000,  2.1000)
  58 Al    10.059655    2.923122   14.721842    ( 0.0000,  0.0000,  2.1000)
  59 Co    12.581173    2.902022   14.699768    ( 0.0000,  0.0000,  2.0000)
  60 Al     3.748435    5.096399   14.714592    ( 0.0000,  0.0000,  2.0000)
  61 Co     6.262723    5.033089   14.723016    ( 0.0000,  0.0000,  0.0000)
  62 Co     8.857244    5.082347   14.703790    ( 0.0000,  0.0000,  1.5000)
  63 Al    11.325799    5.051271   14.695776    ( 0.0000,  0.0000,  0.0000)
  64 Ni    13.876183    5.054495   14.660318    ( 0.0000,  0.0000,  2.1000)
  65 Ni     5.052567    7.279870   14.704259    ( 0.0000,  0.0000,  2.0000)
  66 Ni     7.623886    7.324091   14.709690    ( 0.0000,  0.0000,  0.0000)
  67 Co    10.091768    7.250248   14.682744    ( 0.0000,  0.0000,  1.5000)
  68 Fe    12.609710    7.231017   14.738808    ( 0.0000,  0.0000,  0.0000)
  69 Cr    15.165859    7.289737   14.678898    ( 0.0000,  0.0000,  0.0000)
  70 Cr     6.290924    9.483294   14.711891    ( 0.0000,  0.0000,  0.0000)
  71 Cr     8.799610    9.526006   14.705668    ( 0.0000,  0.0000,  2.0000)
  72 Ni    11.328536    9.524116   14.771390    ( 0.0000,  0.0000,  0.0000)
  73 Ni    13.905777    9.475951   14.693692    ( 0.0000,  0.0000,  2.0000)
  74 Fe    16.402593    9.490986   14.643939    ( 0.0000,  0.0000,  1.5000)
  75 Co    12.559989    1.424700   16.738106    ( 0.0000,  0.0000,  0.0000)
  76 Ni     2.519368    1.415325   16.732030    ( 0.0000,  0.0000,  2.1000)
  77 Co     5.058418    1.426623   16.724633    ( 0.0000,  0.0000,  2.1000)
  78 Fe     7.588593    1.431310   16.719262    ( 0.0000,  0.0000,  1.5000)
  79 Fe    10.080282    1.446990   16.712775    ( 0.0000,  0.0000,  2.1000)
  80 Ni    13.906517    3.636537   16.770219    ( 0.0000,  0.0000,  0.0000)
  81 Fe     3.830827    3.632472   16.750288    ( 0.0000,  0.0000,  2.1000)
  82 Al     6.307138    3.580352   16.791881    ( 0.0000,  0.0000,  2.0000)
  83 Co     8.837036    3.649693   16.760356    ( 0.0000,  0.0000,  1.5000)
  84 Cr    11.316239    3.632713   16.757567    ( 0.0000,  0.0000,  0.0000)
  85 Cr    15.124416    5.819298   16.794875    ( 0.0000,  0.0000,  1.5000)
  86 Fe     5.069314    5.825133   16.817741    ( 0.0000,  0.0000,  2.0000)
  87 Fe     7.591000    5.828182   16.790531    ( 0.0000,  0.0000,  1.5000)
  88 Co    10.100423    5.832104   16.795022    ( 0.0000,  0.0000,  2.1000)
  89 Fe    12.591819    5.816097   16.796049    ( 0.0000,  0.0000,  1.5000)
  90 Cr    16.393148    8.022678   16.766491    ( 0.0000,  0.0000,  0.0000)
  91 Co     6.343718    8.036435   16.784337    ( 0.0000,  0.0000,  2.1000)
  92 Al     8.869407    8.031059   16.785541    ( 0.0000,  0.0000,  1.5000)
  93 Al    11.350811    8.006966   16.850353    ( 0.0000,  0.0000,  0.0000)
  94 Cr    13.848456    8.043231   16.790120    ( 0.0000,  0.0000,  1.5000)
  95 Cr    17.664975   10.214378   16.704673    ( 0.0000,  0.0000,  1.5000)
  96 Co     7.577805   10.200216   16.752871    ( 0.0000,  0.0000,  0.0000)
  97 Fe    10.073950   10.240525   16.814835    ( 0.0000,  0.0000,  0.0000)
  98 Co    12.634825   10.205702   16.792879    ( 0.0000,  0.0000,  2.1000)
  99 Ni    15.128204   10.222671   16.717207    ( 0.0000,  0.0000,  2.1000)
 100 Fe     6.295996   10.895646   18.725164    ( 0.0000,  0.0000,  2.1000)
 101 Ni     2.531103    0.010731   18.808028    ( 0.0000,  0.0000,  0.0000)
 102 Fe    11.354102   10.922176   18.789712    ( 0.0000,  0.0000,  2.0000)
 103 Ni    13.893055   10.918669   18.754371    ( 0.0000,  0.0000,  1.5000)
 104 Co    16.407321   10.902924   18.697866    ( 0.0000,  0.0000,  2.0000)
 105 Ni     1.242615    2.122916   18.813664    ( 0.0000,  0.0000,  0.0000)
 106 Ni     3.777583    2.163727   18.725751    ( 0.0000,  0.0000,  2.0000)
 107 Al     6.316494    2.112186   18.751024    ( 0.0000,  0.0000,  1.5000)
 108 Cr     8.821019    2.135678   18.724841    ( 0.0000,  0.0000,  1.5000)
 109 Cr    11.346910    2.127920   18.772482    ( 0.0000,  0.0000,  0.0000)
 110 Ni    15.041821    4.389824   19.217240    ( 0.0000,  0.0000,  0.0000)
 111 Fe     5.122707    4.340730   18.947661    ( 0.0000,  0.0000,  0.0000)
 112 Fe     7.593428    4.391189   18.757570    ( 0.0000,  0.0000,  0.0000)
 113 Al    10.074524    4.387147   18.958463    ( 0.0000,  0.0000,  0.0000)
 114 Co    12.568500    4.377597   18.792178    ( 0.0000,  0.0000,  2.1000)
 115 Cr    16.401190    6.592941   18.854788    ( 0.0000,  0.0000,  0.0000)
 116 Al     6.333626    6.597181   18.774830    ( 0.0000,  0.0000,  2.1000)
 117 Fe     8.832315    6.612293   18.776708    ( 0.0000,  0.0000,  2.0000)
 118 Fe    11.357713    6.592056   18.807559    ( 0.0000,  0.0000,  1.5000)
 119 Cr    13.843649    6.600634   18.766083    ( 0.0000,  0.0000,  2.1000)
 120 Fe    17.672908    8.762055   18.787393    ( 0.0000,  0.0000,  1.5000)
 121 Ni     7.589466    8.752057   18.793733    ( 0.0000,  0.0000,  0.0000)
 122 Co    10.105305    8.758351   18.804653    ( 0.0000,  0.0000,  2.1000)
 123 Cr    12.605169    8.778467   18.827842    ( 0.0000,  0.0000,  2.0000)
 124 Co    15.105383    8.773889   18.800925    ( 0.0000,  0.0000,  1.5000)

Unit cell:
           periodic     x           y           z      points  spacing
  1. axis:    yes   12.614700    0.000000    0.000000    56     0.1951
  2. axis:    yes    6.308550   10.926700    0.000000    56     0.1951
  3. axis:    no     0.000000    0.000000   29.353100   128     0.2293

  Lengths:  12.614700  12.617075  29.353100
  Angles:   90.000000  90.000000  59.999934

Effective grid spacing dv^(1/3) = 0.2160

     iter     time        total  log10-change:  magmom
                         energy  eigst   dens
iter:   1 08:49:22 -1067.209535                  +148.4725
iter:   2 08:52:04 -1735.263675  +0.32  -1.14    +108.9990
iter:   3 08:54:48 -1867.128773  +0.88  -0.83    +80.5100
iter:   4 08:57:30 -1106.792295  -0.23  -0.79    +51.4439
iter:   5 09:00:13  -987.038147  -1.21  -1.16    +39.0446
iter:   6 09:02:55  -969.997457  -1.66  -1.29    +31.0191
iter:   7 09:05:37  -953.839850  -1.82  -1.30    +29.5534
iter:   8 09:08:19 -1118.998420  -0.69  -1.33    +31.0137
iter:   9 09:11:02 -1146.003301  -0.80  -1.04    +29.3739
iter:  10 09:13:44  -938.804070  -1.30  -1.02    +25.6202
iter:  11 09:16:26  -922.091791  -1.73  -1.39    +27.7090
iter:  12 09:19:08  -934.874241  -1.49  -1.47    +28.2920
iter:  13 09:22:19  -932.287509  -1.63  -1.43    +28.7779
iter:  14 09:25:24  -963.968735  -1.50  -1.45    +30.7189
iter:  15 09:28:07  -922.369836  -1.94  -1.33    +32.3592
iter:  16 09:30:49  -929.982718  -1.65  -1.57    +34.5350
iter:  17 09:33:31  -920.864453  -1.76  -1.53    +35.1607
iter:  18 09:36:13  -918.256236  -2.28  -1.65    +37.3966
iter:  19 09:38:56  -921.006486  -1.93  -1.71    +39.1544
iter:  20 09:41:38  -917.657650  -2.20  -1.67    +41.2690
iter:  21 09:44:20  -914.924191  -2.38  -1.72    +43.7957
iter:  22 09:47:02  -916.081755  -2.62  -1.83    +46.6091
iter:  23 09:49:44  -922.329377  -2.40  -1.83    +48.3149
iter:  24 09:52:27  -915.773672  -2.47  -1.67    +50.3934
iter:  25 09:55:09  -916.404532  -2.64  -1.88    +52.8957
iter:  26 09:57:53  -917.387140  -2.79  -1.90    +54.4910
iter:  27 10:01:24  -917.009236  -2.72  -1.88    +56.5333
iter:  28 10:04:09  -916.885880  -3.30  -1.89    +57.4808
iter:  29 10:06:52  -916.925791  -3.00  -1.92    +61.1744
iter:  30 10:09:34  -918.827041  -2.91  -1.97    +63.0725
iter:  31 10:12:16  -918.818916  -2.64  -1.91    +64.0442
iter:  32 10:14:58  -921.707749  -2.58  -1.99    +64.9096
iter:  33 10:17:41  -923.514321  -2.25  -1.86    +65.7487
iter:  34 10:20:22  -919.514520  -2.44  -1.84    +66.2960
iter:  35 10:23:42  -922.038079  -2.62  -2.05    +65.7024
iter:  36 10:26:31  -918.393230  -2.85  -1.89    +67.1806
iter:  37 10:29:16  -918.486922  -3.43  -2.19    +68.3922
iter:  38 10:32:01  -919.787639  -2.97  -2.26    +70.0391
iter:  39 10:34:47  -918.795832  -3.31  -2.13    +69.3349
iter:  40 10:37:33  -919.179438  -3.26  -2.34    +69.8408
iter:  41 10:40:18  -919.865146  -3.16  -2.29    +70.1866
iter:  42 10:43:04  -919.740760  -2.99  -2.17    +70.5375
iter:  43 10:45:49  -919.587705  -3.08  -2.27    +70.7611
iter:  44 10:48:34  -919.195980  -3.62  -2.31    +71.3444
iter:  45 10:51:20  -919.384708  -3.60  -2.49    +72.2422
iter:  46 10:54:06  -919.685362  -3.22  -2.47    +73.3796
iter:  47 10:56:52  -920.469375  -3.13  -2.42    +73.9735
iter:  48 10:59:38  -919.926607  -3.75  -2.25    +73.5100
iter:  49 11:02:23  -919.971090  -3.90  -2.37    +73.2925
iter:  50 11:05:09  -920.257622  -3.50  -2.38    +73.5765
iter:  51 11:07:55  -921.119860  -2.93  -2.32    +73.5089
iter:  52 11:10:41  -921.188304  -2.59  -2.13    +73.1390
iter:  53 11:13:26  -923.010062  -2.73  -2.10    +72.1562
iter:  54 11:16:12  -922.023433  -2.57  -1.95    +72.5866
iter:  55 11:18:58  -919.915270  -3.36  -2.03    +71.1030
iter:  56 11:21:44  -919.933970  -3.81  -2.42    +70.7437
iter:  57 11:24:30  -920.423633  -3.18  -2.43    +70.2353
iter:  58 11:27:15  -919.869322  -3.74  -2.26    +70.3591
iter:  59 11:30:01  -919.977389  -3.52  -2.48    +70.2619
iter:  60 11:32:47  -920.011459  -3.45  -2.48    +70.2807
iter:  61 11:35:33  -920.167551  -3.54  -2.47    +70.5714
iter:  62 11:38:19  -919.863423  -3.48  -2.37    +70.3938
iter:  63 11:41:04  -919.952210  -3.66  -2.69    +70.4078
iter:  64 11:43:50  -919.894662c -3.80  -2.60    +70.6210
iter:  65 11:46:36  -919.882168c -4.11  -2.66    +70.8280
iter:  66 11:49:22  -919.872096c -4.03  -2.73    +70.6877
iter:  67 11:52:08  -919.930980c -4.23  -2.83    +70.7392
iter:  68 11:54:53  -919.861361c -4.50  -2.67    +70.9473
iter:  69 11:57:39  -919.880365c -4.49  -2.91    +70.9926
iter:  70 12:00:25  -919.990778  -4.28  -2.91    +71.0096
iter:  71 12:03:10  -919.883730  -4.62  -2.66    +71.0301
iter:  72 12:05:56  -919.920531c -4.69  -3.00    +71.0148
iter:  73 12:08:42  -920.265279  -3.77  -2.90    +71.0512
iter:  74 12:11:28  -919.908088  -4.05  -2.44    +71.0383
iter:  75 12:14:13  -919.913814  -4.56  -3.05    +71.0221
iter:  76 12:16:59  -919.914587c -5.05  -3.08    +71.0593
iter:  77 12:19:45  -919.927329c -4.95  -3.09    +71.0882
iter:  78 12:22:31  -919.915751c -4.93  -3.06    +71.1031
iter:  79 12:25:17  -920.021309c -4.22  -3.22    +71.0881
iter:  80 12:28:03  -919.928441c -4.47  -2.71    +71.0005
iter:  81 12:30:48  -919.934458c -5.02  -3.20    +71.0025
iter:  82 12:33:34  -919.941145c -4.93  -3.23    +71.0223
iter:  83 12:36:20  -919.948147c -5.19  -3.30    +71.0158
iter:  84 12:39:06  -919.962638c -4.85  -3.26    +71.0280
iter:  85 12:41:52  -919.993217c -4.49  -3.19    +71.0453
iter:  86 12:44:38  -919.983919c -4.66  -2.93    +71.0558
iter:  87 12:47:23  -919.974887c -4.98  -3.04    +71.1471
iter:  88 12:50:09  -919.987665c -5.19  -3.24    +71.1543
iter:  89 12:52:55  -920.006873c -4.97  -3.13    +71.1838
iter:  90 12:55:41  -920.004769c -5.06  -2.99    +71.2219
iter:  91 12:58:27  -920.002287c -4.79  -3.03    +71.1826
iter:  92 13:01:13  -920.066143c -4.59  -3.05    +71.1919
iter:  93 13:03:59  -920.059160c -4.14  -2.79    +71.2775
iter:  94 13:06:45  -919.995900c -4.64  -2.78    +71.2774
iter:  95 13:09:31  -919.998421c -5.02  -3.15    +71.1488
iter:  96 13:12:17  -920.004678c -5.14  -3.28    +71.0869
iter:  97 13:15:02  -920.015857c -5.06  -3.24    +71.0181
iter:  98 13:17:48  -920.029235c -4.81  -3.14    +71.0519
iter:  99 13:20:33  -920.018179c -4.81  -2.98    +71.0866
iter: 100 13:23:19  -920.014116c -5.21  -3.11    +71.1252
iter: 101 13:26:05  -920.021662c -4.99  -3.12    +71.0808
iter: 102 13:28:51  -920.031172c -4.56  -3.17    +71.0940
iter: 103 13:31:37  -920.015102c -4.84  -3.01    +71.0289
iter: 104 13:34:23  -920.128855  -4.17  -3.25    +71.0520
iter: 105 13:37:08  -920.015071  -4.45  -2.72    +71.1119
iter: 106 13:39:54  -920.011560  -5.37  -3.24    +71.1071
iter: 107 13:42:40  -920.035994c -4.88  -3.28    +71.0858
iter: 108 13:45:26  -920.013122c -4.93  -3.02    +71.0905
iter: 109 13:48:12  -920.020853c -4.78  -3.32    +71.1337
iter: 110 13:50:58  -920.019314c -4.84  -3.25    +71.0993
iter: 111 13:53:43  -920.019351c -4.96  -3.19    +71.0782
iter: 112 13:56:29  -920.015531c -5.22  -3.30    +71.1241
iter: 113 13:59:15  -920.012432c -5.59  -3.43    +71.1782
iter: 114 14:02:00  -920.014962c -5.84  -3.69    +71.1846
iter: 115 14:04:46  -920.014530c -6.22  -3.60    +71.1825
iter: 116 14:07:32  -920.014018c -5.85  -3.68    +71.2011
iter: 117 14:10:17  -920.015180c -6.04  -3.63    +71.2146
iter: 118 14:13:03  -920.022209c -5.34  -3.64    +71.2296
iter: 119 14:15:49  -920.017508c -5.48  -3.20    +71.2124
iter: 120 14:18:35  -920.015001c -5.62  -3.53    +71.2163
iter: 121 14:21:21  -920.016351c -5.85  -3.61    +71.2612
iter: 122 14:24:06  -920.015453c -5.85  -3.65    +71.3001
iter: 123 14:26:52  -920.014781c -6.07  -3.82    +71.3073
iter: 124 14:29:38  -920.018478c -5.58  -3.92    +71.3224
iter: 125 14:32:23  -920.015416c -5.96  -3.38    +71.3266
iter: 126 14:35:09  -920.015876c -6.52  -3.96    +71.3365
iter: 127 14:37:55  -920.015936c -6.63  -3.97    +71.3443
iter: 128 14:40:41  -920.016175c -6.70  -4.01c   +71.3560
iter: 129 14:43:26  -920.017774c -5.58  -4.01c   +71.4237
iter: 130 14:46:12  -920.022139c -5.35  -3.94    +71.3522
iter: 131 14:48:58  -920.018190c -5.34  -3.25    +71.4585
iter: 132 14:51:44  -920.018905c -5.96  -3.90    +71.5011
iter: 133 14:54:30  -920.017381c -5.69  -3.86    +71.3840
iter: 134 14:57:16  -920.017845c -6.58  -3.91    +71.3922
iter: 135 15:00:02  -920.017818c -6.48  -3.81    +71.4014
iter: 136 15:02:48  -920.032354c -5.23  -3.88    +71.4225
iter: 137 15:05:33  -920.017272c -5.61  -3.09    +71.4216
iter: 138 15:08:19  -920.017236c -6.36  -4.12c   +71.4508
iter: 139 15:11:05  -920.017575c -6.42  -4.03c   +71.4638
iter: 140 15:13:51  -920.017482c -6.56  -3.89    +71.4504
iter: 141 15:16:37  -920.017826c -6.13  -3.96    +71.4532
iter: 142 15:19:23  -920.017842c -6.27  -3.87    +71.4499
iter: 143 15:22:09  -920.018348c -6.14  -3.59    +71.4622
iter: 144 15:24:55  -920.018174c -6.30  -3.93    +71.4828
iter: 145 15:27:40  -920.018458c -6.09  -3.80    +71.5070
iter: 146 15:30:26  -920.018438c -5.81  -3.84    +71.5109
iter: 147 15:33:11  -920.017866c -6.40  -3.84    +71.5036
iter: 148 15:35:57  -920.017676c -6.33  -4.16c   +71.5033
iter: 149 15:38:43  -920.018218c -6.58  -3.81    +71.4905
iter: 150 15:41:28  -920.018325c -6.67  -4.05c   +71.4909
iter: 151 15:44:14  -920.018236c -6.67  -4.00    +71.5138
iter: 152 15:47:00  -920.018279c -7.09  -4.14c   +71.5120
iter: 153 15:49:46  -920.018037c -6.72  -4.09c   +71.5237
iter: 154 15:52:31  -920.017917c -6.92  -4.18c   +71.5260
iter: 155 15:55:17  -920.018101c -7.32  -4.00    +71.5243
iter: 156 15:58:04  -920.018279c -7.20  -4.25c   +71.5277
iter: 157 16:00:49  -920.017840c -6.99  -4.22c   +71.5267
iter: 158 16:03:35  -920.018742c -6.54  -4.05c   +71.5259
iter: 159 16:06:21  -920.018689c -6.49  -4.02c   +71.5323
iter: 160 16:09:07  -920.018230c -6.72  -4.19c   +71.5484
iter: 161 16:11:52  -920.018840c -6.47  -4.18c   +71.5503
iter: 162 16:14:38  -920.018176c -6.74  -4.00    +71.5575
iter: 163 16:17:24  -920.018220c -7.10  -4.26c   +71.5552
iter: 164 16:20:09  -920.018253c -7.08  -4.60c   +71.5579
iter: 165 16:22:55  -920.018380c -7.15  -4.64c   +71.5661
iter: 166 16:25:41  -920.018196c -7.02  -4.42c   +71.5726
iter: 167 16:28:27  -920.018301c -7.44c -4.44c   +71.5762

Converged after 167 iterations.

Dipole moment: (56.323343, 45.031493, -0.013366) |e|*Ang

Total magnetic moment: (0.000000, 0.000000, 71.576243)
Local magnetic moments:
   0 Ni ( 0.000000,  0.000000,  0.412918)
   1 Cr ( 0.000000,  0.000000,  2.147503)
   2 Cr ( 0.000000,  0.000000, -2.729192)
   3 Fe ( 0.000000,  0.000000,  2.266085)
   4 Al ( 0.000000,  0.000000, -0.037706)
   5 Co ( 0.000000,  0.000000,  1.323171)
   6 Cr ( 0.000000,  0.000000, -1.729124)
   7 Cr ( 0.000000,  0.000000,  2.361883)
   8 Ni ( 0.000000,  0.000000,  0.211870)
   9 Co ( 0.000000,  0.000000,  1.413695)
  10 Ni ( 0.000000,  0.000000,  0.357813)
  11 Co ( 0.000000,  0.000000,  0.660951)
  12 Al ( 0.000000,  0.000000, -0.012199)
  13 Cr ( 0.000000,  0.000000, -1.939899)
  14 Ni ( 0.000000,  0.000000,  0.320134)
  15 Ni ( 0.000000,  0.000000,  0.175836)
  16 Co ( 0.000000,  0.000000,  0.808372)
  17 Cr ( 0.000000,  0.000000,  1.379215)
  18 Cr ( 0.000000,  0.000000,  1.932009)
  19 Ni ( 0.000000,  0.000000,  0.241453)
  20 Co ( 0.000000,  0.000000,  1.818690)
  21 Ni ( 0.000000,  0.000000,  0.260277)
  22 Cr ( 0.000000,  0.000000, -2.132034)
  23 Ni ( 0.000000,  0.000000,  0.038962)
  24 Ni ( 0.000000,  0.000000,  0.206908)
  25 Fe ( 0.000000,  0.000000,  2.457048)
  26 Co ( 0.000000,  0.000000,  0.871926)
  27 Fe ( 0.000000,  0.000000,  2.107447)
  28 Al ( 0.000000,  0.000000, -0.027866)
  29 Fe ( 0.000000,  0.000000, -2.050631)
  30 Cr ( 0.000000,  0.000000, -2.029952)
  31 Cr ( 0.000000,  0.000000,  0.158604)
  32 Al ( 0.000000,  0.000000, -0.033803)
  33 Fe ( 0.000000,  0.000000,  2.027026)
  34 Fe ( 0.000000,  0.000000,  2.292389)
  35 Co ( 0.000000,  0.000000,  0.597707)
  36 Al ( 0.000000,  0.000000, -0.020153)
  37 Ni ( 0.000000,  0.000000,  0.219774)
  38 Cr ( 0.000000,  0.000000,  0.288076)
  39 Fe ( 0.000000,  0.000000,  2.155349)
  40 Al ( 0.000000,  0.000000, -0.008674)
  41 Al ( 0.000000,  0.000000, -0.011647)
  42 Cr ( 0.000000,  0.000000,  0.679425)
  43 Al ( 0.000000,  0.000000, -0.020200)
  44 Fe ( 0.000000,  0.000000,  2.407230)
  45 Cr ( 0.000000,  0.000000, -1.081034)
  46 Al ( 0.000000,  0.000000, -0.024314)
  47 Fe ( 0.000000,  0.000000,  1.502320)
  48 Cr ( 0.000000,  0.000000, -1.961028)
  49 Co ( 0.000000,  0.000000,  0.617880)
  50 Ni ( 0.000000,  0.000000,  0.356790)
  51 Co ( 0.000000,  0.000000,  1.255007)
  52 Ni ( 0.000000,  0.000000,  0.460773)
  53 Co ( 0.000000,  0.000000,  1.089968)
  54 Co ( 0.000000,  0.000000,  1.166389)
  55 Fe ( 0.000000,  0.000000,  2.258046)
  56 Fe ( 0.000000,  0.000000,  2.152780)
  57 Ni ( 0.000000,  0.000000,  0.394236)
  58 Al ( 0.000000,  0.000000, -0.040635)
  59 Co ( 0.000000,  0.000000,  1.108790)
  60 Al ( 0.000000,  0.000000, -0.037211)
  61 Co ( 0.000000,  0.000000,  1.113306)
  62 Co ( 0.000000,  0.000000,  1.136081)
  63 Al ( 0.000000,  0.000000, -0.039844)
  64 Ni ( 0.000000,  0.000000,  0.290496)
  65 Ni ( 0.000000,  0.000000, -0.054404)
  66 Ni ( 0.000000,  0.000000,  0.129934)
  67 Co ( 0.000000,  0.000000,  0.878944)
  68 Fe ( 0.000000,  0.000000,  2.167454)
  69 Cr ( 0.000000,  0.000000, -1.670612)
  70 Cr ( 0.000000,  0.000000, -0.870301)
  71 Cr ( 0.000000,  0.000000,  1.232711)
  72 Ni ( 0.000000,  0.000000,  0.322977)
  73 Ni ( 0.000000,  0.000000,  0.226145)
  74 Fe ( 0.000000,  0.000000,  1.778550)
  75 Co ( 0.000000,  0.000000,  1.221125)
  76 Ni ( 0.000000,  0.000000,  0.548436)
  77 Co ( 0.000000,  0.000000,  1.325118)
  78 Fe ( 0.000000,  0.000000,  2.114935)
  79 Fe ( 0.000000,  0.000000,  1.932787)
  80 Ni ( 0.000000,  0.000000,  0.412874)
  81 Fe ( 0.000000,  0.000000,  2.415455)
  82 Al ( 0.000000,  0.000000, -0.067369)
  83 Co ( 0.000000,  0.000000,  0.926760)
  84 Cr ( 0.000000,  0.000000,  0.855164)
  85 Cr ( 0.000000,  0.000000,  1.286947)
  86 Fe ( 0.000000,  0.000000,  1.990759)
  87 Fe ( 0.000000,  0.000000,  2.212977)
  88 Co ( 0.000000,  0.000000,  1.089894)
  89 Fe ( 0.000000,  0.000000,  1.990292)
  90 Cr ( 0.000000,  0.000000, -1.165218)
  91 Co ( 0.000000,  0.000000,  0.923850)
  92 Al ( 0.000000,  0.000000, -0.051932)
  93 Al ( 0.000000,  0.000000, -0.039115)
  94 Cr ( 0.000000,  0.000000,  1.116360)
  95 Cr ( 0.000000,  0.000000, -0.810590)
  96 Co ( 0.000000,  0.000000,  1.212038)
  97 Fe ( 0.000000,  0.000000,  2.300711)
  98 Co ( 0.000000,  0.000000,  0.999432)
  99 Ni ( 0.000000,  0.000000,  0.320319)
 100 Fe ( 0.000000,  0.000000,  2.569010)
 101 Ni ( 0.000000,  0.000000,  0.587911)
 102 Fe ( 0.000000,  0.000000,  2.559362)
 103 Ni ( 0.000000,  0.000000,  0.318869)
 104 Co ( 0.000000,  0.000000,  1.176180)
 105 Ni ( 0.000000,  0.000000,  0.520981)
 106 Ni ( 0.000000,  0.000000,  0.617461)
 107 Al ( 0.000000,  0.000000, -0.045008)
 108 Cr ( 0.000000,  0.000000, -2.291957)
 109 Cr ( 0.000000,  0.000000, -2.241383)
 110 Ni ( 0.000000,  0.000000,  0.330920)
 111 Fe ( 0.000000,  0.000000,  2.537606)
 112 Fe ( 0.000000,  0.000000,  2.092155)
 113 Al ( 0.000000,  0.000000, -0.022789)
 114 Co ( 0.000000,  0.000000,  1.308341)
 115 Cr ( 0.000000,  0.000000, -2.436621)
 116 Al ( 0.000000,  0.000000, -0.065512)
 117 Fe ( 0.000000,  0.000000,  2.384570)
 118 Fe ( 0.000000,  0.000000,  2.217833)
 119 Cr ( 0.000000,  0.000000, -1.941433)
 120 Fe ( 0.000000,  0.000000,  2.324616)
 121 Ni ( 0.000000,  0.000000,  0.526467)
 122 Co ( 0.000000,  0.000000,  1.136995)
 123 Cr ( 0.000000,  0.000000, -2.428372)
 124 Co ( 0.000000,  0.000000,  0.984723)

Energy contributions relative to reference atoms: (reference = -3927717.499734)

Kinetic:       +385.245523
Potential:     -371.004774
External:        +0.000000
XC:            -969.895588
Entropy (-ST):   -5.181597
Local:          +38.227337
--------------------------
Free energy:   -922.609100
Extrapolated:  -920.018301

Dipole-layer corrected work functions: 4.844283, 4.861830 eV

Spin contamination: 38.855112 electrons
Showing all kpts
                      Up                     Down
 Kpt  Band  Eigenvalues  Occupancy  Eigenvalues  Occupancy
  0   547     -0.06944    0.99546      0.82951    0.02662
  0   548     -0.06648    0.99532      0.84697    0.02245
  0   549     -0.05375    0.99469      0.84927    0.02195
  0   550     -0.03259    0.99345      0.86578    0.01867

  1   547     -0.05992    0.99501      0.83730    0.02468
  1   548     -0.04956    0.99447      0.84809    0.02221
  1   549     -0.03618    0.99368      0.86027    0.01971
  1   550     -0.02501    0.99294      0.86961    0.01798


Fermi level: 0.46960

No gap

Forces in eV/Ang:
  0 Ni   -0.28702   -0.32658    0.53882
  1 Cr   -0.15117    0.07845    0.03126
  2 Cr    0.57119   -0.39303    0.66163
  3 Fe   -0.00969   -0.61893   -0.74236
  4 Al    0.45113   -0.33742   -0.82245
  5 Co   -0.12887   -0.09964    0.47017
  6 Cr   -0.68903    0.31063   -0.17573
  7 Cr   -0.44974   -0.12648   -1.47918
  8 Ni   -0.14565    0.24098   -0.35451
  9 Co    0.47939   -0.04826    0.63149
 10 Ni   -0.18230    0.08321    0.35239
 11 Co    0.17420    0.01252    0.23399
 12 Al   -0.43835   -0.16135   -1.12725
 13 Cr   -0.00371   -0.35803   -0.92217
 14 Ni    0.22779   -0.13903    0.17783
 15 Ni    0.23717    0.48693   -0.27439
 16 Co   -0.32653    0.29714   -0.08431
 17 Cr   -0.01622   -0.21079   -0.58112
 18 Cr    0.75725    0.47440   -1.02974
 19 Ni    0.02565    0.29494    0.30604
 20 Co    0.01596   -0.04846    1.69651
 21 Ni   -0.93617    0.13057    0.01867
 22 Cr    0.24917   -0.15591    0.34406
 23 Ni    0.26932    0.05750   -0.07988
 24 Ni    0.59342    0.11142    0.82110
 25 Fe   -0.41887    1.13733   -0.34418
 26 Co    0.22985    0.47817    0.32181
 27 Fe   -0.87248   -0.51090    0.15339
 28 Al    0.27780   -0.21217    0.06440
 29 Fe    1.07814   -0.16577    0.31639
 30 Cr   -0.27660   -0.01907   -0.25232
 31 Cr   -1.03457   -0.78312   -0.24521
 32 Al    0.27940   -0.82979    0.81676
 33 Fe    0.57688    0.00476   -0.14410
 34 Fe    0.90990   -0.45334   -0.35056
 35 Co   -0.38057   -0.07900   -0.27535
 36 Al    0.29343   -0.37192    0.36594
 37 Ni   -0.09418    0.49316    0.47400
 38 Cr   -0.53038   -0.36093   -1.18578
 39 Fe    0.55391   -0.58670   -0.42632
 40 Al   -1.84970    0.80434   -0.98679
 41 Al    1.12011   -0.46206    0.97301
 42 Cr    1.00982   -0.19112    1.01016
 43 Al    0.64096    0.21820    0.88190
 44 Fe   -0.16680   -0.03649    0.32724
 45 Cr   -0.55159    1.98171   -0.77235
 46 Al   -0.22351    0.87397    0.19161
 47 Fe    0.41251    0.43305    0.68980
 48 Cr   -0.65858   -0.52398    0.24577
 49 Co    0.21926   -0.43920   -0.21512
 50 Ni   -0.06865    0.15639   -0.25316
 51 Co    0.22714   -0.14342   -0.22156
 52 Ni   -0.61871   -0.24416   -0.13084
 53 Co    0.25424   -0.05995   -0.02945
 54 Co    0.38168   -0.13264   -0.46715
 55 Fe   -0.82604   -0.57232    0.00202
 56 Fe   -0.03755   -0.15953    0.15452
 57 Ni   -0.24550    0.29459   -0.06731
 58 Al   -0.71624   -1.12427   -0.25565
 59 Co    0.27287   -0.25919    0.15134
 60 Al    0.26354   -0.37885    0.60767
 61 Co    0.57038    0.17617   -0.07426
 62 Co   -0.66376    0.50382   -0.14311
 63 Al    0.83585    0.93791    0.57744
 64 Ni   -0.20003    0.11714    0.12920
 65 Ni    0.33262    0.05000    0.10490
 66 Ni   -0.57096   -0.50251   -0.13880
 67 Co   -0.07878    0.28894   -0.04691
 68 Fe    0.30504    0.70777   -0.42443
 69 Cr   -1.38471    1.05941    0.14170
 70 Cr   -0.17381   -0.12116    0.23480
 71 Cr    0.70612    0.36620   -0.27987
 72 Ni    0.29064   -0.31675   -0.63912
 73 Ni   -0.22481   -0.34665    0.02638
 74 Fe   -0.00146   -0.26954   -0.21785
 75 Co    0.19662    0.06154   -0.22960
 76 Ni   -0.10260    0.35609    0.02335
 77 Co   -0.25108   -0.00814   -0.39688
 78 Fe    0.28847   -0.39642   -0.44319
 79 Fe    0.21719   -0.34417    0.54911
 80 Ni   -0.24870   -0.02286    0.29673
 81 Fe   -0.47096   -0.33134    0.78069
 82 Al    0.28951    0.90680   -1.24518
 83 Co    0.13737    0.19232    0.22172
 84 Cr    0.75355   -0.21076    1.27627
 85 Cr   -0.26899    0.18123    1.08881
 86 Fe   -0.13689    0.10654   -0.27604
 87 Fe    0.23670   -0.20479   -0.86125
 88 Co   -0.38098   -0.35739   -0.18345
 89 Fe    0.17429   -0.55534   -0.11107
 90 Cr    0.20239    0.03855    0.10566
 91 Co   -0.55976    0.09810   -0.55971
 92 Al   -1.18736   -0.01372   -0.39662
 93 Al    0.13660    0.26996   -1.54870
 94 Cr    0.92297    0.57700   -0.16076
 95 Cr   -0.06662    0.07530    0.12734
 96 Co   -0.19901    0.24532    0.12914
 97 Fe    0.18916    0.37082   -0.15100
 98 Co   -0.20175    0.15726   -0.15341
 99 Ni    0.15515   -0.31610    0.18610
100 Fe    0.13235    0.22823    0.19692
101 Ni   -0.15324   -0.19519   -0.09870
102 Fe   -0.37876   -0.50079   -0.13554
103 Ni    0.19460   -0.01891    0.09092
104 Co   -0.12663   -0.29513   -0.09406
105 Ni    0.16131    0.48298   -0.44204
106 Ni   -0.02305    0.29721    0.23158
107 Al   -0.64875   -0.32022    1.95381
108 Cr    0.18095    0.01579    0.08902
109 Cr    0.72075   -0.07563   -0.20055
110 Ni    0.18890   -0.04312   -1.50612
111 Fe   -0.88010    0.29623   -0.41813
112 Fe   -0.22463   -0.28274    0.16722
113 Al    0.15712    0.35895    0.46657
114 Co    0.45422   -0.21012   -0.32193
115 Cr   -0.46534   -0.63476    0.41564
116 Al    0.50311    0.05968    1.30904
117 Fe    0.51051   -0.23824    0.44688
118 Fe   -0.03819   -0.34384    0.57740
119 Cr    0.32468   -0.87898   -0.04861
120 Fe   -0.34840    0.24622   -0.20125
121 Ni    0.00788    0.31368    0.11339
122 Co   -0.19428    0.20456    0.01920
123 Cr    0.29229    0.70147    0.83968
124 Co    0.36444   -0.02642   -0.50287

Timing:                              incl.     excl.
-----------------------------------------------------------
Forces:                             45.538    45.538   0.2% |
Hamiltonian:                         2.174     0.018   0.0% |
 Atomic:                             0.395     0.002   0.0% |
  XC Correction:                     0.393     0.393   0.0% |
 Calculate atomic Hamiltonians:      1.091     1.091   0.0% |
 Communicate:                        0.112     0.112   0.0% |
 Initialize Hamiltonian:             0.001     0.001   0.0% |
 Poisson:                            0.137     0.137   0.0% |
 XC 3D grid:                         0.420     0.420   0.0% |
LCAO initialization:               358.221     0.572   0.0% |
 LCAO eigensolver:                  15.924     0.012   0.0% |
  Calculate projections:             0.000     0.000   0.0% |
  DenseAtomicCorrection:             0.000     0.000   0.0% |
  Distribute overlap matrix:        10.784    10.784   0.0% |
  Orbital Layouts:                   5.097     5.097   0.0% |
  Potential matrix:                  0.003     0.003   0.0% |
  Sum over cells:                    0.028     0.028   0.0% |
 LCAO to grid:                     339.132   339.132   1.2% |
 Set positions (LCAO WFS):           2.593     2.276   0.0% |
  Basic WFS set positions:           0.004     0.004   0.0% |
  Basis functions set positions:     0.001     0.001   0.0% |
  P tci:                             0.000     0.000   0.0% |
  ST tci:                            0.122     0.122   0.0% |
  mktci:                             0.191     0.191   0.0% |
PWDescriptor:                        0.279     0.279   0.0% |
SCF-cycle:                       27721.430     2.102   0.0% |
 Davidson:                       26672.074  8717.199  31.0% |-----------|
  Apply H:                         590.939   580.553   2.1% ||
   HMM T:                           10.386    10.386   0.0% |
  Subspace diag:                  2933.677     0.068   0.0% |
   calc_h_matrix:                 1289.376   739.390   2.6% ||
    Apply H:                       549.987   540.164   1.9% ||
     HMM T:                          9.823     9.823   0.0% |
   diagonalize:                    227.178   227.178   0.8% |
   rotate_psi:                    1417.054  1417.054   5.0% |-|
  calc. matrices:                 6834.751  5805.273  20.6% |-------|
   Apply H:                       1029.478  1010.610   3.6% ||
    HMM T:                          18.868    18.868   0.1% |
  diagonalize:                    4597.114  4597.114  16.3% |------|
  rotate_psi:                     2998.394  2998.394  10.7% |---|
 Density:                          591.603     0.007   0.0% |
  Atomic density matrices:           5.059     5.059   0.0% |
  Mix:                             300.936   300.936   1.1% |
  Multipole moments:                 0.176     0.176   0.0% |
  Pseudo density:                  285.425   285.417   1.0% |
   Symmetrize density:               0.008     0.008   0.0% |
 Hamiltonian:                      434.439     2.395   0.0% |
  Atomic:                           69.371     0.251   0.0% |
   XC Correction:                   69.120    69.120   0.2% |
  Calculate atomic Hamiltonians:   265.085   265.085   0.9% |
  Communicate:                      17.824    17.824   0.1% |
  Poisson:                           8.174     8.174   0.0% |
  XC 3D grid:                       71.591    71.591   0.3% |
 Orthonormalize:                    21.212     0.001   0.0% |
  calc_s_matrix:                     2.505     2.505   0.0% |
  inverse-cholesky:                  0.801     0.801   0.0% |
  projections:                      13.772    13.772   0.0% |
  rotate_psi_s:                      4.133     4.133   0.0% |
Set symmetry:                        0.001     0.001   0.0% |
Other:                               9.378     9.378   0.0% |
-----------------------------------------------------------
Total:                                     28137.020 100.0%

Date: Wed Apr 19 16:29:17 2023
