
  ___ ___ ___ _ _ _  
 |   |   |_  | | | | 
 | | | | | . | | | | 
 |__ |  _|___|_____|  22.8.0
 |___|_|             

User:   c.zeng@d0035
Date:   Mon Apr 17 06:09:23 2023
Arch:   x86_64
Pid:    50782
CWD:    /home/c.zeng/projects/hea-corrosion/hea-mlp/data-curation/surface-md/dft-jobs/28
Python: 3.8.1
gpaw:   /home/c.zeng/usr/installs/gpaw/source/gpaw-22.8.0/gpaw
_gpaw:  /home/c.zeng/usr/installs/gpaw/source/gpaw-22.8.0/
        _gpaw.cpython-38-x86_64-linux-gnu.so
ase:    /home/c.zeng/.local/lib/python3.8/site-packages/ase-3.22.1-py3.8.egg/ase (version 3.22.1)
numpy:  /home/c.zeng/.local/lib/python3.8/site-packages/numpy (version 1.24.2)
scipy:  /home/c.zeng/.local/lib/python3.8/site-packages/scipy (version 1.10.1)
libxc:  4.2.3
units:  Angstrom and eV
cores: 30
OpenMP: False
OMP_NUM_THREADS: 1

Input parameters:
  convergence: {energy: 0.0001}
  kpts: [2 2 1]
  maxiter: 666
  mode: {ecut: 350.0,
         name: pw}
  occupations: {fixmagmom: False,
                name: fermi-dirac,
                width: 0.1}
  poissonsolver: {dipolelayer: xy}
  spinpol: True
  symmetry: {point_group: False}
  xc: PBE

System changes: positions, numbers, cell, pbc, initial_charges, initial_magmoms 

Initialize ...

species:
  Ni:
    name: Nickel
    id: 0d9f38a9d6e76a2886f07bb4381f212b
    Z: 28.0
    valence: 16
    core: 12
    charge: 0.0
    file: /home/c.zeng/usr/data/gpaw-setups-0.9.20000/Ni.PBE.gz
    compensation charges: {type: gauss,
                           rc: 0.36,
                           lmax: 2}
    cutoffs: {filter: 2.14,
              core: 1.98}
    valence states:
      #              energy  rcut
      - 4s(2.00)    -5.642   1.164
      - 3p(6.00)   -71.394   1.207
      - 4p(0.00)    -1.226   1.207
      - 3d(8.00)    -8.875   1.138
      -  s          21.570   1.164
      -  d          18.337   1.138
  
    # Using partial waves for Ni as LCAO basis

  Fe:
    name: Iron
    id: 37abbd8d6c3c35915a9b583b742da910
    Z: 26.0
    valence: 8
    core: 18
    charge: 0.0
    file: /home/c.zeng/usr/data/gpaw-setups-0.9.20000/Fe.PBE.gz
    compensation charges: {type: gauss,
                           rc: 0.33,
                           lmax: 2}
    cutoffs: {filter: 2.06,
              core: 2.67}
    valence states:
      #              energy  rcut
      - 4s(2.00)    -5.291   1.164
      - 4p(0.00)    -1.326   1.058
      - 3d(6.00)    -7.505   1.058
      -  s          21.920   1.164
      -  p          25.885   1.058
      -  d          19.706   1.058
  
    # Using partial waves for Fe as LCAO basis

  Co:
    name: Cobalt
    id: 339d20d5b0b93d2de9531a1bee871d91
    Z: 27.0
    valence: 9
    core: 18
    charge: 0.0
    file: /home/c.zeng/usr/data/gpaw-setups-0.9.20000/Co.PBE.gz
    compensation charges: {type: gauss,
                           rc: 0.32,
                           lmax: 2}
    cutoffs: {filter: 1.87,
              core: 2.55}
    valence states:
      #              energy  rcut
      - 4s(2.00)    -5.469   1.005
      - 4p(0.00)    -1.277   1.058
      - 3d(7.00)    -8.205   1.005
      -  s          21.742   1.005
      -  p          25.934   1.058
      -  d          19.007   1.005
  
    # Using partial waves for Co as LCAO basis

  Cr:
    name: Chromium
    id: 33f258bda2ca9f93018e70263a35547b
    Z: 24.0
    valence: 6
    core: 18
    charge: 0.0
    file: /home/c.zeng/usr/data/gpaw-setups-0.9.20000/Cr.PBE.gz
    compensation charges: {type: gauss,
                           rc: 0.35,
                           lmax: 2}
    cutoffs: {filter: 2.14,
              core: 3.04}
    valence states:
      #              energy  rcut
      - 4s(1.00)    -4.007   1.164
      - 4p(0.00)    -0.989   1.217
      - 3d(5.00)    -2.913   1.111
      -  s          23.205   1.164
      -  p          26.223   1.217
      -  d          24.299   1.111
  
    # Using partial waves for Cr as LCAO basis

  Al:
    name: Aluminium
    id: 0292cae29f5d6237e50f6abdd43a7bdd
    Z: 13.0
    valence: 3
    core: 10
    charge: 0.0
    file: /home/c.zeng/usr/data/gpaw-setups-0.9.20000/Al.PBE.gz
    compensation charges: {type: gauss,
                           rc: 0.34,
                           lmax: 2}
    cutoffs: {filter: 1.91,
              core: 2.36}
    valence states:
      #              energy  rcut
      - 3s(2.00)    -7.753   1.085
      - 3p(1.00)    -2.712   1.085
      -  s          19.459   1.085
      -  p          24.499   1.085
      -  d           0.000   1.085
  
    # Using partial waves for Al as LCAO basis

Reference energy: -4275894.041763  # eV

Spin-polarized calculation.
Magnetic moment: 165.900000

Convergence criteria:
 Maximum [total energy] change in last 3 cyles: 0.0001 eV / electron
 Maximum integral of absolute [dens]ity change: 0.0001 electrons / valence electron
 Maximum integral of absolute [eigenst]ate change: 4e-08 eV^2 / valence electron
 Maximum number of scf [iter]ations: 666
 (Square brackets indicate name in SCF output, whereas a 'c' in
 the SCF output indicates the quantity has converged.)

Symmetries present (total): 1

  ( 1  0  0)
  ( 0  1  0)
  ( 0  0  1)

4 k-points: 2 x 2 x 1 Monkhorst-Pack grid
2 k-points in the irreducible part of the Brillouin zone
       k-points in crystal coordinates                weights
   0:     0.25000000   -0.25000000    0.00000000          2/4
   1:     0.25000000    0.25000000    0.00000000          2/4

Wave functions: Plane wave expansion
  Cutoff energy: 350.000 eV
  Number of coefficients (min, max): 58901, 58943
  Pulay-stress correction: 0.000000 eV/Ang^3 (de/decut=0.000000)
  Using FFTW library
  ScaLapack parameters: grid=1x1, blocksize=None
  Wavefunction extrapolation:
    Improved wavefunction reuse through dual PAW basis 

Occupation numbers: Fermi-Dirac:
  width: 0.1000  # eV
 

Eigensolver
   Davidson(niter=2) 

Densities:
  Coarse grid: 54*54*128 grid
  Fine grid: 108*108*256 grid
  Total Charge: 0.000000 

Density mixing:
  Method: difference
  Backend: pulay
  Linear mixing parameter: 0.05
  old densities: 5
  Damping of long wavelength oscillations: 50 

Hamiltonian:
  XC and Coulomb potentials evaluated on a 108*108*256 grid
  Using the PBE Exchange-Correlation functional
  External potential:
    NoExternalPotential
 

XC parameters: PBE with 2 nearest neighbor stencil

Memory estimate:
  Process memory now: 369.93 MiB
  Calculator: 2335.53 MiB
    Density: 17.84 MiB
      Arrays: 6.75 MiB
      Localized functions: 8.39 MiB
      Mixer: 2.70 MiB
    Hamiltonian: 5.27 MiB
      Arrays: 5.01 MiB
      XC: 0.00 MiB
      Poisson: 0.00 MiB
      vbar: 0.25 MiB
    Wavefunctions: 2312.43 MiB
      Arrays psit_nG: 1458.82 MiB
      Eigensolver: 834.29 MiB
      Projections: 3.66 MiB
      Projectors: 1.14 MiB
      PW-descriptor: 14.51 MiB

Total number of cores used: 30
Parallelization over k-points: 2
Domain decomposition: 1 x 3 x 5

Number of atoms: 125
Number of atomic orbitals: 1185
Number of bands in calculation: 811
Number of valence electrons: 1179
Bands to converge: occupied

... initialized

Initializing position-dependent things.

Density initialized from atomic densities
Creating initial wave functions:
  811 bands from LCAO basis set

                                                                  
                                                                  
                                                                  
                                                                  
                                                      Ni          
                              Co                                  
                                Ni   Co    Cr     Co   Cr         
                            Cr        Cr   Al     Fe    Fe        
                                CNi    Co    Cr     Fe            
                           Cr    Cr    Cr     Ni    Fe            
                 Co    Cr    Co    Fe    Al    Fe    Ni           
              Fe   Ni  NCCr  CFe   CNi    Ni    Cr                
             Co   Co     Ni   Feo   Co    Al    Co                
                   Fe    Cr     Fe    Fe    Coo   Cr              
                   Fe     Ni    Ni    NNi   Fe  Ni  Co            
               Ni    Fe    Nio   Fee    Ni    Cr                  
                Ni   FeCr  CrCo    Co   Cr      Ni    Co          
                             Fe    Fe   NCr     Ni                
           Co     Ni   CoFe   Fe   Cor           Cr               
            Fe    Cr Al  Cr    Ni      Cr  Fe                     
              Co          Ni    Co          Ni                    
        Al     Ni    Ni         Co                                
                           Fe     Cr    Co                        
                 Co                                               
           Fe          Fe    Co     Ni                            
                                                                  
                                                                  
                                                                  
                                                                  

Positions:
   0 Ni    11.738200    0.004521    9.444407    ( 0.0000,  0.0000,  1.5000)
   1 Fe     1.621487    0.099205    9.174062    ( 0.0000,  0.0000,  2.0000)
   2 Co     4.093063    0.032966    9.647670    ( 0.0000,  0.0000,  2.1000)
   3 Fe     6.733132   -0.448022    9.196144    ( 0.0000,  0.0000,  2.0000)
   4 Co     9.017982    0.329423    9.398093    ( 0.0000,  0.0000,  2.1000)
   5 Co    12.634668    2.952069    9.628383    ( 0.0000,  0.0000,  2.1000)
   6 Ni     2.623221    2.272329   10.317418    ( 0.0000,  0.0000,  1.5000)
   7 Fe     5.200427    2.382833   10.060174    ( 0.0000,  0.0000,  2.0000)
   8 Fe     7.685677    2.345782    9.988308    ( 0.0000,  0.0000,  2.0000)
   9 Cr    10.387640    2.449615    9.803586    ( 0.0000,  0.0000,  0.0000)
  10 Ni    14.151629    4.576618   10.504531    ( 0.0000,  0.0000,  1.5000)
  11 Al     4.500021    4.874424   10.480247    ( 0.0000,  0.0000,  0.0000)
  12 Ni     6.701970    4.424823   10.454847    ( 0.0000,  0.0000,  1.5000)
  13 Co     9.123636    4.541844   10.198759    ( 0.0000,  0.0000,  2.1000)
  14 Cr    11.678768    5.071324   10.419248    ( 0.0000,  0.0000,  0.0000)
  15 Cr    15.461104    7.170938   10.693017    ( 0.0000,  0.0000,  0.0000)
  16 Fe     5.429879    6.987025   10.770760    ( 0.0000,  0.0000,  2.0000)
  17 Fe     7.712373    6.823434   10.661352    ( 0.0000,  0.0000,  2.0000)
  18 Cr    10.038744    6.746347   10.561951    ( 0.0000,  0.0000,  0.0000)
  19 Fe    13.133935    6.934443   10.064667    ( 0.0000,  0.0000,  2.0000)
  20 Co    16.869813    9.277850   10.679538    ( 0.0000,  0.0000,  2.1000)
  21 Co     6.742469    9.061088   10.969015    ( 0.0000,  0.0000,  2.1000)
  22 Co     9.114995    8.926506   10.946157    ( 0.0000,  0.0000,  2.1000)
  23 Ni    11.421675    8.948969   10.679488    ( 0.0000,  0.0000,  1.5000)
  24 Ni    14.235024    9.338170   10.682350    ( 0.0000,  0.0000,  1.5000)
  25 Al     0.179737    0.982355   11.460767    ( 0.0000,  0.0000,  0.0000)
  26 Co     2.604380    0.461853   12.052400    ( 0.0000,  0.0000,  2.1000)
  27 Ni     5.495209    0.513286   11.333758    ( 0.0000,  0.0000,  1.5000)
  28 Ni    13.936422   11.440902   11.813621    ( 0.0000,  0.0000,  1.5000)
  29 Co    10.158026    0.717223   11.556237    ( 0.0000,  0.0000,  2.1000)
  30 Fe     1.451806    2.864551   12.201811    ( 0.0000,  0.0000,  2.0000)
  31 Cr     3.898879    2.509626   12.191960    ( 0.0000,  0.0000,  0.0000)
  32 Cr     6.568397    2.646555   12.270666    ( 0.0000,  0.0000,  0.0000)
  33 Ni     8.941596    2.793643   11.930890    ( 0.0000,  0.0000,  1.5000)
  34 Cr    11.260897    2.988623   12.337242    ( 0.0000,  0.0000,  0.0000)
  35 Ni    15.421639    4.812457   12.445299    ( 0.0000,  0.0000,  1.5000)
  36 Cr     5.188642    5.007758   12.880211    ( 0.0000,  0.0000,  0.0000)
  37 Fe     7.702360    5.062031   12.375115    ( 0.0000,  0.0000,  2.0000)
  38 Fe    10.334359    5.144236   12.645684    ( 0.0000,  0.0000,  2.0000)
  39 Cr    12.849323    5.041069   12.490265    ( 0.0000,  0.0000,  0.0000)
  40 Co    16.472572    7.519858   13.204807    ( 0.0000,  0.0000,  2.1000)
  41 Co     6.670387    7.277302   12.838683    ( 0.0000,  0.0000,  2.1000)
  42 Co     9.036509    7.290711   12.671576    ( 0.0000,  0.0000,  2.1000)
  43 Ni    11.668944    7.438412   12.801554    ( 0.0000,  0.0000,  1.5000)
  44 Cr    14.074854    7.224825   12.537215    ( 0.0000,  0.0000,  0.0000)
  45 Al     5.234259    9.599144   12.767456    ( 0.0000,  0.0000,  0.0000)
  46 Fe     7.818269    9.453344   12.986416    ( 0.0000,  0.0000,  2.0000)
  47 Cr    10.265771    9.701850   13.256199    ( 0.0000,  0.0000,  0.0000)
  48 Co    13.024873    9.522389   12.957534    ( 0.0000,  0.0000,  2.1000)
  49 Cr    15.357720    9.576055   13.008771    ( 0.0000,  0.0000,  0.0000)
  50 Co     1.454602    0.871733   14.000263    ( 0.0000,  0.0000,  2.1000)
  51 Ni     4.137244    1.043604   13.972549    ( 0.0000,  0.0000,  1.5000)
  52 Co     6.399718    0.867277   14.009187    ( 0.0000,  0.0000,  2.1000)
  53 Fe     8.972640    0.951205   14.192062    ( 0.0000,  0.0000,  2.0000)
  54 Co    11.353078    0.927878   13.834552    ( 0.0000,  0.0000,  2.1000)
  55 Ni     2.769683    3.449301   14.286046    ( 0.0000,  0.0000,  1.5000)
  56 Fe     5.117729    3.203673   14.524947    ( 0.0000,  0.0000,  2.0000)
  57 Cr     7.556179    3.132271   14.382154    ( 0.0000,  0.0000,  0.0000)
  58 Fe    10.094429    3.429486   14.514025    ( 0.0000,  0.0000,  2.0000)
  59 Cr    12.678437    3.186187   14.273764    ( 0.0000,  0.0000,  0.0000)
  60 Fe     3.665232    5.642682   14.877899    ( 0.0000,  0.0000,  2.0000)
  61 Ni     6.521955    5.263997   14.801219    ( 0.0000,  0.0000,  1.5000)
  62 Ni     8.875118    5.454020   14.700187    ( 0.0000,  0.0000,  1.5000)
  63 Ni    11.200879    5.537889   14.853968    ( 0.0000,  0.0000,  1.5000)
  64 Fe    13.898406    5.436267   14.726261    ( 0.0000,  0.0000,  2.0000)
  65 Ni     5.308988    7.525637   15.010651    ( 0.0000,  0.0000,  1.5000)
  66 Cr     7.813978    7.403911   14.938829    ( 0.0000,  0.0000,  0.0000)
  67 Co    10.117672    7.645747   14.760973    ( 0.0000,  0.0000,  2.1000)
  68 Al    12.665653    7.355798   15.078300    ( 0.0000,  0.0000,  0.0000)
  69 Co    14.952482    7.744137   15.054755    ( 0.0000,  0.0000,  2.1000)
  70 Co     6.430898    9.686524   14.998217    ( 0.0000,  0.0000,  2.1000)
  71 Cr     8.987571    9.967880   14.987412    ( 0.0000,  0.0000,  0.0000)
  72 Ni    11.432254   10.111172   15.233241    ( 0.0000,  0.0000,  1.5000)
  73 Fe    13.832947    9.924348   15.689921    ( 0.0000,  0.0000,  2.0000)
  74 Ni    16.257742    9.771593   15.280255    ( 0.0000,  0.0000,  1.5000)
  75 Ni    12.715773    1.694964   16.393693    ( 0.0000,  0.0000,  1.5000)
  76 Ni     2.775115    1.532753   15.896823    ( 0.0000,  0.0000,  1.5000)
  77 Fe     5.140358    1.581878   16.118656    ( 0.0000,  0.0000,  2.0000)
  78 Ni     7.640479    1.529208   16.212061    ( 0.0000,  0.0000,  1.5000)
  79 Fe    10.381678    1.552317   16.076502    ( 0.0000,  0.0000,  2.0000)
  80 Co    14.186685    3.631336   16.533699    ( 0.0000,  0.0000,  2.1000)
  81 Fe     3.986813    3.617786   16.534903    ( 0.0000,  0.0000,  2.0000)
  82 Cr     6.451902    3.327535   16.719379    ( 0.0000,  0.0000,  0.0000)
  83 Co     9.004784    3.640046   16.862489    ( 0.0000,  0.0000,  2.1000)
  84 Fe    11.564611    3.717092   16.723286    ( 0.0000,  0.0000,  2.0000)
  85 Cr    15.331199    5.862137   17.074720    ( 0.0000,  0.0000,  0.0000)
  86 Ni     5.161214    5.877658   16.851246    ( 0.0000,  0.0000,  1.5000)
  87 Fe     7.715082    6.082797   16.944456    ( 0.0000,  0.0000,  2.0000)
  88 Fe    10.203389    5.833509   17.049866    ( 0.0000,  0.0000,  2.0000)
  89 Ni    12.887718    5.566562   16.888215    ( 0.0000,  0.0000,  1.5000)
  90 Fe    16.217126    8.238953   16.986349    ( 0.0000,  0.0000,  2.0000)
  91 Cr     6.257150    8.177172   17.004009    ( 0.0000,  0.0000,  0.0000)
  92 Cr     8.754211    8.152180   17.546596    ( 0.0000,  0.0000,  0.0000)
  93 Cr    11.240903    8.103051   17.220849    ( 0.0000,  0.0000,  0.0000)
  94 Ni    13.987776    7.900899   17.640661    ( 0.0000,  0.0000,  1.5000)
  95 Fe    17.293171   10.597946   17.398109    ( 0.0000,  0.0000,  2.0000)
  96 Cr     7.500063   10.500523   16.856202    ( 0.0000,  0.0000,  0.0000)
  97 Cr     9.946025   10.381087   17.850436    ( 0.0000,  0.0000,  0.0000)
  98 Al    12.228947   10.353691   17.598964    ( 0.0000,  0.0000,  0.0000)
  99 Fe    14.988983   10.642819   17.580750    ( 0.0000,  0.0000,  2.0000)
 100 Co     6.560474   10.472038   19.090921    ( 0.0000,  0.0000,  2.1000)
 101 Fe     2.615869    0.370970   20.022336    ( 0.0000,  0.0000,  2.0000)
 102 Ni     5.070020    0.006151   19.874389    ( 0.0000,  0.0000,  1.5000)
 103 Cr     7.659552   -0.328478   19.799859    ( 0.0000,  0.0000,  0.0000)
 104 Ni    16.437710   10.900350   19.640027    ( 0.0000,  0.0000,  1.5000)
 105 Co     1.958826    1.582085   18.107808    ( 0.0000,  0.0000,  2.1000)
 106 Co     3.997322    2.072284   18.436928    ( 0.0000,  0.0000,  2.1000)
 107 Cr     6.621989    1.865327   18.748847    ( 0.0000,  0.0000,  0.0000)
 108 Fe     9.077424    1.938884   18.463012    ( 0.0000,  0.0000,  2.0000)
 109 Ni    11.579414    1.722346   18.644484    ( 0.0000,  0.0000,  1.5000)
 110 Co     3.044929    4.299948   18.793658    ( 0.0000,  0.0000,  2.1000)
 111 Cr     5.266484    4.441469   18.770892    ( 0.0000,  0.0000,  0.0000)
 112 Co     7.791682    4.248604   18.646304    ( 0.0000,  0.0000,  2.1000)
 113 Fe    10.255058    4.178889   18.774320    ( 0.0000,  0.0000,  2.0000)
 114 Al    12.842229    4.075073   18.767147    ( 0.0000,  0.0000,  0.0000)
 115 Fe    16.708403    6.388583   19.120115    ( 0.0000,  0.0000,  2.0000)
 116 Cr     6.809480    6.609826   19.455465    ( 0.0000,  0.0000,  0.0000)
 117 Ni     9.006507    6.309410   19.093465    ( 0.0000,  0.0000,  1.5000)
 118 Co    11.394508    6.360089   18.978437    ( 0.0000,  0.0000,  2.1000)
 119 Cr    14.080056    6.036259   19.442330    ( 0.0000,  0.0000,  0.0000)
 120 Cr    17.514403    8.748791   19.393691    ( 0.0000,  0.0000,  0.0000)
 121 Ni     7.811931    8.774911   19.699270    ( 0.0000,  0.0000,  1.5000)
 122 Co    10.315155    8.539308   19.601504    ( 0.0000,  0.0000,  2.1000)
 123 Cr    12.732586    8.234519   19.963414    ( 0.0000,  0.0000,  0.0000)
 124 Co    15.295136    8.524660   19.321779    ( 0.0000,  0.0000,  2.1000)

Unit cell:
           periodic     x           y           z      points  spacing
  1. axis:    yes   12.474800    0.000000    0.000000    54     0.2001
  2. axis:    yes    6.246240   10.818800    0.000000    54     0.2003
  3. axis:    no     0.000000    0.000000   29.353100   128     0.2293

  Lengths:  12.474800  12.492476  29.353100
  Angles:   90.000000  90.000000  59.999988

Effective grid spacing dv^(1/3) = 0.2198

     iter     time        total  log10-change:  magmom
                         energy  eigst   dens
iter:   1 06:19:36 -1224.244157                  +166.2219
iter:   2 06:23:16 -1070.278394  -0.05  -1.09    +88.6937
iter:   3 06:26:57 -1493.232210  -0.40  -1.11    +74.0528
iter:   4 06:30:37 -1945.249176  +0.36  -0.87    +66.9083
iter:   5 06:34:17 -1043.993730  -0.45  -0.78    +37.4631
iter:   6 06:37:58  -995.746566  -1.27  -1.20    +32.3923
iter:   7 06:41:39  -984.598819  -1.67  -1.26    +34.1964
iter:   8 06:45:21  -976.241713  -1.85  -1.29    +33.7708
iter:   9 06:49:02 -1066.677878  -0.78  -1.32    +38.0828
iter:  10 06:52:44 -1156.260532  -0.99  -1.15    +36.0103
iter:  11 06:56:25  -976.999261  -1.25  -1.05    +31.5812
iter:  12 07:00:07  -960.537388  -1.60  -1.36    +30.6579
iter:  13 07:03:48  -954.570039  -1.60  -1.45    +31.2104
iter:  14 07:07:28  -953.331250  -1.84  -1.51    +34.2852
iter:  15 07:11:09  -951.465509  -1.96  -1.49    +36.2454
iter:  16 07:14:50 -1547.025088  -0.57  -1.51    +38.8470
iter:  17 07:18:31  -938.399273  -1.04  -0.90    +37.0676
iter:  18 07:22:11  -939.454663  -1.90  -1.67    +38.5758
iter:  19 07:25:53  -941.310265  -2.36  -1.67    +43.6747
iter:  20 07:29:34  -939.249821  -2.32  -1.66    +47.2592
iter:  21 07:33:15  -938.808348  -2.76  -1.71    +49.5336
iter:  22 07:36:56 -1419.099374  -1.05  -1.74    +54.6303
iter:  23 07:40:37  -941.166725  -1.18  -0.93    +50.8599
iter:  24 07:44:17  -942.794884  -2.12  -1.71    +51.6646
iter:  25 07:47:58  -940.358811  -2.57  -1.71    +55.4296
iter:  26 07:51:37  -954.232269  -2.33  -1.78    +59.7879
iter:  27 07:55:17  -940.795323  -2.53  -1.59    +60.2814
iter:  28 07:58:58  -988.869164  -1.86  -1.83    +62.3435
iter:  29 08:02:39  -940.940905  -2.16  -1.36    +64.9167
iter:  30 08:06:20  -945.903198  -2.48  -1.90    +68.2365
iter:  31 08:10:00  -943.253319  -2.81  -1.79    +69.3699
iter:  32 08:13:41  -947.838833  -2.44  -1.91    +70.8041
iter:  33 08:17:22  -943.537554  -2.47  -1.85    +70.9759
iter:  34 08:21:03  -992.412960  -1.85  -2.00    +71.6587
iter:  35 08:24:44  -943.672658  -2.29  -1.38    +73.2641
iter:  36 08:28:25  -943.838292  -2.81  -2.06    +74.5499
iter:  37 08:32:04  -945.328310  -2.68  -2.20    +74.9696
iter:  38 08:35:43  -944.126305  -2.74  -2.09    +75.0942
iter:  39 08:39:24  -944.998783  -2.90  -2.38    +75.7376
iter:  40 08:43:04  -945.457662  -3.18  -2.32    +75.5970
iter:  41 08:46:44  -945.764050  -3.22  -2.27    +76.2110
iter:  42 08:50:25  -945.954405  -3.34  -2.27    +76.3478
iter:  43 08:54:04  -946.416414  -3.38  -2.31    +76.7426
iter:  44 08:57:45  -946.540940  -3.40  -2.29    +76.9646
iter:  45 09:01:25  -946.936268  -3.35  -2.26    +77.0229
iter:  46 09:05:06  -946.903595  -2.92  -2.24    +76.7756
iter:  47 09:08:46  -948.037360  -3.05  -2.26    +76.3343
iter:  48 09:12:26  -955.140530  -2.44  -2.15    +76.4923
iter:  49 09:16:08  -948.162638  -2.57  -1.77    +76.1965
iter:  50 09:19:48  -946.933616  -3.15  -2.10    +75.7645
iter:  51 09:23:30  -947.029095  -3.15  -2.37    +75.7086
iter:  52 09:27:10  -946.900128  -3.39  -2.34    +75.3344
iter:  53 09:30:51  -946.934320  -3.30  -2.41    +75.0971
iter:  54 09:34:31  -946.851863c -3.75  -2.44    +75.1052
iter:  55 09:38:12  -948.140525  -3.34  -2.47    +75.1480
iter:  56 09:41:53  -946.926182  -3.49  -2.15    +75.1441
iter:  57 09:45:34  -946.985920  -3.52  -2.47    +75.0692
iter:  58 09:49:14  -947.003761c -3.64  -2.49    +75.2753
iter:  59 09:52:55  -947.024459c -3.62  -2.48    +75.3313
iter:  60 09:56:36  -947.657417  -3.24  -2.50    +75.3267
iter:  61 10:00:14  -946.809697  -3.51  -2.29    +75.2339
iter:  62 10:03:55  -946.826457  -3.96  -2.86    +75.1080
iter:  63 10:07:35  -946.866973c -4.26  -2.89    +75.2103
iter:  64 10:11:16  -946.900308c -4.20  -2.83    +75.3220
iter:  65 10:14:57  -946.863515c -4.50  -2.78    +75.2558
iter:  66 10:18:37  -946.889370c -4.41  -2.92    +75.2723
iter:  67 10:22:18  -946.863702c -4.73  -2.87    +75.2873
iter:  68 10:25:59  -946.866774c -4.71  -3.01    +75.2853
iter:  69 10:29:40  -946.871513c -4.93  -3.07    +75.2303
iter:  70 10:33:20  -946.944547c -4.34  -3.10    +75.1677
iter:  71 10:37:01  -946.915560c -4.30  -2.81    +75.2552
iter:  72 10:40:41  -946.929902c -4.39  -2.92    +75.2242
iter:  73 10:44:22  -946.902463c -4.55  -2.90    +75.1281
iter:  74 10:48:03  -946.891488c -4.90  -3.05    +75.1275
iter:  75 10:51:43  -946.891380c -5.10  -3.28    +75.1960
iter:  76 10:55:24  -946.895295c -5.39  -3.32    +75.1919
iter:  77 10:59:05  -946.903409c -5.16  -3.29    +75.2176
iter:  78 11:02:47  -946.902148c -5.99  -3.21    +75.1944
iter:  79 11:06:28  -946.910656c -5.44  -3.23    +75.0874
iter:  80 11:10:08  -946.910027c -5.56  -3.13    +75.1479
iter:  81 11:13:49  -946.930161c -5.06  -3.15    +75.0579
iter:  82 11:17:30  -946.912623c -5.05  -2.99    +75.1347
iter:  83 11:21:11  -946.911684c -5.02  -3.14    +75.1984
iter:  84 11:24:50  -947.183554  -4.03  -3.18    +75.1884
iter:  85 11:28:27  -946.926538  -4.24  -2.53    +75.1763
iter:  86 11:32:09  -946.910135  -5.10  -3.02    +75.1179
iter:  87 11:35:49  -946.903732c -5.33  -3.25    +75.1410
iter:  88 11:39:29  -946.906046c -5.59  -3.36    +75.1803
iter:  89 11:43:10  -946.910779c -5.20  -3.44    +75.1904
iter:  90 11:46:51  -946.911257c -5.20  -3.29    +75.2245
iter:  91 11:50:32  -946.942690c -4.82  -3.32    +75.2259
iter:  92 11:54:12  -946.907913c -5.01  -2.97    +75.2263
iter:  93 11:57:52  -946.916619c -5.22  -3.51    +75.2462
iter:  94 12:01:33  -946.907639c -5.66  -3.25    +75.2443
iter:  95 12:05:14  -946.908166c -5.85  -3.57    +75.2801
iter:  96 12:08:54  -946.907473c -6.33  -3.72    +75.2937
iter:  97 12:12:35  -946.908299c -6.34  -3.79    +75.3276
iter:  98 12:16:16  -946.909125c -6.11  -3.83    +75.3469
iter:  99 12:19:57  -946.909272c -6.36  -3.82    +75.3608
iter: 100 12:23:38  -946.909135c -6.22  -3.78    +75.3555
iter: 101 12:27:19  -946.909443c -6.28  -3.84    +75.3564
iter: 102 12:31:00  -946.910173c -6.15  -3.88    +75.3636
iter: 103 12:34:41  -946.909921c -6.16  -3.84    +75.3595
iter: 104 12:38:21  -946.910439c -5.97  -3.70    +75.3532
iter: 105 12:42:03  -946.909802c -6.46  -3.65    +75.3654
iter: 106 12:45:43  -946.909936c -6.34  -3.87    +75.3776
iter: 107 12:49:23  -946.909897c -6.76  -4.08c   +75.3748
iter: 108 12:53:04  -946.909678c -7.18  -4.02c   +75.3759
iter: 109 12:56:43  -946.909612c -6.91  -4.15c   +75.3849
iter: 110 13:00:24  -946.910211c -6.81  -4.10c   +75.3847
iter: 111 13:04:04  -946.909955c -6.65  -3.92    +75.3935
iter: 112 13:07:44  -946.910274c -6.62  -4.11c   +75.3999
iter: 113 13:11:25  -946.910113c -6.46  -4.05c   +75.3936
iter: 114 13:15:05  -946.909742c -6.55  -4.05c   +75.3900
iter: 115 13:18:45  -946.910161c -7.07  -4.23c   +75.4007
iter: 116 13:22:25  -946.909898c -7.14  -4.10c   +75.4105
iter: 117 13:26:07  -946.909956c -7.24  -4.34c   +75.4119
iter: 118 13:29:47  -946.909942c -7.60c -4.40c   +75.4166

Converged after 118 iterations.

Dipole moment: (27.928757, 21.770083, 0.012216) |e|*Ang

Total magnetic moment: (0.000000, 0.000000, 75.416583)
Local magnetic moments:
   0 Ni ( 0.000000,  0.000000,  0.507725)
   1 Fe ( 0.000000,  0.000000,  3.187656)
   2 Co ( 0.000000,  0.000000,  1.776794)
   3 Fe ( 0.000000,  0.000000,  3.125928)
   4 Co ( 0.000000,  0.000000,  1.728787)
   5 Co ( 0.000000,  0.000000,  1.479314)
   6 Ni ( 0.000000,  0.000000,  0.366781)
   7 Fe ( 0.000000,  0.000000,  2.661904)
   8 Fe ( 0.000000,  0.000000,  2.639685)
   9 Cr ( 0.000000,  0.000000, -2.800622)
  10 Ni ( 0.000000,  0.000000,  0.348680)
  11 Al ( 0.000000,  0.000000, -0.033015)
  12 Ni ( 0.000000,  0.000000,  0.480844)
  13 Co ( 0.000000,  0.000000,  1.534374)
  14 Cr ( 0.000000,  0.000000,  1.881965)
  15 Cr ( 0.000000,  0.000000, -2.523796)
  16 Fe ( 0.000000,  0.000000,  2.379571)
  17 Fe ( 0.000000,  0.000000,  2.477239)
  18 Cr ( 0.000000,  0.000000, -2.311144)
  19 Fe ( 0.000000,  0.000000,  2.768135)
  20 Co ( 0.000000,  0.000000,  1.239898)
  21 Co ( 0.000000,  0.000000,  1.473674)
  22 Co ( 0.000000,  0.000000,  1.480606)
  23 Ni ( 0.000000,  0.000000,  0.544882)
  24 Ni ( 0.000000,  0.000000,  0.484047)
  25 Al ( 0.000000,  0.000000, -0.038179)
  26 Co ( 0.000000,  0.000000,  1.376294)
  27 Ni ( 0.000000,  0.000000,  0.608647)
  28 Ni ( 0.000000,  0.000000,  0.518627)
  29 Co ( 0.000000,  0.000000,  1.072973)
  30 Fe ( 0.000000,  0.000000,  2.124012)
  31 Cr ( 0.000000,  0.000000, -1.864226)
  32 Cr ( 0.000000,  0.000000,  1.647766)
  33 Ni ( 0.000000,  0.000000,  0.388052)
  34 Cr ( 0.000000,  0.000000,  1.320537)
  35 Ni ( 0.000000,  0.000000, -0.011411)
  36 Cr ( 0.000000,  0.000000, -2.354055)
  37 Fe ( 0.000000,  0.000000,  2.573508)
  38 Fe ( 0.000000,  0.000000,  2.241364)
  39 Cr ( 0.000000,  0.000000, -1.831198)
  40 Co ( 0.000000,  0.000000,  0.766476)
  41 Co ( 0.000000,  0.000000,  1.351459)
  42 Co ( 0.000000,  0.000000,  1.308766)
  43 Ni ( 0.000000,  0.000000,  0.258493)
  44 Cr ( 0.000000,  0.000000,  2.153778)
  45 Al ( 0.000000,  0.000000, -0.042862)
  46 Fe ( 0.000000,  0.000000,  2.117952)
  47 Cr ( 0.000000,  0.000000, -1.292227)
  48 Co ( 0.000000,  0.000000,  1.449369)
  49 Cr ( 0.000000,  0.000000, -2.195015)
  50 Co ( 0.000000,  0.000000,  1.361250)
  51 Ni ( 0.000000,  0.000000,  0.165578)
  52 Co ( 0.000000,  0.000000,  1.379689)
  53 Fe ( 0.000000,  0.000000,  2.584467)
  54 Co ( 0.000000,  0.000000,  1.352588)
  55 Ni ( 0.000000,  0.000000,  0.432443)
  56 Fe ( 0.000000,  0.000000,  1.962971)
  57 Cr ( 0.000000,  0.000000, -1.932356)
  58 Fe ( 0.000000,  0.000000,  2.420285)
  59 Cr ( 0.000000,  0.000000, -2.170366)
  60 Fe ( 0.000000,  0.000000,  2.135569)
  61 Ni ( 0.000000,  0.000000,  0.118801)
  62 Ni ( 0.000000,  0.000000,  0.311727)
  63 Ni ( 0.000000,  0.000000,  0.437076)
  64 Fe ( 0.000000,  0.000000,  2.068857)
  65 Ni ( 0.000000,  0.000000,  0.258474)
  66 Cr ( 0.000000,  0.000000, -1.537141)
  67 Co ( 0.000000,  0.000000,  1.202230)
  68 Al ( 0.000000,  0.000000, -0.039584)
  69 Co ( 0.000000,  0.000000,  1.259968)
  70 Co ( 0.000000,  0.000000,  0.859003)
  71 Cr ( 0.000000,  0.000000,  0.499818)
  72 Ni ( 0.000000,  0.000000,  0.206376)
  73 Fe ( 0.000000,  0.000000,  2.600690)
  74 Ni ( 0.000000,  0.000000,  0.495388)
  75 Ni ( 0.000000,  0.000000,  0.456318)
  76 Ni ( 0.000000,  0.000000,  0.416342)
  77 Fe ( 0.000000,  0.000000,  1.737133)
  78 Ni ( 0.000000,  0.000000,  0.331536)
  79 Fe ( 0.000000,  0.000000,  2.542089)
  80 Co ( 0.000000,  0.000000,  1.374836)
  81 Fe ( 0.000000,  0.000000,  2.100073)
  82 Cr ( 0.000000,  0.000000,  0.701146)
  83 Co ( 0.000000,  0.000000,  1.491215)
  84 Fe ( 0.000000,  0.000000,  2.461928)
  85 Cr ( 0.000000,  0.000000, -1.619830)
  86 Ni ( 0.000000,  0.000000,  0.120002)
  87 Fe ( 0.000000,  0.000000,  2.163462)
  88 Fe ( 0.000000,  0.000000,  2.500980)
  89 Ni ( 0.000000,  0.000000,  0.298598)
  90 Fe ( 0.000000,  0.000000,  2.510915)
  91 Cr ( 0.000000,  0.000000, -2.077320)
  92 Cr ( 0.000000,  0.000000,  1.611545)
  93 Cr ( 0.000000,  0.000000, -2.330443)
  94 Ni ( 0.000000,  0.000000,  0.149648)
  95 Fe ( 0.000000,  0.000000,  2.438499)
  96 Cr ( 0.000000,  0.000000,  0.076500)
  97 Cr ( 0.000000,  0.000000, -1.843482)
  98 Al ( 0.000000,  0.000000,  0.012246)
  99 Fe ( 0.000000,  0.000000,  2.208134)
 100 Co ( 0.000000,  0.000000,  1.160634)
 101 Fe ( 0.000000,  0.000000,  3.023813)
 102 Ni ( 0.000000,  0.000000,  0.001800)
 103 Cr ( 0.000000,  0.000000, -3.044868)
 104 Ni ( 0.000000,  0.000000,  0.412550)
 105 Co ( 0.000000,  0.000000,  1.513452)
 106 Co ( 0.000000,  0.000000,  1.557271)
 107 Cr ( 0.000000,  0.000000, -2.732867)
 108 Fe ( 0.000000,  0.000000,  2.577948)
 109 Ni ( 0.000000,  0.000000,  0.596869)
 110 Co ( 0.000000,  0.000000,  0.845940)
 111 Cr ( 0.000000,  0.000000, -2.146954)
 112 Co ( 0.000000,  0.000000,  1.241977)
 113 Fe ( 0.000000,  0.000000,  2.575102)
 114 Al ( 0.000000,  0.000000, -0.028206)
 115 Fe ( 0.000000,  0.000000,  2.224312)
 116 Cr ( 0.000000,  0.000000, -2.998708)
 117 Ni ( 0.000000,  0.000000,  0.272479)
 118 Co ( 0.000000,  0.000000,  1.191516)
 119 Cr ( 0.000000,  0.000000, -2.951127)
 120 Cr ( 0.000000,  0.000000, -2.476311)
 121 Ni ( 0.000000,  0.000000,  0.130510)
 122 Co ( 0.000000,  0.000000,  1.437169)
 123 Cr ( 0.000000,  0.000000, -3.216598)
 124 Co ( 0.000000,  0.000000,  1.084350)

Energy contributions relative to reference atoms: (reference = -4275894.041763)

Kinetic:       +317.658173
Potential:     -341.242043
External:        +0.000000
XC:            -961.733999
Entropy (-ST):   -5.379163
Local:          +41.097510
--------------------------
Free energy:   -949.599523
Extrapolated:  -946.909942

Dipole-layer corrected work functions: 4.554166, 4.537788 eV

Spin contamination: 59.804431 electrons
Showing all kpts
                      Up                     Down
 Kpt  Band  Eigenvalues  Occupancy  Eigenvalues  Occupancy
  0   587      0.18751    0.99798      1.12668    0.03962
  0   588      0.19910    0.99773      1.13741    0.03573
  0   589      0.20433    0.99761      1.14774    0.03234
  0   590      0.21275    0.99740      1.15470    0.03023

  1   587      0.17548    0.99821      1.11883    0.04271
  1   588      0.18269    0.99808      1.13313    0.03724
  1   589      0.20485    0.99760      1.14119    0.03445
  1   590      0.21714    0.99729      1.15052    0.03148


Fermi level: 0.80787

No gap

Forces in eV/Ang:
  0 Ni   -0.25732    0.85141    0.42528
  1 Fe    0.43674    0.18684    1.48458
  2 Co   -0.98136    0.09483    0.17235
  3 Fe   -1.02383    1.07978    0.29142
  4 Co    0.28096    0.02869    0.77139
  5 Co    0.47600   -0.91612    1.11233
  6 Ni   -0.01049   -0.82981   -2.11645
  7 Fe   -0.41655    0.06988   -0.45748
  8 Fe    0.28643   -1.03770   -0.66824
  9 Cr   -0.05344    0.09428    0.33284
 10 Ni    0.20585    0.84492   -1.02100
 11 Al   -2.37804   -1.39086   -1.00075
 12 Ni   -0.13183    0.43276   -0.56680
 13 Co   -0.18734    0.07711    0.87566
 14 Cr   -0.23419   -1.08191    0.12579
 15 Cr   -0.01041   -0.44542    0.26225
 16 Fe   -0.17304    0.84909    0.93154
 17 Fe    0.41153   -0.20876   -0.38579
 18 Cr    1.39495   -0.13272    0.12584
 19 Fe   -0.34574    0.77091    0.73698
 20 Co   -1.45932   -0.63869   -0.34150
 21 Co    0.05645    0.46025   -1.45643
 22 Co   -0.21613    1.03362   -0.45524
 23 Ni    1.37437   -0.31198    0.29050
 24 Ni    0.31688   -1.29947    0.77719
 25 Al    0.02661   -0.81082   -0.48400
 26 Co    0.77297    0.30304   -1.63785
 27 Ni   -0.73185   -0.63998    1.59313
 28 Ni    1.83766    0.00788    0.32839
 29 Co    0.10492   -0.46278    0.26315
 30 Fe   -0.13057    0.55266    0.77459
 31 Cr    1.20724    0.90926    0.31142
 32 Cr   -1.42167    0.62433    0.60071
 33 Ni    0.07339    0.60403    0.97455
 34 Cr    0.58277   -0.27495   -0.43545
 35 Ni   -0.37532    1.59593    0.10149
 36 Cr    1.26878    0.30812   -0.04951
 37 Fe    0.89467    0.19982    1.37777
 38 Fe   -0.62062    0.24874   -0.59859
 39 Cr   -0.71289    0.77201   -0.08521
 40 Co   -0.19413   -0.75853   -1.70367
 41 Co   -1.26922   -0.32098    0.36386
 42 Co    0.42423   -0.10891    0.43298
 43 Ni   -0.93839   -0.25950   -0.65791
 44 Cr    0.39148    0.02497    0.44880
 45 Al    1.74904   -0.41982    1.14329
 46 Fe   -0.53373   -0.75888    0.37304
 47 Cr    0.48907   -2.00243   -1.79230
 48 Co   -0.84134   -0.07418    0.43769
 49 Cr   -1.99885    0.12170   -0.25933
 50 Co   -0.80723    0.49603    0.23227
 51 Ni   -1.39729    0.40544   -0.21885
 52 Co    1.51555    0.25384   -0.36939
 53 Fe   -0.54787    0.18155   -1.17908
 54 Co    0.42914    0.50873    0.78151
 55 Ni   -0.55665   -1.11587    0.45764
 56 Fe    0.59437    0.64214   -1.03373
 57 Cr    0.63223    0.40852   -0.59801
 58 Fe   -0.01608   -1.20023   -0.29056
 59 Cr   -0.32660   -0.52303    1.08433
 60 Fe    1.38753   -0.11285   -0.55496
 61 Ni   -0.50668    0.57128    0.45545
 62 Ni    0.13125   -0.65307   -0.05795
 63 Ni    1.85990   -0.88167   -0.20782
 64 Fe    0.10406   -1.46136   -0.66780
 65 Ni   -0.06777   -0.22734   -0.01358
 66 Cr   -0.66956    2.06862    0.65945
 67 Co    0.22645    0.98357    0.93417
 68 Al   -0.74702    2.16673    0.02898
 69 Co    0.47744   -0.03431   -0.25827
 70 Co   -0.17939    0.49641    0.33883
 71 Cr    0.08819   -0.38625    1.52961
 72 Ni    0.09585   -1.67744    1.23108
 73 Fe    0.02376   -0.80957   -1.39335
 74 Ni    1.07395    0.94448   -0.59772
 75 Ni    0.14489   -0.58442   -1.05341
 76 Ni   -0.30411   -0.32984    0.48847
 77 Fe    0.74001   -1.54693    1.29988
 78 Ni    0.83049   -1.16923    0.28209
 79 Fe   -0.98035    0.28247   -0.03861
 80 Co   -0.73442    0.01724   -0.06147
 81 Fe    0.31345    1.00219    0.81628
 82 Cr   -0.41472    2.38414    0.56158
 83 Co   -0.02909    0.07026   -1.96754
 84 Fe   -1.01639   -0.40702   -0.79182
 85 Cr   -0.84715    0.03242   -0.16034
 86 Ni    1.06152    0.18537   -0.02005
 87 Fe   -0.49911   -1.05355    0.13855
 88 Fe   -0.28335    0.52008   -1.32053
 89 Ni   -0.67824    2.42023    0.65166
 90 Fe    0.86976   -0.54102    1.12284
 91 Cr    0.78166    0.86696    1.09427
 92 Cr    0.41452    0.88676   -0.57231
 93 Cr   -0.36289   -0.73444    0.02670
 94 Ni   -1.94225   -0.03448   -1.17138
 95 Fe    1.38987   -1.29834   -0.19515
 96 Cr    0.40639   -0.90379    0.52381
 97 Cr   -2.65397    0.15991   -0.23484
 98 Al    2.58270    0.46019    0.37358
 99 Fe   -0.64419   -1.28896    0.46565
100 Co    0.04321    1.35626   -0.65573
101 Fe    0.14532   -0.66641   -0.83996
102 Ni    0.34655   -0.06936   -0.73834
103 Cr    0.75122    0.72342   -0.03889
104 Ni   -0.21720   -0.49430   -0.03812
105 Co   -2.14961    0.33548    0.89422
106 Co    2.26780    0.09121    0.17184
107 Cr   -0.25535    0.54921   -0.51813
108 Fe    0.21250    0.18004    0.30917
109 Ni    0.43431    1.40472   -0.42314
110 Co   -1.29829   -1.07529   -0.49174
111 Cr    0.97853   -1.22539   -0.32363
112 Co   -0.85183    0.05155    0.59293
113 Fe    0.19918   -0.29931    0.50241
114 Al   -0.01365   -1.62714    0.41732
115 Fe   -0.28396    1.06394   -0.39797
116 Cr   -1.10031   -0.26780   -0.61608
117 Ni    0.82633    0.27173    0.48738
118 Co    1.09156    0.16139    0.20868
119 Cr    0.51070    1.55851    0.10491
120 Cr    0.38989   -0.36235   -0.18897
121 Ni    0.88632   -0.73802   -0.23592
122 Co   -0.33593    0.05538   -0.93711
123 Cr   -0.86887    0.24917   -0.37866
124 Co   -0.10208    0.37089    0.45112

Timing:                              incl.     excl.
-----------------------------------------------------------
Forces:                             45.014    45.014   0.2% |
Hamiltonian:                         1.773     0.016   0.0% |
 Atomic:                             0.450     0.003   0.0% |
  XC Correction:                     0.447     0.447   0.0% |
 Calculate atomic Hamiltonians:      0.622     0.622   0.0% |
 Communicate:                        0.057     0.057   0.0% |
 Initialize Hamiltonian:             0.001     0.001   0.0% |
 Poisson:                            0.133     0.133   0.0% |
 XC 3D grid:                         0.494     0.494   0.0% |
LCAO initialization:               368.862     0.649   0.0% |
 LCAO eigensolver:                  25.332     0.025   0.0% |
  Calculate projections:             0.000     0.000   0.0% |
  DenseAtomicCorrection:             0.000     0.000   0.0% |
  Distribute overlap matrix:        10.846    10.846   0.0% |
  Orbital Layouts:                  14.148    14.148   0.1% |
  Potential matrix:                  0.006     0.006   0.0% |
  Sum over cells:                    0.307     0.307   0.0% |
 LCAO to grid:                     340.141   340.141   1.3% ||
 Set positions (LCAO WFS):           2.740     2.351   0.0% |
  Basic WFS set positions:           0.004     0.004   0.0% |
  Basis functions set positions:     0.001     0.001   0.0% |
  P tci:                             0.001     0.001   0.0% |
  ST tci:                            0.166     0.166   0.0% |
  mktci:                             0.217     0.217   0.0% |
PWDescriptor:                        0.127     0.127   0.0% |
SCF-cycle:                       26049.106     1.020   0.0% |
 Davidson:                       25522.582  6376.356  24.1% |---------|
  Apply H:                         435.599   427.101   1.6% ||
   HMM T:                            8.498     8.498   0.0% |
  Subspace diag:                  2313.057     0.075   0.0% |
   calc_h_matrix:                  997.183   595.232   2.2% ||
    Apply H:                       401.951   392.690   1.5% ||
     HMM T:                          9.261     9.261   0.0% |
   diagonalize:                    225.158   225.158   0.9% |
   rotate_psi:                    1090.640  1090.640   4.1% |-|
  calc. matrices:                 5356.445  4582.070  17.3% |------|
   Apply H:                        774.376   757.246   2.9% ||
    HMM T:                          17.130    17.130   0.1% |
  diagonalize:                    8717.544  8717.544  32.9% |------------|
  rotate_psi:                     2323.580  2323.580   8.8% |---|
 Density:                          307.707     0.006   0.0% |
  Atomic density matrices:           3.939     3.939   0.0% |
  Mix:                             110.733   110.733   0.4% |
  Multipole moments:                 0.105     0.105   0.0% |
  Pseudo density:                  192.925   192.917   0.7% |
   Symmetrize density:               0.008     0.008   0.0% |
 Hamiltonian:                      196.161     1.941   0.0% |
  Atomic:                           52.859     0.215   0.0% |
   XC Correction:                   52.644    52.644   0.2% |
  Calculate atomic Hamiltonians:    74.172    74.172   0.3% |
  Communicate:                       7.286     7.286   0.0% |
  Poisson:                           5.704     5.704   0.0% |
  XC 3D grid:                       54.199    54.199   0.2% |
 Orthonormalize:                    21.636     0.001   0.0% |
  calc_s_matrix:                     2.778     2.778   0.0% |
  inverse-cholesky:                  1.099     1.099   0.0% |
  projections:                      13.131    13.131   0.0% |
  rotate_psi_s:                      4.627     4.627   0.0% |
Set symmetry:                        0.001     0.001   0.0% |
Other:                               7.942     7.942   0.0% |
-----------------------------------------------------------
Total:                                     26472.825 100.0%

Date: Mon Apr 17 13:30:36 2023
