
  ___ ___ ___ _ _ _  
 |   |   |_  | | | | 
 | | | | | . | | | | 
 |__ |  _|___|_____|  22.8.0
 |___|_|             

User:   c.zeng@d0029
Date:   Thu Apr 20 19:54:10 2023
Arch:   x86_64
Pid:    118431
CWD:    /home/c.zeng/projects/hea-corrosion/hea-mlp/data-curation/surface-mcmc/dft-jobs/95
Python: 3.8.1
gpaw:   /home/c.zeng/usr/installs/gpaw/source/gpaw-22.8.0/gpaw
_gpaw:  /home/c.zeng/usr/installs/gpaw/source/gpaw-22.8.0/
        _gpaw.cpython-38-x86_64-linux-gnu.so
ase:    /home/c.zeng/.local/lib/python3.8/site-packages/ase-3.22.1-py3.8.egg/ase (version 3.22.1)
numpy:  /home/c.zeng/.local/lib/python3.8/site-packages/numpy (version 1.24.2)
scipy:  /home/c.zeng/.local/lib/python3.8/site-packages/scipy (version 1.10.1)
libxc:  4.2.3
units:  Angstrom and eV
cores: 30
OpenMP: False
OMP_NUM_THREADS: 1

Input parameters:
  convergence: {energy: 0.0001}
  kpts: [2 2 1]
  maxiter: 666
  mode: {ecut: 350.0,
         name: pw}
  occupations: {fixmagmom: False,
                name: fermi-dirac,
                width: 0.1}
  poissonsolver: {dipolelayer: xy}
  spinpol: True
  symmetry: {point_group: False}
  xc: PBE

System changes: positions, numbers, cell, pbc, initial_charges, initial_magmoms 

Initialize ...

species:
  Co:
    name: Cobalt
    id: 339d20d5b0b93d2de9531a1bee871d91
    Z: 27.0
    valence: 9
    core: 18
    charge: 0.0
    file: /home/c.zeng/usr/data/gpaw-setups-0.9.20000/Co.PBE.gz
    compensation charges: {type: gauss,
                           rc: 0.32,
                           lmax: 2}
    cutoffs: {filter: 1.87,
              core: 2.55}
    valence states:
      #              energy  rcut
      - 4s(2.00)    -5.469   1.005
      - 4p(0.00)    -1.277   1.058
      - 3d(7.00)    -8.205   1.005
      -  s          21.742   1.005
      -  p          25.934   1.058
      -  d          19.007   1.005
  
    # Using partial waves for Co as LCAO basis

  Cr:
    name: Chromium
    id: 33f258bda2ca9f93018e70263a35547b
    Z: 24.0
    valence: 6
    core: 18
    charge: 0.0
    file: /home/c.zeng/usr/data/gpaw-setups-0.9.20000/Cr.PBE.gz
    compensation charges: {type: gauss,
                           rc: 0.35,
                           lmax: 2}
    cutoffs: {filter: 2.14,
              core: 3.04}
    valence states:
      #              energy  rcut
      - 4s(1.00)    -4.007   1.164
      - 4p(0.00)    -0.989   1.217
      - 3d(5.00)    -2.913   1.111
      -  s          23.205   1.164
      -  p          26.223   1.217
      -  d          24.299   1.111
  
    # Using partial waves for Cr as LCAO basis

  Ni:
    name: Nickel
    id: 0d9f38a9d6e76a2886f07bb4381f212b
    Z: 28.0
    valence: 16
    core: 12
    charge: 0.0
    file: /home/c.zeng/usr/data/gpaw-setups-0.9.20000/Ni.PBE.gz
    compensation charges: {type: gauss,
                           rc: 0.36,
                           lmax: 2}
    cutoffs: {filter: 2.14,
              core: 1.98}
    valence states:
      #              energy  rcut
      - 4s(2.00)    -5.642   1.164
      - 3p(6.00)   -71.394   1.207
      - 4p(0.00)    -1.226   1.207
      - 3d(8.00)    -8.875   1.138
      -  s          21.570   1.164
      -  d          18.337   1.138
  
    # Using partial waves for Ni as LCAO basis

  Al:
    name: Aluminium
    id: 0292cae29f5d6237e50f6abdd43a7bdd
    Z: 13.0
    valence: 3
    core: 10
    charge: 0.0
    file: /home/c.zeng/usr/data/gpaw-setups-0.9.20000/Al.PBE.gz
    compensation charges: {type: gauss,
                           rc: 0.34,
                           lmax: 2}
    cutoffs: {filter: 1.91,
              core: 2.36}
    valence states:
      #              energy  rcut
      - 3s(2.00)    -7.753   1.085
      - 3p(1.00)    -2.712   1.085
      -  s          19.459   1.085
      -  p          24.499   1.085
      -  d           0.000   1.085
  
    # Using partial waves for Al as LCAO basis

  Fe:
    name: Iron
    id: 37abbd8d6c3c35915a9b583b742da910
    Z: 26.0
    valence: 8
    core: 18
    charge: 0.0
    file: /home/c.zeng/usr/data/gpaw-setups-0.9.20000/Fe.PBE.gz
    compensation charges: {type: gauss,
                           rc: 0.33,
                           lmax: 2}
    cutoffs: {filter: 2.06,
              core: 2.67}
    valence states:
      #              energy  rcut
      - 4s(2.00)    -5.291   1.164
      - 4p(0.00)    -1.326   1.058
      - 3d(6.00)    -7.505   1.058
      -  s          21.920   1.164
      -  p          25.885   1.058
      -  d          19.706   1.058
  
    # Using partial waves for Fe as LCAO basis

Reference energy: -4275894.041763  # eV

Spin-polarized calculation.
Magnetic moment: 165.900000

Convergence criteria:
 Maximum [total energy] change in last 3 cyles: 0.0001 eV / electron
 Maximum integral of absolute [dens]ity change: 0.0001 electrons / valence electron
 Maximum integral of absolute [eigenst]ate change: 4e-08 eV^2 / valence electron
 Maximum number of scf [iter]ations: 666
 (Square brackets indicate name in SCF output, whereas a 'c' in
 the SCF output indicates the quantity has converged.)

Symmetries present (total): 1

  ( 1  0  0)
  ( 0  1  0)
  ( 0  0  1)

4 k-points: 2 x 2 x 1 Monkhorst-Pack grid
2 k-points in the irreducible part of the Brillouin zone
       k-points in crystal coordinates                weights
   0:     0.25000000   -0.25000000    0.00000000          2/4
   1:     0.25000000    0.25000000    0.00000000          2/4

Wave functions: Plane wave expansion
  Cutoff energy: 350.000 eV
  Number of coefficients (min, max): 58901, 58943
  Pulay-stress correction: 0.000000 eV/Ang^3 (de/decut=0.000000)
  Using FFTW library
  ScaLapack parameters: grid=1x1, blocksize=None
  Wavefunction extrapolation:
    Improved wavefunction reuse through dual PAW basis 

Occupation numbers: Fermi-Dirac:
  width: 0.1000  # eV
 

Eigensolver
   Davidson(niter=2) 

Densities:
  Coarse grid: 54*54*128 grid
  Fine grid: 108*108*256 grid
  Total Charge: 0.000000 

Density mixing:
  Method: difference
  Backend: pulay
  Linear mixing parameter: 0.05
  old densities: 5
  Damping of long wavelength oscillations: 50 

Hamiltonian:
  XC and Coulomb potentials evaluated on a 108*108*256 grid
  Using the PBE Exchange-Correlation functional
  External potential:
    NoExternalPotential
 

XC parameters: PBE with 2 nearest neighbor stencil

Memory estimate:
  Process memory now: 367.80 MiB
  Calculator: 2335.53 MiB
    Density: 17.84 MiB
      Arrays: 6.75 MiB
      Localized functions: 8.39 MiB
      Mixer: 2.70 MiB
    Hamiltonian: 5.27 MiB
      Arrays: 5.01 MiB
      XC: 0.00 MiB
      Poisson: 0.00 MiB
      vbar: 0.25 MiB
    Wavefunctions: 2312.43 MiB
      Arrays psit_nG: 1458.82 MiB
      Eigensolver: 834.29 MiB
      Projections: 3.66 MiB
      Projectors: 1.14 MiB
      PW-descriptor: 14.51 MiB

Total number of cores used: 30
Parallelization over k-points: 2
Domain decomposition: 1 x 3 x 5

Number of atoms: 125
Number of atomic orbitals: 1185
Number of bands in calculation: 811
Number of valence electrons: 1179
Bands to converge: occupied

... initialized

Initializing position-dependent things.

Density initialized from atomic densities
Creating initial wave functions:
  811 bands from LCAO basis set

                                                                  
                                                                  
                                                                  
                                                                  
                             Cr                       Cr          
                               Ni    Co    Ni    Cr    Ni         
                          Co     Ni    Cr    Cr    Co             
                                Co    Co    Fe    Al    Cr        
                Co    Cr   NCr   CFe    FAl   Cr    Ni            
           Ni     Co   FCo   FCo   FCo   Cr     Ni   Ni           
             Cr    Co     FeCo    Ni    Fe     Co                 
                  Fe    NNi   CCr   FFe   FNi   ANi               
              Fe   NNi   FNi   CCFe  CNCr  NNi   Fe               
               Fe    Fe    Cr    Ni     Fe                        
                          Co    NFe   CFe   CNi   CNi   Al        
           Fe    Cr   ACr  CCFe   FCr   CFe   CFe   Ni            
            Ni    Fe    Fe    Co    Ni                            
                       Co    Cr    Al    Cr    Cr                 
       Ni    Cr   CCr    Co    NFe   Co    Ni                     
              Cr    Co    Cr     Cr    Co                         
                                                                  
                                                                  
                                                                  
                                                                  
                                                                  

Positions:
   0 Co    12.486468    1.462777   10.528605    ( 0.0000,  0.0000,  1.5000)
   1 Cr     2.491286    1.427324   10.624355    ( 0.0000,  0.0000,  2.0000)
   2 Co     4.996443    1.433664   10.615695    ( 0.0000,  0.0000,  2.1000)
   3 Cr     7.497692    1.450585   10.618513    ( 0.0000,  0.0000,  2.0000)
   4 Cr     9.980354    1.438381   10.617016    ( 0.0000,  0.0000,  2.1000)
   5 Ni    13.725570    3.599047   10.613993    ( 0.0000,  0.0000,  2.1000)
   6 Co     3.721032    3.570702   10.596763    ( 0.0000,  0.0000,  1.5000)
   7 Co     6.265421    3.568181   10.621801    ( 0.0000,  0.0000,  2.0000)
   8 Ni     8.741341    3.586865   10.615549    ( 0.0000,  0.0000,  2.0000)
   9 Co    11.233064    3.610428   10.573163    ( 0.0000,  0.0000,  0.0000)
  10 Cr    14.927431    5.761281   10.554435    ( 0.0000,  0.0000,  1.5000)
  11 Co     5.002416    5.751707   10.362584    ( 0.0000,  0.0000,  0.0000)
  12 Cr     7.528897    5.754942   10.601782    ( 0.0000,  0.0000,  1.5000)
  13 Al     9.984614    5.751426   10.596909    ( 0.0000,  0.0000,  2.1000)
  14 Cr    12.467830    5.774643   10.569993    ( 0.0000,  0.0000,  0.0000)
  15 Ni    16.185528    7.952943   10.517715    ( 0.0000,  0.0000,  0.0000)
  16 Co     6.281890    7.953062   10.585785    ( 0.0000,  0.0000,  2.0000)
  17 Cr     8.751632    7.929564   10.589659    ( 0.0000,  0.0000,  2.0000)
  18 Co    11.232798    7.933199   10.565472    ( 0.0000,  0.0000,  0.0000)
  19 Co    13.711755    7.928211   10.595530    ( 0.0000,  0.0000,  2.0000)
  20 Al    17.465073   10.103493   10.559367    ( 0.0000,  0.0000,  2.1000)
  21 Ni     7.524528   10.087482   10.585491    ( 0.0000,  0.0000,  2.1000)
  22 Cr     9.999339   10.092837   10.628699    ( 0.0000,  0.0000,  2.1000)
  23 Co    12.492524   10.103136   10.590364    ( 0.0000,  0.0000,  1.5000)
  24 Co    14.967562   10.103591   10.598553    ( 0.0000,  0.0000,  1.5000)
  25 Ni     0.039549    0.061487   12.592509    ( 0.0000,  0.0000,  0.0000)
  26 Cr     2.543839    0.004196   12.633574    ( 0.0000,  0.0000,  2.1000)
  27 Cr     5.007959    0.016292   12.619485    ( 0.0000,  0.0000,  1.5000)
  28 Al    13.725047   10.821613   12.614847    ( 0.0000,  0.0000,  1.5000)
  29 Fe     9.941746    0.020015   12.634836    ( 0.0000,  0.0000,  2.1000)
  30 Ni     1.280557    2.197634   12.622449    ( 0.0000,  0.0000,  2.0000)
  31 Fe     3.757003    2.159238   12.617870    ( 0.0000,  0.0000,  0.0000)
  32 Fe     6.259391    2.150539   12.632283    ( 0.0000,  0.0000,  0.0000)
  33 Co     8.729061    2.160536   12.640942    ( 0.0000,  0.0000,  1.5000)
  34 Ni    11.206426    2.199527   12.600112    ( 0.0000,  0.0000,  0.0000)
  35 Fe    14.980028    4.321894   12.623066    ( 0.0000,  0.0000,  1.5000)
  36 Al     5.000637    4.306532   12.605865    ( 0.0000,  0.0000,  0.0000)
  37 Cr     7.511972    4.316766   12.613115    ( 0.0000,  0.0000,  2.0000)
  38 Fe     9.977581    4.334444   12.603575    ( 0.0000,  0.0000,  2.0000)
  39 Fe    12.466237    4.352219   12.609857    ( 0.0000,  0.0000,  0.0000)
  40 Ni    16.217374    6.438246   12.562775    ( 0.0000,  0.0000,  2.1000)
  41 Co     6.249088    6.441384   12.586551    ( 0.0000,  0.0000,  2.1000)
  42 Fe     8.734867    6.480104   12.598380    ( 0.0000,  0.0000,  2.1000)
  43 Fe    11.217541    6.497393   12.580210    ( 0.0000,  0.0000,  1.5000)
  44 Ni    13.747589    6.470530   12.591629    ( 0.0000,  0.0000,  0.0000)
  45 Fe     4.965631    8.600697   12.619661    ( 0.0000,  0.0000,  0.0000)
  46 Cr     7.527050    8.647229   12.603517    ( 0.0000,  0.0000,  2.0000)
  47 Co     9.992787    8.639093   12.602137    ( 0.0000,  0.0000,  0.0000)
  48 Ni    12.461146    8.678950   12.599202    ( 0.0000,  0.0000,  2.1000)
  49 Fe    14.923147    8.662851   12.605102    ( 0.0000,  0.0000,  0.0000)
  50 Fe     1.264555    0.726556   14.701676    ( 0.0000,  0.0000,  2.1000)
  51 Cr     3.750060    0.743838   14.683888    ( 0.0000,  0.0000,  1.5000)
  52 Cr     6.237655    0.730758   14.677812    ( 0.0000,  0.0000,  2.1000)
  53 Fe     8.726659    0.737641   14.712772    ( 0.0000,  0.0000,  2.0000)
  54 Cr    11.216460    0.725550   14.709367    ( 0.0000,  0.0000,  2.1000)
  55 Fe     2.513395    2.883675   14.691579    ( 0.0000,  0.0000,  1.5000)
  56 Fe     4.990849    2.893120   14.684241    ( 0.0000,  0.0000,  2.0000)
  57 Cr     7.488486    2.893629   14.696334    ( 0.0000,  0.0000,  0.0000)
  58 Ni     9.972278    2.890664   14.692489    ( 0.0000,  0.0000,  2.0000)
  59 Fe    12.467576    2.877141   14.691667    ( 0.0000,  0.0000,  0.0000)
  60 Ni     3.758526    5.050346   14.670151    ( 0.0000,  0.0000,  2.0000)
  61 Fe     6.246120    5.038056   14.669564    ( 0.0000,  0.0000,  1.5000)
  62 Co     8.732126    5.049902   14.667773    ( 0.0000,  0.0000,  1.5000)
  63 Ni    11.205583    5.023028   14.695277    ( 0.0000,  0.0000,  1.5000)
  64 Ni    13.756582    5.017781   14.684505    ( 0.0000,  0.0000,  2.0000)
  65 Ni     5.010694    7.182699   14.702674    ( 0.0000,  0.0000,  1.5000)
  66 Co     7.485228    7.189460   14.657588    ( 0.0000,  0.0000,  0.0000)
  67 Fe     9.946463    7.198159   14.653068    ( 0.0000,  0.0000,  2.1000)
  68 Fe    12.473405    7.201264   14.677166    ( 0.0000,  0.0000,  0.0000)
  69 Ni    15.017763    7.213900   14.645054    ( 0.0000,  0.0000,  2.1000)
  70 Co     6.251064    9.372532   14.712302    ( 0.0000,  0.0000,  2.1000)
  71 Ni     8.729758    9.372705   14.658410    ( 0.0000,  0.0000,  0.0000)
  72 Fe    11.200962    9.406124   14.647901    ( 0.0000,  0.0000,  1.5000)
  73 Co    13.749704    9.394894   14.665366    ( 0.0000,  0.0000,  2.0000)
  74 Ni    16.223386    9.399309   14.720785    ( 0.0000,  0.0000,  1.5000)
  75 Cr    12.479408    1.425961   16.738106    ( 0.0000,  0.0000,  1.5000)
  76 Fe     2.490684    1.454436   16.739222    ( 0.0000,  0.0000,  1.5000)
  77 Ni     4.964072    1.458060   16.748615    ( 0.0000,  0.0000,  2.0000)
  78 Ni     7.493576    1.474137   16.738664    ( 0.0000,  0.0000,  1.5000)
  79 Fe     9.990724    1.450314   16.751932    ( 0.0000,  0.0000,  2.0000)
  80 Ni    13.736871    3.597619   16.749671    ( 0.0000,  0.0000,  2.1000)
  81 Fe     3.731782    3.620695   16.737637    ( 0.0000,  0.0000,  2.0000)
  82 Ni     6.217757    3.600962   16.741893    ( 0.0000,  0.0000,  0.0000)
  83 Cr     8.739843    3.608427   16.720025    ( 0.0000,  0.0000,  2.1000)
  84 Fe    11.236517    3.591755   16.778291    ( 0.0000,  0.0000,  2.0000)
  85 Ni    14.987780    5.779273   16.714506    ( 0.0000,  0.0000,  0.0000)
  86 Fe     4.996827    5.757928   16.729565    ( 0.0000,  0.0000,  1.5000)
  87 Fe     7.493878    5.760427   16.738488    ( 0.0000,  0.0000,  2.0000)
  88 Fe     9.975457    5.766269   16.736932    ( 0.0000,  0.0000,  2.0000)
  89 Cr    12.478104    5.731140   16.775473    ( 0.0000,  0.0000,  1.5000)
  90 Ni    16.238159    7.937775   16.730328    ( 0.0000,  0.0000,  2.0000)
  91 Ni     6.231444    7.940404   16.765522    ( 0.0000,  0.0000,  0.0000)
  92 Cr     8.728840    7.936931   16.735611    ( 0.0000,  0.0000,  0.0000)
  93 Fe    11.192557    7.913866   16.746149    ( 0.0000,  0.0000,  0.0000)
  94 Cr    13.768802    7.904897   16.753722    ( 0.0000,  0.0000,  1.5000)
  95 Cr    17.466742   10.100767   16.763996    ( 0.0000,  0.0000,  2.0000)
  96 Co     7.483726   10.114128   16.752695    ( 0.0000,  0.0000,  0.0000)
  97 Co     9.946168   10.127316   16.729242    ( 0.0000,  0.0000,  0.0000)
  98 Fe    12.492406   10.089342   16.764671    ( 0.0000,  0.0000,  0.0000)
  99 Al    15.005292   10.118575   16.753076    ( 0.0000,  0.0000,  2.0000)
 100 Cr     6.250979   10.817826   18.755486    ( 0.0000,  0.0000,  2.1000)
 101 Cr     2.491992    0.007607   18.757365    ( 0.0000,  0.0000,  2.0000)
 102 Co     4.959039    0.011376   18.813253    ( 0.0000,  0.0000,  1.5000)
 103 Fe     7.505721    0.033872   18.830425    ( 0.0000,  0.0000,  0.0000)
 104 Cr    16.226478   10.816744   18.766934    ( 0.0000,  0.0000,  1.5000)
 105 Ni     1.262456    2.149912   18.735438    ( 0.0000,  0.0000,  2.1000)
 106 Co     3.733330    2.172036   18.731769    ( 0.0000,  0.0000,  2.1000)
 107 Co     6.235561    2.176310   18.762208    ( 0.0000,  0.0000,  0.0000)
 108 Co     8.740232    2.176277   18.742160    ( 0.0000,  0.0000,  2.0000)
 109 Co    11.216255    2.130427   18.758333    ( 0.0000,  0.0000,  1.5000)
 110 Co     2.521812    4.343315   18.747649    ( 0.0000,  0.0000,  2.1000)
 111 Cr     4.991012    4.329273   18.757688    ( 0.0000,  0.0000,  0.0000)
 112 Cr     7.490880    4.334898   18.725399    ( 0.0000,  0.0000,  2.1000)
 113 Fe     9.943770    4.322230   18.730184    ( 0.0000,  0.0000,  2.0000)
 114 Al    12.464525    4.326265   18.943816    ( 0.0000,  0.0000,  0.0000)
 115 Co    16.224051    6.495359   18.723022    ( 0.0000,  0.0000,  2.0000)
 116 Co     6.226814    6.495348   18.761650    ( 0.0000,  0.0000,  0.0000)
 117 Ni     8.730619    6.495759   18.735203    ( 0.0000,  0.0000,  1.5000)
 118 Cr    11.207915    6.503819   18.742835    ( 0.0000,  0.0000,  2.1000)
 119 Cr    13.765796    6.524169   18.782109    ( 0.0000,  0.0000,  0.0000)
 120 Ni    17.450702    8.660601   18.763558    ( 0.0000,  0.0000,  0.0000)
 121 Ni     7.490686    8.670024   18.761621    ( 0.0000,  0.0000,  1.5000)
 122 Co     9.981419    8.673010   18.727630    ( 0.0000,  0.0000,  2.1000)
 123 Ni    12.489241    8.635804   18.838438    ( 0.0000,  0.0000,  0.0000)
 124 Cr    14.988874    8.667774   18.729832    ( 0.0000,  0.0000,  2.1000)

Unit cell:
           periodic     x           y           z      points  spacing
  1. axis:    yes   12.474800    0.000000    0.000000    54     0.2001
  2. axis:    yes    6.246240   10.818800    0.000000    54     0.2003
  3. axis:    no     0.000000    0.000000   29.353100   128     0.2293

  Lengths:  12.474800  12.492476  29.353100
  Angles:   90.000000  90.000000  59.999988

Effective grid spacing dv^(1/3) = 0.2198

     iter     time        total  log10-change:  magmom
                         energy  eigst   dens
iter:   1 20:04:09 -1054.800313                  +165.5127
iter:   2 20:07:38 -1940.722967  +0.28  -1.22    +130.4424
iter:   3 20:11:07 -1453.544751  +0.39  -0.82    +102.7722
iter:   4 20:14:35 -1086.716905  -0.69  -0.97    +68.0707
iter:   5 20:18:04 -1005.727115  -1.32  -1.22    +53.4781
iter:   6 20:21:33  -995.603538  -1.81  -1.34    +46.3713
iter:   7 20:25:00  -990.004269  -1.87  -1.36    +43.1210
iter:   8 20:29:17 -1628.048591  -0.60  -1.38    +43.4853
iter:   9 20:32:52 -1003.300561  -0.75  -0.88    +41.3818
iter:  10 20:36:21  -978.768746  -1.64  -1.35    +39.6858
iter:  11 20:39:50  -968.336474  -1.79  -1.44    +40.3666
iter:  12 20:43:21  -994.408143  -1.55  -1.56    +40.8893
iter:  13 20:46:50  -988.200903  -1.60  -1.44    +42.0721
iter:  14 20:50:19  -967.891070  -1.58  -1.47    +41.2964
iter:  15 20:53:48  -983.926048  -1.77  -1.73    +41.4741
iter:  16 20:57:17 -1036.709661  -1.55  -1.52    +41.6222
iter:  17 21:00:46  -967.929750  -1.98  -1.29    +41.1788
iter:  18 21:04:15  -973.239354  -2.00  -1.72    +43.6149
iter:  19 21:07:43  -964.584655  -2.33  -1.68    +43.5863
iter:  20 21:11:11  -965.799462  -2.49  -1.79    +45.1177
iter:  21 21:14:40  -964.210053  -2.80  -1.78    +47.0168
iter:  22 21:18:09  -965.673941  -2.78  -1.84    +49.0279
iter:  23 21:21:37  -964.230803  -2.76  -1.80    +51.0276
iter:  24 21:26:00  -968.836267  -2.46  -1.89    +52.7346
iter:  25 21:29:29  -970.621064  -2.23  -1.79    +52.9276
iter:  26 21:32:58  -975.774277  -2.40  -1.75    +53.8592
iter:  27 21:36:27  -965.911243  -2.54  -1.68    +55.7497
iter:  28 21:39:55  -966.101283  -2.51  -1.96    +56.7079
iter:  29 21:43:23  -964.820218  -2.94  -1.94    +57.2242
iter:  30 21:46:52  -964.892991  -3.49  -2.01    +58.4732
iter:  31 21:50:24  -965.386034  -3.18  -2.04    +59.7600
iter:  32 21:53:55  -968.689113  -2.79  -2.05    +60.3586
iter:  33 21:57:30  -969.710498  -2.67  -1.90    +60.5233
iter:  34 22:00:59  -967.149310  -2.74  -1.87    +60.8576
iter:  35 22:04:30  -970.745003  -2.37  -2.06    +61.4509
iter:  36 22:08:01  -966.350591  -2.62  -1.92    +61.1718
iter:  37 22:11:32  -966.176046  -3.10  -2.16    +61.6944
iter:  38 22:15:02  -966.759438  -3.44  -2.22    +62.0420
iter:  39 22:18:33  -966.252875  -3.58  -2.14    +62.6266
iter:  40 22:22:16  -966.328664  -3.82  -2.26    +62.8556
iter:  41 22:25:58  -966.742239  -3.33  -2.29    +63.3760
iter:  42 22:29:28  -967.273220  -3.03  -2.34    +63.3189
iter:  43 22:32:58  -966.986298  -3.16  -2.27    +63.4118
iter:  44 22:36:28  -968.983547  -3.00  -2.42    +63.5599
iter:  45 22:40:10  -974.966351  -2.59  -2.08    +63.4582
iter:  46 22:43:44  -967.119896  -2.90  -1.79    +63.7976
iter:  47 22:47:16  -967.061317  -3.61  -2.46    +63.8637
iter:  48 22:50:50  -967.122785c -3.91  -2.58    +63.8052
iter:  49 22:54:19  -967.194055  -4.00  -2.61    +63.8387
iter:  50 22:57:51  -967.452701  -3.59  -2.63    +64.0572
iter:  51 23:01:27  -967.866633  -3.58  -2.52    +64.0571
iter:  52 23:05:00  -967.409280  -3.81  -2.35    +64.2419
iter:  53 23:08:30  -967.463155  -4.29  -2.60    +64.4241
iter:  54 23:12:00  -967.492454c -4.69  -2.59    +64.3972
iter:  55 23:15:30  -967.533325c -4.39  -2.58    +64.5894
iter:  56 23:19:00  -967.749268  -3.98  -2.58    +64.5731
iter:  57 23:23:04  -969.322860  -3.23  -2.46    +64.5980
iter:  58 23:26:34  -967.688596  -3.36  -2.11    +64.9109
iter:  59 23:30:03  -967.656801  -3.57  -2.50    +64.9515
iter:  60 23:33:32  -967.631202c -3.81  -2.56    +65.0291
iter:  61 23:37:01  -967.560445c -3.98  -2.55    +65.0526
iter:  62 23:40:31  -967.556620c -4.01  -2.65    +65.0035
iter:  63 23:44:00  -967.596656c -4.17  -2.65    +64.9528
iter:  64 23:47:29  -967.844167  -3.95  -2.63    +65.0294
iter:  65 23:50:58  -967.585343  -3.86  -2.46    +65.1345
iter:  66 23:54:28  -967.975355  -3.49  -2.71    +65.2251
iter:  67 23:57:57  -967.751160  -3.69  -2.45    +65.3322
iter:  68 00:01:27  -967.567589  -4.00  -2.55    +65.1996
iter:  69 00:04:57  -967.609674  -4.03  -2.85    +65.3439
iter:  70 00:08:26  -967.570607c -4.49  -2.75    +65.4201
iter:  71 00:11:57  -967.558948c -4.55  -2.86    +65.6011
iter:  72 00:15:27  -967.560539c -4.74  -2.99    +65.6006
iter:  73 00:19:43  -967.569758c -4.70  -3.01    +65.5968
iter:  74 00:23:17  -967.594353c -4.90  -3.02    +65.5931
iter:  75 00:26:47  -967.580666c -4.70  -2.91    +65.6262
iter:  76 00:30:17  -967.591907c -4.68  -3.04    +65.6895
iter:  77 00:33:45  -967.602775c -4.45  -3.03    +65.6620
iter:  78 00:37:15  -967.589232c -4.87  -3.05    +65.6971
iter:  79 00:40:45  -967.587009c -5.07  -3.31    +65.7804
iter:  80 00:44:14  -967.627427c -4.76  -3.44    +65.7960
iter:  81 00:47:42  -967.588550c -5.17  -2.95    +65.7994
iter:  82 00:51:12  -967.592612c -5.42  -3.63    +65.8426
iter:  83 00:54:41  -967.593271c -5.77  -3.59    +65.8524
iter:  84 00:58:10  -967.596262c -5.55  -3.71    +65.8835
iter:  85 01:01:41  -967.597575c -5.97  -3.72    +65.8981
iter:  86 01:05:09  -967.600606c -5.61  -3.77    +65.9520
iter:  87 01:08:39  -967.604613c -5.48  -3.74    +65.9993
iter:  88 01:12:08  -967.603548c -6.54  -3.64    +65.9859
iter:  89 01:16:20  -967.620664c -4.42  -3.65    +66.2147
iter:  90 01:19:50  -967.621145c -5.48  -3.50    +66.2362
iter:  91 01:23:19  -967.623584c -5.47  -3.46    +66.2865
iter:  92 01:26:48  -967.625358c -5.39  -3.48    +66.3484
iter:  93 01:30:11  -967.628339c -5.57  -3.42    +66.3820
iter:  94 01:33:13  -967.650200c -4.98  -3.39    +66.4220
iter:  95 01:36:16  -967.638522c -5.20  -3.04    +66.4873
iter:  96 01:39:29  -967.633798c -4.93  -3.16    +66.5383
iter:  97 01:42:58  -967.652527c -4.87  -3.25    +66.5402
iter:  98 01:46:26  -967.643283c -4.70  -3.05    +66.5274
iter:  99 01:49:53  -967.630587c -5.13  -3.18    +66.4477
iter: 100 01:53:20  -967.632068c -5.63  -3.40    +66.5006
iter: 101 01:56:45  -967.631639c -5.34  -3.40    +66.5626
iter: 102 01:59:52  -967.631329c -5.82  -3.51    +66.5498
iter: 103 02:03:05  -967.633790c -5.53  -3.53    +66.5567
iter: 104 02:06:33  -967.634058c -5.68  -3.50    +66.5509
iter: 105 02:09:46  -967.644069c -5.15  -3.46    +66.5659
iter: 106 02:12:55  -967.633807c -5.36  -3.18    +66.5603
iter: 107 02:16:03  -967.632559c -5.47  -3.52    +66.5591
iter: 108 02:19:15  -967.633315c -5.95  -3.87    +66.5658
iter: 109 02:23:24  -967.632710c -6.24  -3.78    +66.5636
iter: 110 02:26:51  -967.633416c -6.29  -3.86    +66.5708
iter: 111 02:30:03  -967.639740c -5.74  -3.85    +66.5720
iter: 112 02:33:23  -967.633644c -6.01  -3.37    +66.5761
iter: 113 02:36:42  -967.633782c -6.38  -3.97    +66.5780
iter: 114 02:39:55  -967.633871c -6.84  -3.92    +66.5817
iter: 115 02:43:22  -967.634178c -6.59  -3.98    +66.5938
iter: 116 02:46:34  -967.634591c -6.57  -3.98    +66.6046
iter: 117 02:49:52  -967.635689c -6.45  -3.96    +66.6021
iter: 118 02:53:09  -967.635586c -6.34  -3.75    +66.6118
iter: 119 02:56:30  -967.636111c -6.56  -3.83    +66.6263
iter: 120 02:59:49  -967.636241c -6.36  -3.77    +66.6214
iter: 121 03:02:59  -967.635395c -6.26  -3.69    +66.6209
iter: 122 03:06:16  -967.635708c -6.08  -3.91    +66.6279
iter: 123 03:09:23  -967.637739c -5.94  -3.95    +66.6219
iter: 124 03:12:27  -967.636062c -6.21  -3.65    +66.6128
iter: 125 03:15:38  -967.636291c -6.51  -3.89    +66.6123
iter: 126 03:18:40  -967.636212c -6.49  -4.12c   +66.6061
iter: 127 03:21:57  -967.636381c -6.90  -4.13c   +66.6075
iter: 128 03:25:20  -967.636706c -6.74  -4.22c   +66.6087
iter: 129 03:28:33  -967.634819c -5.39  -4.20c   +66.6126
iter: 130 03:31:42  -967.635384c -6.61  -4.36c   +66.6172
iter: 131 03:35:54  -967.635306c -6.96  -4.28c   +66.6205
iter: 132 03:39:22  -967.635507c -6.82  -4.05c   +66.6209
iter: 133 03:42:49  -967.635631c -7.21  -4.39c   +66.6208
iter: 134 03:46:15  -967.635881c -6.88  -4.27c   +66.6244
iter: 135 03:49:43  -967.636293c -6.63  -4.31c   +66.6266
iter: 136 03:53:10  -967.635719c -6.62  -4.39c   +66.6250
iter: 137 03:56:38  -967.635506c -6.61  -4.43c   +66.6341
iter: 138 04:00:06  -967.635835c -6.70  -4.22c   +66.6308
iter: 139 04:03:35  -967.635723c -7.27  -4.23c   +66.6306
iter: 140 04:07:04  -967.636148c -6.96  -4.34c   +66.6291
iter: 141 04:10:32  -967.635717c -7.25  -4.42c   +66.6328
iter: 142 04:14:00  -967.635789c -7.44c -4.52c   +66.6422

Converged after 142 iterations.

Dipole moment: (45.586044, 22.198229, 0.003261) |e|*Ang

Total magnetic moment: (0.000000, 0.000000, 66.642224)
Local magnetic moments:
   0 Co ( 0.000000,  0.000000,  1.250082)
   1 Cr ( 0.000000,  0.000000,  0.825482)
   2 Co ( 0.000000,  0.000000,  0.793204)
   3 Cr ( 0.000000,  0.000000,  1.600821)
   4 Cr ( 0.000000,  0.000000, -2.365970)
   5 Ni ( 0.000000,  0.000000,  0.111015)
   6 Co ( 0.000000,  0.000000,  1.272356)
   7 Co ( 0.000000,  0.000000,  0.692441)
   8 Ni ( 0.000000,  0.000000,  0.122095)
   9 Co ( 0.000000,  0.000000,  0.978742)
  10 Cr ( 0.000000,  0.000000,  2.103967)
  11 Co ( 0.000000,  0.000000,  1.641285)
  12 Cr ( 0.000000,  0.000000, -1.697091)
  13 Al ( 0.000000,  0.000000, -0.012196)
  14 Cr ( 0.000000,  0.000000, -2.122390)
  15 Ni ( 0.000000,  0.000000,  0.449022)
  16 Co ( 0.000000,  0.000000,  1.014307)
  17 Cr ( 0.000000,  0.000000, -1.328619)
  18 Co ( 0.000000,  0.000000,  1.232264)
  19 Co ( 0.000000,  0.000000,  1.425451)
  20 Al ( 0.000000,  0.000000, -0.032494)
  21 Ni ( 0.000000,  0.000000,  0.180918)
  22 Cr ( 0.000000,  0.000000,  1.042413)
  23 Co ( 0.000000,  0.000000,  1.139175)
  24 Co ( 0.000000,  0.000000,  1.213704)
  25 Ni ( 0.000000,  0.000000,  0.313054)
  26 Cr ( 0.000000,  0.000000, -0.688024)
  27 Cr ( 0.000000,  0.000000, -0.370913)
  28 Al ( 0.000000,  0.000000, -0.036548)
  29 Fe ( 0.000000,  0.000000,  2.124826)
  30 Ni ( 0.000000,  0.000000,  0.187000)
  31 Fe ( 0.000000,  0.000000,  1.263131)
  32 Fe ( 0.000000,  0.000000,  1.079459)
  33 Co ( 0.000000,  0.000000,  0.408216)
  34 Ni ( 0.000000,  0.000000,  0.159825)
  35 Fe ( 0.000000,  0.000000,  2.236862)
  36 Al ( 0.000000,  0.000000, -0.044389)
  37 Cr ( 0.000000,  0.000000, -0.670450)
  38 Fe ( 0.000000,  0.000000,  2.093804)
  39 Fe ( 0.000000,  0.000000, -2.187806)
  40 Ni ( 0.000000,  0.000000,  0.440649)
  41 Co ( 0.000000,  0.000000,  1.044703)
  42 Fe ( 0.000000,  0.000000,  1.367336)
  43 Fe ( 0.000000,  0.000000,  1.937749)
  44 Ni ( 0.000000,  0.000000,  0.226817)
  45 Fe ( 0.000000,  0.000000,  2.506867)
  46 Cr ( 0.000000,  0.000000,  0.653446)
  47 Co ( 0.000000,  0.000000,  0.803243)
  48 Ni ( 0.000000,  0.000000,  0.390797)
  49 Fe ( 0.000000,  0.000000,  2.563716)
  50 Fe ( 0.000000,  0.000000,  1.796098)
  51 Cr ( 0.000000,  0.000000, -0.887308)
  52 Cr ( 0.000000,  0.000000, -0.937552)
  53 Fe ( 0.000000,  0.000000,  1.881892)
  54 Cr ( 0.000000,  0.000000, -0.763060)
  55 Fe ( 0.000000,  0.000000,  2.124899)
  56 Fe ( 0.000000,  0.000000,  1.867148)
  57 Cr ( 0.000000,  0.000000, -0.822114)
  58 Ni ( 0.000000,  0.000000,  0.104158)
  59 Fe ( 0.000000,  0.000000, -2.084464)
  60 Ni ( 0.000000,  0.000000,  0.404204)
  61 Fe ( 0.000000,  0.000000,  2.012370)
  62 Co ( 0.000000,  0.000000,  0.816230)
  63 Ni ( 0.000000,  0.000000,  0.169419)
  64 Ni ( 0.000000,  0.000000,  0.044818)
  65 Ni ( 0.000000,  0.000000,  0.590099)
  66 Co ( 0.000000,  0.000000,  1.344119)
  67 Fe ( 0.000000,  0.000000,  2.175618)
  68 Fe ( 0.000000,  0.000000, -2.197888)
  69 Ni ( 0.000000,  0.000000,  0.324232)
  70 Co ( 0.000000,  0.000000,  1.140387)
  71 Ni ( 0.000000,  0.000000,  0.258519)
  72 Fe ( 0.000000,  0.000000,  2.036327)
  73 Co ( 0.000000,  0.000000,  0.816896)
  74 Ni ( 0.000000,  0.000000,  0.225289)
  75 Cr ( 0.000000,  0.000000, -0.970241)
  76 Fe ( 0.000000,  0.000000,  2.138872)
  77 Ni ( 0.000000,  0.000000,  0.473042)
  78 Ni ( 0.000000,  0.000000,  0.269767)
  79 Fe ( 0.000000,  0.000000,  1.633146)
  80 Ni ( 0.000000,  0.000000,  0.304710)
  81 Fe ( 0.000000,  0.000000,  2.289077)
  82 Ni ( 0.000000,  0.000000,  0.219338)
  83 Cr ( 0.000000,  0.000000, -0.428282)
  84 Fe ( 0.000000,  0.000000,  1.907907)
  85 Ni ( 0.000000,  0.000000,  0.339602)
  86 Fe ( 0.000000,  0.000000,  2.429634)
  87 Fe ( 0.000000,  0.000000,  2.108789)
  88 Fe ( 0.000000,  0.000000,  1.857010)
  89 Cr ( 0.000000,  0.000000,  1.145750)
  90 Ni ( 0.000000,  0.000000,  0.227964)
  91 Ni ( 0.000000,  0.000000,  0.408658)
  92 Cr ( 0.000000,  0.000000, -1.693594)
  93 Fe ( 0.000000,  0.000000,  1.937387)
  94 Cr ( 0.000000,  0.000000, -1.191075)
  95 Cr ( 0.000000,  0.000000,  0.374851)
  96 Co ( 0.000000,  0.000000,  0.934469)
  97 Co ( 0.000000,  0.000000,  1.292416)
  98 Fe ( 0.000000,  0.000000,  2.355147)
  99 Al ( 0.000000,  0.000000, -0.032065)
 100 Cr ( 0.000000,  0.000000,  1.609618)
 101 Cr ( 0.000000,  0.000000, -2.380906)
 102 Co ( 0.000000,  0.000000,  1.583821)
 103 Fe ( 0.000000,  0.000000,  2.438772)
 104 Cr ( 0.000000,  0.000000, -2.019239)
 105 Ni ( 0.000000,  0.000000,  0.281482)
 106 Co ( 0.000000,  0.000000,  1.443042)
 107 Co ( 0.000000,  0.000000,  1.388708)
 108 Co ( 0.000000,  0.000000,  1.145923)
 109 Co ( 0.000000,  0.000000,  0.897795)
 110 Co ( 0.000000,  0.000000,  1.379536)
 111 Cr ( 0.000000,  0.000000, -2.484274)
 112 Cr ( 0.000000,  0.000000, -2.123360)
 113 Fe ( 0.000000,  0.000000,  2.206945)
 114 Al ( 0.000000,  0.000000, -0.015863)
 115 Co ( 0.000000,  0.000000,  1.314579)
 116 Co ( 0.000000,  0.000000,  1.292869)
 117 Ni ( 0.000000,  0.000000,  0.316077)
 118 Cr ( 0.000000,  0.000000, -1.941611)
 119 Cr ( 0.000000,  0.000000, -1.798626)
 120 Ni ( 0.000000,  0.000000,  0.196615)
 121 Ni ( 0.000000,  0.000000,  0.228802)
 122 Co ( 0.000000,  0.000000,  1.387928)
 123 Ni ( 0.000000,  0.000000,  0.191054)
 124 Cr ( 0.000000,  0.000000,  1.657618)

Energy contributions relative to reference atoms: (reference = -4275894.041763)

Kinetic:       +254.027611
Potential:     -293.795656
External:        +0.000000
XC:            -967.827766
Entropy (-ST):   -5.683566
Local:          +42.801805
--------------------------
Free energy:   -970.477572
Extrapolated:  -967.635789

Dipole-layer corrected work functions: 4.949740, 4.945368 eV

Spin contamination: 42.350049 electrons
Showing all kpts
                      Up                     Down
 Kpt  Band  Eigenvalues  Occupancy  Eigenvalues  Occupancy
  0   587      0.00620    0.99147      0.78850    0.04446
  0   588      0.02093    0.99013      0.79427    0.04208
  0   589      0.02574    0.98965      0.80358    0.03848
  0   590      0.03882    0.98822      0.81939    0.03304

  1   587      0.02792    0.98942      0.78313    0.04680
  1   588      0.04406    0.98759      0.79662    0.04114
  1   589      0.05134    0.98667      0.80308    0.03866
  1   590      0.06620    0.98456      0.81269    0.03525


Fermi level: 0.48174

No gap

Forces in eV/Ang:
  0 Co   -0.04499    0.21328    0.67493
  1 Cr    0.31203    0.08972    0.27726
  2 Co   -0.22948    0.10095    0.34254
  3 Cr   -0.34611    0.69268   -0.54080
  4 Cr   -0.31593    0.54012   -0.21490
  5 Ni   -0.18242   -0.06418   -0.09329
  6 Co    0.41949    0.08361   -0.10756
  7 Co   -0.07574    0.24080   -0.01965
  8 Ni   -0.14639    0.05969   -0.20201
  9 Co    0.36379   -0.05963    0.26395
 10 Cr    0.14651    0.03190   -0.36168
 11 Co    0.27639    0.14248    1.00471
 12 Cr   -1.54322    0.17597    0.23176
 13 Al    0.14196   -0.45471   -1.67610
 14 Cr    0.83199    0.04320   -0.09901
 15 Ni    0.18609   -0.31831    0.28053
 16 Co   -0.21226   -0.60638    0.37905
 17 Cr   -0.44039    0.62932    0.21312
 18 Co    0.18773    0.23661    0.44702
 19 Co   -0.11781    0.55240   -0.00448
 20 Al    0.79655   -0.70361   -0.78637
 21 Ni   -0.10666    0.08094   -0.06995
 22 Cr    0.10745    0.22016    0.22740
 23 Co   -0.02351   -0.37775   -0.02935
 24 Co   -0.10868   -0.25329   -0.08464
 25 Ni   -0.34541   -0.29520    0.36882
 26 Cr   -0.10766    0.25851   -0.72403
 27 Cr   -0.89692    0.03290   -0.50005
 28 Al    0.44073   -0.26664    0.15942
 29 Fe    0.58904    0.01113    0.09536
 30 Ni   -0.22369   -0.37524    0.04618
 31 Fe   -0.20588   -0.64459   -0.33789
 32 Fe   -0.11742    0.14132   -0.05097
 33 Co    0.02788    0.18221    0.05224
 34 Ni    0.29088   -0.24385    0.18862
 35 Fe   -0.46500   -0.29342   -0.04537
 36 Al   -0.34213    0.54800   -0.45647
 37 Cr    0.70639   -0.15759   -0.20561
 38 Fe   -0.11101   -0.45893    0.59341
 39 Fe    0.18183   -0.24808    0.36347
 40 Ni    0.26787    0.33359   -0.12920
 41 Co    0.14647    0.36071   -0.37657
 42 Fe   -0.49899    0.26921    0.32011
 43 Fe    0.41897    0.17683    0.42742
 44 Ni   -0.23637    0.01477    0.36555
 45 Fe    0.28724    0.13840    0.31557
 46 Cr   -0.04539   -0.26166   -0.33061
 47 Co   -0.11271    0.15405    0.05742
 48 Ni   -0.06564   -0.31291   -0.03343
 49 Fe    0.56440   -0.81549   -0.05794
 50 Fe   -0.26845   -0.25647   -0.42955
 51 Cr   -0.06351    0.04367    0.20285
 52 Cr   -0.39048   -0.13732    0.81272
 53 Fe   -0.01973    0.27456   -0.35283
 54 Cr    0.27459   -0.06905   -0.35337
 55 Fe   -0.30715    0.03616   -0.38369
 56 Fe    0.08421   -0.38031    0.12527
 57 Cr    0.03742    0.16983   -0.42857
 58 Ni    0.11701   -0.01573   -0.00356
 59 Fe    0.15773    0.17233   -0.03916
 60 Ni   -0.04659    0.09663   -0.07653
 61 Fe    0.32692    0.23384    0.00177
 62 Co   -0.04976   -0.02743    0.07014
 63 Ni    0.21753    0.26842   -0.21763
 64 Ni   -0.43105    0.43116   -0.12085
 65 Ni    0.18654    0.37082   -0.41159
 66 Co   -0.18210    0.07135   -0.04429
 67 Fe    0.09217   -0.03054    0.20934
 68 Fe    0.03702   -0.21999    0.07306
 69 Ni   -0.33463    0.00822    0.16384
 70 Co   -0.16497    0.23464   -0.38373
 71 Ni    0.01793   -0.05872    0.26231
 72 Fe    0.44455   -0.19897    0.13324
 73 Co   -0.43169   -0.30155    0.24553
 74 Ni    0.16591   -0.27167   -0.40568
 75 Cr   -0.09300    0.41897    0.41477
 76 Fe    0.12225   -0.30906    0.30663
 77 Ni    0.31656   -0.26828    0.06239
 78 Ni   -0.23037   -0.14701    0.23695
 79 Fe    0.02046    0.64416    0.20297
 80 Ni   -0.20814    0.28645   -0.15205
 81 Fe    0.16982   -0.08499    0.26501
 82 Ni    0.01434   -0.00455   -0.08612
 83 Cr    0.24041   -0.02863   -0.12588
 84 Fe   -0.20241   -0.39253   -0.54758
 85 Ni    0.07398   -0.10371    0.34689
 86 Fe    0.11526    0.16740    0.40619
 87 Fe    0.05850   -0.02187    0.04164
 88 Fe   -0.24128    0.02983   -0.05387
 89 Cr    0.29066    0.74035   -0.36265
 90 Ni   -0.12803   -0.17018   -0.07577
 91 Ni    0.18656   -0.07530   -0.34425
 92 Cr    0.11067    0.05236    0.21418
 93 Fe    0.20635    0.47538    0.25705
 94 Cr   -0.62594    0.17442   -0.42248
 95 Cr    1.17848   -0.52051   -0.00245
 96 Co    0.03863   -0.18450   -0.37272
 97 Co    0.59974   -0.24238    0.23261
 98 Fe   -0.49875    0.00119    0.19397
 99 Al   -0.87188    0.30422   -1.21303
100 Cr   -0.20331    0.22360    0.13129
101 Cr    0.02191    0.16119    0.05960
102 Co    0.30680   -0.00013   -0.65272
103 Fe   -0.65972    0.37798    0.18647
104 Cr    0.45601    0.64354    0.73437
105 Ni   -0.12184    0.25901    0.35956
106 Co    0.14574   -0.06709    0.17054
107 Co   -0.00998   -0.32202   -0.24396
108 Co   -0.16090    0.11577   -0.11365
109 Co   -0.15473    0.07470   -0.15137
110 Co    0.16863   -0.02254   -0.26461
111 Cr   -0.96120    0.12772    0.33061
112 Cr    0.64529    0.05438    0.32819
113 Fe   -0.00441   -0.17801    0.09530
114 Al    0.39560   -1.13559    0.72346
115 Co    0.14077   -0.12160   -0.16604
116 Co    0.05561   -0.05424   -0.24351
117 Ni   -0.14666    0.30480    0.21021
118 Cr   -0.30918    0.66555   -0.04559
119 Cr    0.31773   -0.22234    0.06275
120 Ni    0.29708   -0.35439   -0.04226
121 Ni    0.00970   -0.44162    0.01343
122 Co    0.01994   -0.18967   -0.07922
123 Ni   -0.21226    0.21022   -0.36785
124 Cr   -0.16968   -0.84016    0.67687

Timing:                              incl.     excl.
-----------------------------------------------------------
Forces:                             51.604    51.604   0.2% |
Hamiltonian:                         1.865     0.017   0.0% |
 Atomic:                             0.445     0.002   0.0% |
  XC Correction:                     0.443     0.443   0.0% |
 Calculate atomic Hamiltonians:      0.735     0.735   0.0% |
 Communicate:                        0.060     0.060   0.0% |
 Initialize Hamiltonian:             0.001     0.001   0.0% |
 Poisson:                            0.131     0.131   0.0% |
 XC 3D grid:                         0.477     0.477   0.0% |
LCAO initialization:               368.919     0.634   0.0% |
 LCAO eigensolver:                  26.097     0.022   0.0% |
  Calculate projections:             0.000     0.000   0.0% |
  DenseAtomicCorrection:             0.000     0.000   0.0% |
  Distribute overlap matrix:        13.134    13.134   0.0% |
  Orbital Layouts:                  12.877    12.877   0.0% |
  Potential matrix:                  0.008     0.008   0.0% |
  Sum over cells:                    0.056     0.056   0.0% |
 LCAO to grid:                     339.006   339.006   1.1% |
 Set positions (LCAO WFS):           3.183     2.784   0.0% |
  Basic WFS set positions:           0.004     0.004   0.0% |
  Basis functions set positions:     0.001     0.001   0.0% |
  P tci:                             0.000     0.000   0.0% |
  ST tci:                            0.164     0.164   0.0% |
  mktci:                             0.230     0.230   0.0% |
PWDescriptor:                        0.127     0.127   0.0% |
SCF-cycle:                       29614.554     2.417   0.0% |
 Davidson:                       28592.602  7811.735  26.0% |---------|
  Apply H:                         522.544   513.085   1.7% ||
   HMM T:                            9.460     9.460   0.0% |
  Subspace diag:                  2738.048     0.158   0.0% |
   calc_h_matrix:                 1162.417   703.622   2.3% ||
    Apply H:                       458.796   448.251   1.5% ||
     HMM T:                         10.545    10.545   0.0% |
   diagonalize:                    280.310   280.310   0.9% |
   rotate_psi:                    1295.162  1295.162   4.3% |-|
  calc. matrices:                 6390.423  5511.335  18.3% |------|
   Apply H:                        879.088   857.274   2.9% ||
    HMM T:                          21.814    21.814   0.1% |
  diagonalize:                    8354.644  8354.644  27.8% |----------|
  rotate_psi:                     2775.208  2775.208   9.2% |---|
 Density:                          594.935     0.009   0.0% |
  Atomic density matrices:           5.517     5.517   0.0% |
  Mix:                             347.878   347.878   1.2% |
  Multipole moments:                 0.173     0.173   0.0% |
  Pseudo density:                  241.358   241.346   0.8% |
   Symmetrize density:               0.013     0.013   0.0% |
 Hamiltonian:                      402.964     3.596   0.0% |
  Atomic:                           62.664     0.496   0.0% |
   XC Correction:                   62.168    62.168   0.2% |
  Calculate atomic Hamiltonians:   247.343   247.343   0.8% |
  Communicate:                      10.127    10.127   0.0% |
  Poisson:                          12.921    12.921   0.0% |
  XC 3D grid:                       66.314    66.314   0.2% |
 Orthonormalize:                    21.635     0.001   0.0% |
  calc_s_matrix:                     2.756     2.756   0.0% |
  inverse-cholesky:                  1.114     1.114   0.0% |
  projections:                      13.106    13.106   0.0% |
  rotate_psi_s:                      4.658     4.658   0.0% |
Set symmetry:                        0.001     0.001   0.0% |
Other:                              11.793    11.793   0.0% |
-----------------------------------------------------------
Total:                                     30048.863 100.0%

Date: Fri Apr 21 04:14:59 2023
