
  ___ ___ ___ _ _ _  
 |   |   |_  | | | | 
 | | | | | . | | | | 
 |__ |  _|___|_____|  22.8.0
 |___|_|             

User:   c.zeng@d0088
Date:   Tue Apr 18 00:15:15 2023
Arch:   x86_64
Pid:    101855
CWD:    /home/c.zeng/projects/hea-corrosion/hea-mlp/data-curation/surface-md/dft-jobs/94
Python: 3.8.1
gpaw:   /home/c.zeng/usr/installs/gpaw/source/gpaw-22.8.0/gpaw
_gpaw:  /home/c.zeng/usr/installs/gpaw/source/gpaw-22.8.0/
        _gpaw.cpython-38-x86_64-linux-gnu.so
ase:    /home/c.zeng/.local/lib/python3.8/site-packages/ase-3.22.1-py3.8.egg/ase (version 3.22.1)
numpy:  /home/c.zeng/.local/lib/python3.8/site-packages/numpy (version 1.24.2)
scipy:  /home/c.zeng/.local/lib/python3.8/site-packages/scipy (version 1.10.1)
libxc:  4.2.3
units:  Angstrom and eV
cores: 30
OpenMP: False
OMP_NUM_THREADS: 1

Input parameters:
  convergence: {energy: 0.0001}
  kpts: [2 2 1]
  maxiter: 666
  mode: {ecut: 350.0,
         name: pw}
  occupations: {fixmagmom: False,
                name: fermi-dirac,
                width: 0.1}
  poissonsolver: {dipolelayer: xy}
  spinpol: True
  symmetry: {point_group: False}
  xc: PBE

System changes: positions, numbers, cell, pbc, initial_charges, initial_magmoms 

Initialize ...

species:
  Co:
    name: Cobalt
    id: 339d20d5b0b93d2de9531a1bee871d91
    Z: 27.0
    valence: 9
    core: 18
    charge: 0.0
    file: /home/c.zeng/usr/data/gpaw-setups-0.9.20000/Co.PBE.gz
    compensation charges: {type: gauss,
                           rc: 0.32,
                           lmax: 2}
    cutoffs: {filter: 1.87,
              core: 2.55}
    valence states:
      #              energy  rcut
      - 4s(2.00)    -5.469   1.005
      - 4p(0.00)    -1.277   1.058
      - 3d(7.00)    -8.205   1.005
      -  s          21.742   1.005
      -  p          25.934   1.058
      -  d          19.007   1.005
  
    # Using partial waves for Co as LCAO basis

  Fe:
    name: Iron
    id: 37abbd8d6c3c35915a9b583b742da910
    Z: 26.0
    valence: 8
    core: 18
    charge: 0.0
    file: /home/c.zeng/usr/data/gpaw-setups-0.9.20000/Fe.PBE.gz
    compensation charges: {type: gauss,
                           rc: 0.33,
                           lmax: 2}
    cutoffs: {filter: 2.06,
              core: 2.67}
    valence states:
      #              energy  rcut
      - 4s(2.00)    -5.291   1.164
      - 4p(0.00)    -1.326   1.058
      - 3d(6.00)    -7.505   1.058
      -  s          21.920   1.164
      -  p          25.885   1.058
      -  d          19.706   1.058
  
    # Using partial waves for Fe as LCAO basis

  Al:
    name: Aluminium
    id: 0292cae29f5d6237e50f6abdd43a7bdd
    Z: 13.0
    valence: 3
    core: 10
    charge: 0.0
    file: /home/c.zeng/usr/data/gpaw-setups-0.9.20000/Al.PBE.gz
    compensation charges: {type: gauss,
                           rc: 0.34,
                           lmax: 2}
    cutoffs: {filter: 1.91,
              core: 2.36}
    valence states:
      #              energy  rcut
      - 3s(2.00)    -7.753   1.085
      - 3p(1.00)    -2.712   1.085
      -  s          19.459   1.085
      -  p          24.499   1.085
      -  d           0.000   1.085
  
    # Using partial waves for Al as LCAO basis

  Cr:
    name: Chromium
    id: 33f258bda2ca9f93018e70263a35547b
    Z: 24.0
    valence: 6
    core: 18
    charge: 0.0
    file: /home/c.zeng/usr/data/gpaw-setups-0.9.20000/Cr.PBE.gz
    compensation charges: {type: gauss,
                           rc: 0.35,
                           lmax: 2}
    cutoffs: {filter: 2.14,
              core: 3.04}
    valence states:
      #              energy  rcut
      - 4s(1.00)    -4.007   1.164
      - 4p(0.00)    -0.989   1.217
      - 3d(5.00)    -2.913   1.111
      -  s          23.205   1.164
      -  p          26.223   1.217
      -  d          24.299   1.111
  
    # Using partial waves for Cr as LCAO basis

  Ni:
    name: Nickel
    id: 0d9f38a9d6e76a2886f07bb4381f212b
    Z: 28.0
    valence: 16
    core: 12
    charge: 0.0
    file: /home/c.zeng/usr/data/gpaw-setups-0.9.20000/Ni.PBE.gz
    compensation charges: {type: gauss,
                           rc: 0.36,
                           lmax: 2}
    cutoffs: {filter: 2.14,
              core: 1.98}
    valence states:
      #              energy  rcut
      - 4s(2.00)    -5.642   1.164
      - 3p(6.00)   -71.394   1.207
      - 4p(0.00)    -1.226   1.207
      - 3d(8.00)    -8.875   1.138
      -  s          21.570   1.164
      -  d          18.337   1.138
  
    # Using partial waves for Ni as LCAO basis

Reference energy: -3726899.091688  # eV

Spin-polarized calculation.
Magnetic moment: 140.000000

Convergence criteria:
 Maximum [total energy] change in last 3 cyles: 0.0001 eV / electron
 Maximum integral of absolute [dens]ity change: 0.0001 electrons / valence electron
 Maximum integral of absolute [eigenst]ate change: 4e-08 eV^2 / valence electron
 Maximum number of scf [iter]ations: 666
 (Square brackets indicate name in SCF output, whereas a 'c' in
 the SCF output indicates the quantity has converged.)

Symmetries present (total): 1

  ( 1  0  0)
  ( 0  1  0)
  ( 0  0  1)

4 k-points: 2 x 2 x 1 Monkhorst-Pack grid
2 k-points in the irreducible part of the Brillouin zone
       k-points in crystal coordinates                weights
   0:     0.25000000   -0.25000000    0.00000000          2/4
   1:     0.25000000    0.25000000    0.00000000          2/4

Wave functions: Plane wave expansion
  Cutoff energy: 350.000 eV
  Number of coefficients (min, max): 60935, 60955
  Pulay-stress correction: 0.000000 eV/Ang^3 (de/decut=0.000000)
  Using FFTW library
  ScaLapack parameters: grid=1x1, blocksize=None
  Wavefunction extrapolation:
    Improved wavefunction reuse through dual PAW basis 

Occupation numbers: Fermi-Dirac:
  width: 0.1000  # eV
 

Eigensolver
   Davidson(niter=2) 

Densities:
  Coarse grid: 56*56*128 grid
  Fine grid: 112*112*256 grid
  Total Charge: 0.000000 

Density mixing:
  Method: difference
  Backend: pulay
  Linear mixing parameter: 0.05
  old densities: 5
  Damping of long wavelength oscillations: 50 

Hamiltonian:
  XC and Coulomb potentials evaluated on a 112*112*256 grid
  Using the PBE Exchange-Correlation functional
  External potential:
    NoExternalPotential
 

XC parameters: PBE with 2 nearest neighbor stencil

Memory estimate:
  Process memory now: 379.71 MiB
  Calculator: 2131.41 MiB
    Density: 19.02 MiB
      Arrays: 7.39 MiB
      Localized functions: 8.68 MiB
      Mixer: 2.95 MiB
    Hamiltonian: 5.75 MiB
      Arrays: 5.49 MiB
      XC: 0.00 MiB
      Poisson: 0.00 MiB
      vbar: 0.26 MiB
    Wavefunctions: 2106.64 MiB
      Arrays psit_nG: 1335.62 MiB
      Eigensolver: 751.15 MiB
      Projections: 3.10 MiB
      Projectors: 1.18 MiB
      PW-descriptor: 15.59 MiB

Total number of cores used: 30
Parallelization over k-points: 2
Domain decomposition: 1 x 3 x 5

Number of atoms: 125
Number of atomic orbitals: 1075
Number of bands in calculation: 718
Number of valence electrons: 1050
Bands to converge: occupied

... initialized

Initializing position-dependent things.

Density initialized from atomic densities
Creating initial wave functions:
  718 bands from LCAO basis set

                                                                     
                                                                     
                                                                     
                                                                     
                                                                     
                                                                     
                     Fe                 Cr                           
                                                 Al                  
                                 Alr  Al  Ni  Crl                    
                       Ni    CCFe   Ni    Fe    Cr    Al             
                          Ni          Fe     Cr     Co               
                     Al   Cr  FeNi   Ni  Ni                          
               Cr     Ni  Co   Crl  FeFe   AlCoNi                    
                      CrAl  Fe    NiAl    Ni                         
                Fe    Fe  Cr   Coi    Co       Fe                    
                   FeCr     Fe     Cr      Al                        
                 Cr     Co           Fe  Al    Al         Al         
            Co    Ni   Fe Co NCo Co        Al     Ni                 
                  Cr    Cr Ni Fe  Nii  Cr  Ni                        
                    Cr       Cr     Ni Cr FeCr        Ni             
         Co    Ni Fe    Al Ni NCoCoCo  Cr Cr   AlAl                  
              Al    FCo Fe  AlCo                                     
          Cr    Co        Co     CoCo  Al   Fe                       
            Cr    Al   Ni    CoCo                                    
                        Fe                                           
             Fe  ACo                 Al                              
                               Fe                                    
                                                                     
                                                                     
                                                                     
                                                                     
                                                                     
                                                                     

Positions:
   0 Co    10.647417    0.884863   11.059803    ( 0.0000,  0.0000,  2.1000)
   1 Fe     2.973545    0.864772    9.746436    ( 0.0000,  0.0000,  2.0000)
   2 Co     5.387922    0.720170    9.814159    ( 0.0000,  0.0000,  2.1000)
   3 Fe     7.982117    0.250832   11.194449    ( 0.0000,  0.0000,  2.0000)
   4 Co    10.527326   -1.060368   14.002045    ( 0.0000,  0.0000,  2.1000)
   5 Fe    10.589498    1.212564    8.457212    ( 0.0000,  0.0000,  2.0000)
   6 Co     4.107946    2.076870   11.595936    ( 0.0000,  0.0000,  2.1000)
   7 Al     4.257918    2.967670    8.948262    ( 0.0000,  0.0000,  0.0000)
   8 Co     9.391641    2.651738   10.440125    ( 0.0000,  0.0000,  2.1000)
   9 Co    11.794608    3.044448   10.630484    ( 0.0000,  0.0000,  2.1000)
  10 Fe    13.723299    6.304260   11.926479    ( 0.0000,  0.0000,  2.0000)
  11 Fe     3.285986    5.361833    9.496527    ( 0.0000,  0.0000,  2.0000)
  12 Co     7.666820    4.689984   10.119207    ( 0.0000,  0.0000,  2.1000)
  13 Co    10.263188    5.116276   10.295758    ( 0.0000,  0.0000,  2.1000)
  14 Al    12.836878    5.273866    9.824884    ( 0.0000,  0.0000,  0.0000)
  15 Fe    14.335569    7.211019    9.167583    ( 0.0000,  0.0000,  2.0000)
  16 Al     6.166227    7.171974   10.396034    ( 0.0000,  0.0000,  0.0000)
  17 Co     9.018961    7.364353   10.228122    ( 0.0000,  0.0000,  2.1000)
  18 Cr    11.966210    7.373591   10.243235    ( 0.0000,  0.0000,  0.0000)
  19 Ni    15.970956    9.751176   11.814248    ( 0.0000,  0.0000,  1.5000)
  20 Ni    17.915788    9.498301   10.581758    ( 0.0000,  0.0000,  1.5000)
  21 Ni     8.065583    9.611347    9.695292    ( 0.0000,  0.0000,  1.5000)
  22 Cr    12.855330    9.860018    8.854643    ( 0.0000,  0.0000,  0.0000)
  23 Al    15.701900    9.644572    9.184279    ( 0.0000,  0.0000,  0.0000)
  24 Al    14.316549   11.833072    8.596589    ( 0.0000,  0.0000,  0.0000)
  25 Al    19.211240   10.369707   12.534457    ( 0.0000,  0.0000,  0.0000)
  26 Al    10.347513    9.468911   10.044557    ( 0.0000,  0.0000,  0.0000)
  27 Al     5.416466   -0.773920   11.887139    ( 0.0000,  0.0000,  0.0000)
  28 Fe     7.966379   -0.689561   13.695776    ( 0.0000,  0.0000,  2.0000)
  29 Cr    10.294703   -2.250583   16.288493    ( 0.0000,  0.0000,  0.0000)
  30 Al    12.979040    0.817860    9.698921    ( 0.0000,  0.0000,  0.0000)
  31 Ni     3.924942    0.790468   13.616357    ( 0.0000,  0.0000,  1.5000)
  32 Ni     6.835319    2.339302   10.826028    ( 0.0000,  0.0000,  1.5000)
  33 Al     9.030239    1.571629   12.952710    ( 0.0000,  0.0000,  0.0000)
  34 Co    11.903333    1.458451   13.237881    ( 0.0000,  0.0000,  2.1000)
  35 Al     2.734195    4.066864   11.567391    ( 0.0000,  0.0000,  0.0000)
  36 Fe     5.195996    4.781236   10.608355    ( 0.0000,  0.0000,  2.0000)
  37 Ni     7.966025    3.835840   12.655406    ( 0.0000,  0.0000,  1.5000)
  38 Co    10.519160    3.656815   12.618285    ( 0.0000,  0.0000,  2.1000)
  39 Cr    12.912379    4.216973   12.508500    ( 0.0000,  0.0000,  0.0000)
  40 Fe     3.599421    7.397914   10.895614    ( 0.0000,  0.0000,  2.0000)
  41 Cr     6.433310    5.871983   12.542506    ( 0.0000,  0.0000,  0.0000)
  42 Fe     8.722693    6.053473   12.496747    ( 0.0000,  0.0000,  2.0000)
  43 Ni    11.201484    5.914674   12.181513    ( 0.0000,  0.0000,  1.5000)
  44 Cr    15.418122    3.268593   13.683092    ( 0.0000,  0.0000,  0.0000)
  45 Fe     5.293992    8.138354   12.523257    ( 0.0000,  0.0000,  2.0000)
  46 Ni     7.836190    8.371296   12.095132    ( 0.0000,  0.0000,  1.5000)
  47 Ni    10.276240    8.218550   12.123997    ( 0.0000,  0.0000,  1.5000)
  48 Ni    13.574572    8.677478   11.528995    ( 0.0000,  0.0000,  1.5000)
  49 Al    15.386343    7.781681   13.843363    ( 0.0000,  0.0000,  0.0000)
  50 Co     1.548766    0.927460   13.392008    ( 0.0000,  0.0000,  2.1000)
  51 Cr     2.854509   -0.334508   11.806729    ( 0.0000,  0.0000,  0.0000)
  52 Co     6.397322    1.426928   12.959504    ( 0.0000,  0.0000,  2.1000)
  53 Ni     9.089735   -0.114467   15.988687    ( 0.0000,  0.0000,  1.5000)
  54 Ni    11.793612    0.381519   15.291433    ( 0.0000,  0.0000,  1.5000)
  55 Cr     1.468017    2.077027   11.452861    ( 0.0000,  0.0000,  0.0000)
  56 Cr     5.461950    3.663448   12.929791    ( 0.0000,  0.0000,  0.0000)
  57 Co     8.110974    2.579794   15.234446    ( 0.0000,  0.0000,  2.1000)
  58 Co    10.657672    2.728002   15.050457    ( 0.0000,  0.0000,  2.1000)
  59 Cr    13.165483    2.876209   14.606665    ( 0.0000,  0.0000,  0.0000)
  60 Cr     3.995040    5.597874   12.938854    ( 0.0000,  0.0000,  0.0000)
  61 Co     6.510185    4.646972   14.918467    ( 0.0000,  0.0000,  2.1000)
  62 Co     9.117652    5.029819   14.530088    ( 0.0000,  0.0000,  2.1000)
  63 Ni    10.455020    6.306761   16.479327    ( 0.0000,  0.0000,  1.5000)
  64 Al    14.254822    5.461109   14.312830    ( 0.0000,  0.0000,  0.0000)
  65 Cr     5.089178    6.723684   14.860319    ( 0.0000,  0.0000,  0.0000)
  66 Fe     7.692500    7.226423   14.296420    ( 0.0000,  0.0000,  2.0000)
  67 Cr    10.423854    7.211462   14.375964    ( 0.0000,  0.0000,  0.0000)
  68 Al    12.996537    7.623547   13.862308    ( 0.0000,  0.0000,  0.0000)
  69 Fe    15.627483    6.518679   16.192106    ( 0.0000,  0.0000,  2.0000)
  70 Cr     6.309891    9.132961   14.741662    ( 0.0000,  0.0000,  0.0000)
  71 Ni     8.799334    9.855562   14.351003    ( 0.0000,  0.0000,  1.5000)
  72 Co    11.286695    9.782975   14.144824    ( 0.0000,  0.0000,  2.1000)
  73 Co    14.043642    9.005350   16.197936    ( 0.0000,  0.0000,  2.1000)
  74 Cr    14.652457    7.701377   18.376670    ( 0.0000,  0.0000,  0.0000)
  75 Al    12.333527    1.559622   19.315755    ( 0.0000,  0.0000,  0.0000)
  76 Co     2.523507    2.110597   15.625066    ( 0.0000,  0.0000,  2.1000)
  77 Ni     4.925221    2.229937   15.335677    ( 0.0000,  0.0000,  1.5000)
  78 Fe     6.342814    3.514780   17.036610    ( 0.0000,  0.0000,  2.0000)
  79 Fe    11.994250    5.002907   15.084382    ( 0.0000,  0.0000,  2.0000)
  80 Al    14.543526    4.195910   16.498534    ( 0.0000,  0.0000,  0.0000)
  81 Cr     4.099208    4.293651   15.368284    ( 0.0000,  0.0000,  0.0000)
  82 Cr     7.614685    4.806856   18.969446    ( 0.0000,  0.0000,  0.0000)
  83 Co     9.787583    4.199370   16.998852    ( 0.0000,  0.0000,  2.1000)
  84 Fe    11.737094    4.546228   18.229840    ( 0.0000,  0.0000,  2.0000)
  85 Ni    16.006062    5.708798   18.213011    ( 0.0000,  0.0000,  1.5000)
  86 Cr     5.643058    5.898720   17.124135    ( 0.0000,  0.0000,  0.0000)
  87 Fe     7.941191    5.979676   16.653146    ( 0.0000,  0.0000,  2.0000)
  88 Ni     9.708747    5.758003   18.601572    ( 0.0000,  0.0000,  1.5000)
  89 Co    13.364057    6.752228   16.690031    ( 0.0000,  0.0000,  2.1000)
  90 Co    17.320335    7.818869   18.722148    ( 0.0000,  0.0000,  2.1000)
  91 Co     6.399496    8.577656   16.858728    ( 0.0000,  0.0000,  2.1000)
  92 Fe     7.532210   10.832991   16.458124    ( 0.0000,  0.0000,  2.0000)
  93 Al     8.902109    8.378748   16.388573    ( 0.0000,  0.0000,  0.0000)
  94 Ni    13.289669    8.506856   20.170578    ( 0.0000,  0.0000,  1.5000)
  95 Cr    15.268173   10.083066   18.172413    ( 0.0000,  0.0000,  0.0000)
  96 Co     6.592489   13.441348   16.882634    ( 0.0000,  0.0000,  2.1000)
  97 Ni    10.256232   11.247586   16.144249    ( 0.0000,  0.0000,  1.5000)
  98 Al    13.001188   11.161434   15.455286    ( 0.0000,  0.0000,  0.0000)
  99 Al    14.306311   12.598080   17.593572    ( 0.0000,  0.0000,  0.0000)
 100 Cr     7.944324    9.718701   18.519358    ( 0.0000,  0.0000,  0.0000)
 101 Cr     9.036971   12.031262   17.808946    ( 0.0000,  0.0000,  0.0000)
 102 Fe     5.467526    1.254866   17.437353    ( 0.0000,  0.0000,  2.0000)
 103 Cr    11.620261   11.377872   19.704682    ( 0.0000,  0.0000,  0.0000)
 104 Al    15.845147    8.954699   20.312482    ( 0.0000,  0.0000,  0.0000)
 105 Cr     3.688701    2.335413   19.905585    ( 0.0000,  0.0000,  0.0000)
 106 Fe     3.954374    3.192883   17.393434    ( 0.0000,  0.0000,  2.0000)
 107 Ni     6.226974    2.505784   19.295908    ( 0.0000,  0.0000,  1.5000)
 108 Al     7.886494    0.050667   20.179287    ( 0.0000,  0.0000,  0.0000)
 109 Cr     9.932298    2.966053   19.218577    ( 0.0000,  0.0000,  0.0000)
 110 Ni    14.357434    3.134090   18.586495    ( 0.0000,  0.0000,  1.5000)
 111 Al     5.322311    4.689344   18.929532    ( 0.0000,  0.0000,  0.0000)
 112 Fe     9.544370    5.012899   20.907429    ( 0.0000,  0.0000,  2.0000)
 113 Al    12.112986    6.049380   20.935532    ( 0.0000,  0.0000,  0.0000)
 114 Ni    13.472417    5.614951   19.079922    ( 0.0000,  0.0000,  1.5000)
 115 Al    17.695089   10.304534   17.900184    ( 0.0000,  0.0000,  0.0000)
 116 Ni     7.087670    7.075807   18.952768    ( 0.0000,  0.0000,  1.5000)
 117 Al     9.553257    7.515479   20.204743    ( 0.0000,  0.0000,  0.0000)
 118 Fe    11.779828    7.465928   18.477498    ( 0.0000,  0.0000,  2.0000)
 119 Cr    15.095271    6.689212   20.371640    ( 0.0000,  0.0000,  0.0000)
 120 Fe     3.649144   11.600944   19.958058    ( 0.0000,  0.0000,  2.0000)
 121 Ni     4.219719   12.533393   17.278728    ( 0.0000,  0.0000,  1.5000)
 122 Ni    10.587304    9.414873   18.667777    ( 0.0000,  0.0000,  1.5000)
 123 Fe    11.579144    8.751353   16.302133    ( 0.0000,  0.0000,  2.0000)
 124 Fe    12.878882    9.985937   18.181649    ( 0.0000,  0.0000,  2.0000)

Unit cell:
           periodic     x           y           z      points  spacing
  1. axis:    yes   12.688900    0.000000    0.000000    56     0.1962
  2. axis:    yes    6.352870   11.003500    0.000000    56     0.1965
  3. axis:    no     0.000000    0.000000   29.353100   128     0.2293

  Lengths:  12.688900  12.705746  29.353100
  Angles:   90.000000  90.000000  60.000014

Effective grid spacing dv^(1/3) = 0.2169

     iter     time        total  log10-change:  magmom
                         energy  eigst   dens
iter:   1 00:21:11 -1089.129439                  +140.3334
iter:   2 00:23:16 -1109.065624  +0.09  -1.08    +73.0773
iter:   3 00:25:21 -2929.626858  +1.30  -0.92    +66.7289
iter:   4 00:27:27  -906.983314  +0.42  -0.53    +53.6129
iter:   5 00:29:32  -939.963578  +0.41  -1.15    +42.1855
iter:   6 00:31:37  -940.838796  -0.08  -1.13    +46.3151
iter:   7 00:33:42  -920.713848  -0.59  -1.13    +49.1627
iter:   8 00:35:47  -926.622836  -1.07  -1.18    +55.8175
iter:   9 00:37:52 -1431.728133  -0.12  -1.18    +58.9432
iter:  10 00:39:57  -913.522360  -0.65  -0.86    +54.5558
iter:  11 00:42:02  -885.757394  -1.47  -1.22    +54.3669
iter:  12 00:44:08  -887.751192  -1.28  -1.35    +59.1867
iter:  13 00:46:13  -902.205163  -1.56  -1.37    +58.5912
iter:  14 00:48:18  -872.265393  -1.60  -1.27    +60.7835
iter:  15 00:50:23  -887.468147  -1.48  -1.45    +61.9244
iter:  16 00:52:28  -866.857164  -1.83  -1.38    +57.6335
iter:  17 00:54:33  -866.055939  -2.09  -1.54    +57.2551
iter:  18 00:56:39  -866.279978  -2.17  -1.56    +60.1398
iter:  19 00:58:44  -862.131098  -1.85  -1.58    +61.7067
iter:  20 01:00:49  -873.844074  -1.94  -1.72    +61.7900
iter:  21 01:02:55  -862.809587  -2.35  -1.51    +60.6386
iter:  22 01:05:00  -870.296511  -2.20  -1.75    +61.1426
iter:  23 01:07:06  -869.625482  -2.50  -1.57    +62.1558
iter:  24 01:09:11  -867.634318  -2.46  -1.60    +59.8993
iter:  25 01:11:17  -867.182395  -2.49  -1.64    +58.5692
iter:  26 01:13:22  -865.505762  -2.22  -1.67    +58.5902
iter:  27 01:15:27  -903.591428  -1.62  -1.74    +58.6495
iter:  28 01:17:33  -872.455232  -1.78  -1.36    +58.7056
iter:  29 01:19:38  -867.196205  -2.65  -1.61    +55.7804
iter:  30 01:21:43  -867.426881  -2.36  -1.75    +55.2961
iter:  31 01:23:49  -866.783621  -2.71  -1.74    +55.6029
iter:  32 01:25:54  -868.979885  -2.66  -1.77    +54.9887
iter:  33 01:28:00  -896.047828  -1.71  -1.70    +54.6007
iter:  34 01:30:05  -863.963982  -1.95  -1.39    +54.0157
iter:  35 01:32:11  -865.885092  -2.64  -1.97    +55.7172
iter:  36 01:34:16  -864.516638  -3.04  -1.86    +55.5926
iter:  37 01:36:22  -863.435479  -3.24  -1.95    +55.4502
iter:  38 01:38:27  -862.663439  -3.18  -2.05    +55.7361
iter:  39 01:40:33  -862.667685  -2.68  -2.20    +56.1150
iter:  40 01:42:38  -862.577296c -3.17  -2.28    +56.4592
iter:  41 01:44:44  -862.832394  -3.22  -2.37    +57.2606
iter:  42 01:46:49  -863.530895  -3.11  -2.40    +58.6593
iter:  43 01:48:55  -862.196653  -2.84  -2.34    +55.3529
iter:  44 01:51:01  -861.953863  -2.96  -2.40    +53.5331
iter:  45 01:53:06  -862.142401  -3.39  -2.35    +53.1966
iter:  46 01:55:12  -862.256832  -3.97  -2.45    +53.8617
iter:  47 01:57:18  -863.008716  -3.18  -2.47    +55.0802
iter:  48 01:59:23  -862.185506  -3.43  -2.31    +53.7217
iter:  49 02:01:29  -862.200102  -3.27  -2.61    +52.6447
iter:  50 02:03:34  -862.874718  -3.15  -2.53    +54.6413
iter:  51 02:05:40  -862.805528  -3.21  -2.48    +52.8757
iter:  52 02:07:44  -862.937198  -3.43  -2.59    +52.4536
iter:  53 02:09:48  -862.877434  -4.11  -2.66    +53.4317
iter:  54 02:11:53  -863.233494  -3.46  -2.72    +54.4246
iter:  55 02:13:57  -863.413328  -3.76  -2.64    +54.8587
iter:  56 02:16:01  -863.454302  -3.34  -2.60    +54.2704
iter:  57 02:18:05  -863.886865  -2.88  -2.33    +55.8371
iter:  58 02:20:10  -864.109450  -3.49  -2.51    +56.4229
iter:  59 02:22:14  -864.391643  -3.23  -2.47    +57.2253
iter:  60 02:24:18  -864.528969  -3.26  -2.33    +57.5105
iter:  61 02:26:22  -868.075898  -2.83  -2.40    +57.8539
iter:  62 02:28:27  -866.256738  -2.62  -1.84    +57.9820
iter:  63 02:30:31  -865.101446  -2.80  -2.06    +58.2218
iter:  64 02:32:36  -867.737399  -2.54  -2.20    +58.8084
iter:  65 02:34:40  -865.223233  -2.79  -1.94    +58.5981
iter:  66 02:36:44  -865.070711  -3.05  -2.21    +58.3926
iter:  67 02:38:49  -878.634118  -2.13  -2.28    +58.7486
iter:  68 02:40:53  -865.301700  -2.45  -1.58    +58.2048
iter:  69 02:42:58  -864.806276  -3.45  -2.21    +58.3117
iter:  70 02:45:02  -864.583368  -3.64  -2.36    +58.4272
iter:  71 02:47:06  -864.764226  -3.67  -2.44    +58.1569
iter:  72 02:49:11  -864.702018  -4.24  -2.37    +58.0115
iter:  73 02:51:15  -864.416262  -3.64  -2.40    +57.7576
iter:  74 02:53:20  -864.441687  -3.90  -2.63    +57.5925
iter:  75 02:55:24  -865.328199  -3.48  -2.63    +57.0643
iter:  76 02:57:29  -864.496504  -3.80  -2.18    +57.2086
iter:  77 02:59:33  -864.570415  -3.96  -2.60    +57.0598
iter:  78 03:01:38  -864.509564c -4.23  -2.53    +56.8478
iter:  79 03:03:42  -864.461992  -4.39  -2.62    +56.5895
iter:  80 03:05:47  -864.467448c -4.74  -2.86    +56.4197
iter:  81 03:07:51  -864.518020c -4.23  -2.90    +56.0170
iter:  82 03:09:56  -864.463465c -4.26  -2.89    +56.5344
iter:  83 03:12:00  -864.462311c -4.51  -2.91    +56.5582
iter:  84 03:14:05  -864.483351c -4.55  -2.92    +56.1959
iter:  85 03:16:09  -864.501694c -4.48  -3.00    +55.9395
iter:  86 03:18:14  -864.491530c -4.53  -3.02    +56.1511
iter:  87 03:20:18  -864.543337c -3.82  -2.88    +55.3073
iter:  88 03:22:23  -864.578551c -4.15  -2.95    +54.9220
iter:  89 03:24:27  -864.518933c -4.17  -2.86    +55.6053
iter:  90 03:26:31  -864.605248c -4.11  -3.07    +54.9291
iter:  91 03:28:36  -864.518473c -3.98  -2.88    +55.7895
iter:  92 03:30:40  -864.593604c -4.00  -3.06    +54.9066
iter:  93 03:32:45  -864.626280  -4.48  -2.87    +54.8028
iter:  94 03:34:49  -864.639396c -4.48  -2.89    +54.7966
iter:  95 03:36:53  -864.675054c -3.94  -2.79    +54.4107
iter:  96 03:38:58  -864.668307c -4.05  -2.69    +54.3833
iter:  97 03:41:02  -864.986928  -3.94  -2.81    +54.1796
iter:  98 03:43:06  -864.853643  -3.60  -2.47    +54.2032
iter:  99 03:45:11  -864.976948  -3.29  -2.42    +54.1005
iter: 100 03:47:15  -866.311856  -3.00  -2.38    +54.0398
iter: 101 03:49:19  -864.652172  -3.19  -2.04    +53.4708
iter: 102 03:51:24  -864.525811  -3.47  -2.53    +53.6885
iter: 103 03:53:28  -864.584027  -3.62  -2.78    +53.7878
iter: 104 03:55:32  -864.748159  -3.43  -2.78    +53.9029
iter: 105 03:57:37  -864.618835  -3.64  -2.52    +54.4023
iter: 106 03:59:41  -864.558511  -4.30  -2.68    +54.3507
iter: 107 04:01:46  -864.570528c -4.22  -3.12    +54.4216
iter: 108 04:03:51  -864.559405c -4.31  -2.90    +54.4861
iter: 109 04:05:55  -864.569173c -4.91  -2.96    +54.4230
iter: 110 04:08:00  -864.561458c -4.69  -2.88    +54.3601
iter: 111 04:10:05  -864.593823c -4.24  -3.05    +54.3596
iter: 112 04:12:09  -864.556273c -4.43  -2.82    +54.4113
iter: 113 04:14:14  -864.570255c -4.72  -3.13    +54.4819
iter: 114 04:16:19  -864.569669c -5.06  -2.95    +54.4538
iter: 115 04:18:23  -864.553405c -5.45  -2.94    +54.4071
iter: 116 04:20:28  -864.570332c -5.25  -3.18    +54.3837
iter: 117 04:22:33  -864.582394c -4.30  -2.94    +54.3852
iter: 118 04:24:39  -864.565930c -4.61  -2.91    +54.3955
iter: 119 04:26:44  -864.560196c -5.43  -2.99    +54.3843
iter: 120 04:28:50  -864.557020c -5.16  -3.06    +54.3847
iter: 121 04:30:55  -864.560624c -4.71  -3.14    +54.4243
iter: 122 04:33:01  -864.569084c -4.91  -3.17    +54.5245
iter: 123 04:35:07  -864.555075c -4.89  -2.98    +54.4739
iter: 124 04:37:14  -864.559796c -5.06  -3.29    +54.4835
iter: 125 04:39:20  -864.561154c -5.28  -3.12    +54.5090
iter: 126 04:41:27  -864.559510c -5.36  -3.12    +54.4943
iter: 127 04:43:34  -864.560070c -5.35  -3.21    +54.5106
iter: 128 04:45:40  -864.646099c -4.36  -3.21    +54.5110
iter: 129 04:47:47  -864.559998c -4.53  -2.71    +54.4578
iter: 130 04:49:54  -864.568106c -5.04  -3.23    +54.4789
iter: 131 04:52:01  -864.561006c -5.49  -3.07    +54.4602
iter: 132 04:54:08  -864.564122c -5.54  -3.28    +54.4737
iter: 133 04:56:15  -864.562511c -5.96  -3.19    +54.5086
iter: 134 04:58:22  -864.570306c -4.84  -3.26    +54.5275
iter: 135 05:00:29  -864.563394c -5.22  -3.18    +54.5244
iter: 136 05:02:36  -864.562188c -5.44  -3.30    +54.5481
iter: 137 05:04:43  -864.562991c -5.70  -3.57    +54.5509
iter: 138 05:06:49  -864.562389c -5.43  -3.35    +54.5340
iter: 139 05:08:56  -864.563037c -5.49  -3.59    +54.5333
iter: 140 05:11:03  -864.564147c -5.75  -3.52    +54.5824
iter: 141 05:13:10  -864.565965c -5.56  -3.57    +54.6307
iter: 142 05:15:17  -864.564323c -6.26  -3.62    +54.6156
iter: 143 05:17:24  -864.565134c -6.05  -3.78    +54.6094
iter: 144 05:19:31  -864.564410c -6.38  -3.96    +54.6229
iter: 145 05:21:38  -864.566307c -5.86  -4.10c   +54.6408
iter: 146 05:23:45  -864.565707c -6.55  -3.83    +54.6266
iter: 147 05:25:53  -864.566861c -5.45  -4.03c   +54.6086
iter: 148 05:28:01  -864.568500c -5.44  -3.75    +54.6035
iter: 149 05:30:09  -864.566628c -5.51  -3.71    +54.6330
iter: 150 05:32:18  -864.578571c -4.30  -3.89    +54.5447
iter: 151 05:34:26  -864.570968c -4.89  -3.33    +54.6420
iter: 152 05:36:34  -864.569562c -4.77  -3.68    +54.7345
iter: 153 05:38:42  -864.576885c -5.13  -3.74    +54.7751
iter: 154 05:40:50  -864.571549c -5.59  -3.16    +54.7535
iter: 155 05:42:58  -864.573278c -5.63  -3.66    +54.7782
iter: 156 05:45:06  -864.572308c -5.91  -3.56    +54.8208
iter: 157 05:47:14  -864.573637c -5.94  -3.70    +54.8653
iter: 158 05:49:23  -864.577552c -5.75  -3.66    +54.8891
iter: 159 05:51:31  -864.594001c -5.04  -3.52    +54.8949
iter: 160 05:53:39  -864.591350c -4.82  -2.98    +54.9104
iter: 161 05:55:47  -864.581735c -5.33  -3.08    +54.8839
iter: 162 05:57:56  -864.582169c -5.04  -3.32    +54.9620
iter: 163 06:00:04  -864.575674c -5.31  -3.27    +54.9629
iter: 164 06:02:12  -864.578496c -5.61  -3.53    +54.9512
iter: 165 06:04:21  -864.620763c -4.63  -3.40    +54.9268
iter: 166 06:06:29  -864.577725c -4.95  -2.83    +54.9156
iter: 167 06:08:37  -864.579023c -5.72  -3.48    +54.9053
iter: 168 06:10:46  -864.579422c -5.96  -3.46    +54.9139
iter: 169 06:12:54  -864.578664c -6.53  -3.45    +54.9176
iter: 170 06:15:02  -864.579053c -6.15  -3.54    +54.9209
iter: 171 06:17:11  -864.578409c -5.78  -3.54    +54.9223
iter: 172 06:19:19  -864.577865c -6.20  -3.82    +54.9271
iter: 173 06:21:28  -864.582849c -5.41  -3.79    +54.9186
iter: 174 06:23:36  -864.579619c -5.75  -3.32    +54.9148
iter: 175 06:25:44  -864.578908c -6.18  -3.62    +54.9275
iter: 176 06:27:53  -864.578699c -6.72  -4.08c   +54.9197
iter: 177 06:30:01  -864.579258c -6.16  -4.03c   +54.8950
iter: 178 06:32:10  -864.581148c -5.27  -4.06c   +54.8485
iter: 179 06:34:18  -864.580774c -6.69  -3.72    +54.8650
iter: 180 06:36:27  -864.582324c -5.75  -3.81    +54.8426
iter: 181 06:38:35  -864.580115c -5.47  -3.58    +54.9008
iter: 182 06:40:44  -864.579374c -5.43  -4.03c   +54.9522
iter: 183 06:42:52  -864.581870c -5.03  -4.13c   +54.8523
iter: 184 06:44:51  -864.581713c -6.44  -3.66    +54.8589
iter: 185 06:46:51  -864.582418c -5.89  -3.68    +54.8288
iter: 186 06:48:51  -864.582305c -5.72  -3.59    +54.8036
iter: 187 06:50:51  -864.583822c -6.14  -3.57    +54.8025
iter: 188 06:52:51  -864.585298c -5.99  -3.51    +54.7973
iter: 189 06:54:51  -864.583840c -5.84  -3.44    +54.7835
iter: 190 06:56:51  -864.587574c -5.44  -3.47    +54.7844
iter: 191 06:58:51  -864.597241c -5.00  -3.35    +54.7836
iter: 192 07:00:51  -864.661772c -4.31  -3.08    +54.7653
iter: 193 07:02:51  -864.586201c -4.59  -2.72    +54.8360
iter: 194 07:04:51  -864.583334c -5.35  -3.35    +54.8507
iter: 195 07:06:51  -864.584140c -5.56  -3.56    +54.8793
iter: 196 07:08:51  -864.583747c -5.98  -3.63    +54.9053
iter: 197 07:10:52  -864.585367c -5.65  -3.70    +54.9320
iter: 198 07:12:52  -864.586870c -5.34  -3.53    +54.9422
iter: 199 07:14:52  -864.584941c -5.87  -3.50    +54.9497
iter: 200 07:16:52  -864.585141c -6.06  -3.66    +54.9542
iter: 201 07:18:52  -864.585598c -6.28  -3.86    +54.9751
iter: 202 07:20:52  -864.586104c -6.02  -3.84    +55.0125
iter: 203 07:22:52  -864.586514c -6.39  -3.91    +55.0211
iter: 204 07:24:52  -864.587279c -6.35  -3.91    +55.0398
iter: 205 07:26:52  -864.587294c -6.40  -3.93    +55.0368
iter: 206 07:28:52  -864.587047c -6.45  -3.62    +55.0468
iter: 207 07:30:52  -864.587808c -6.39  -3.95    +55.0495
iter: 208 07:32:52  -864.587721c -6.26  -3.77    +55.0539
iter: 209 07:34:53  -864.587861c -6.29  -4.00c   +55.0617
iter: 210 07:36:53  -864.588193c -6.67  -4.18c   +55.0735
iter: 211 07:38:53  -864.588580c -6.61  -4.32c   +55.0935
iter: 212 07:40:53  -864.588817c -6.82  -4.37c   +55.1044
iter: 213 07:42:53  -864.589274c -6.60  -4.31c   +55.1186
iter: 214 07:44:53  -864.589082c -6.89  -4.19c   +55.1059
iter: 215 07:46:53  -864.589770c -6.17  -4.25c   +55.1307
iter: 216 07:48:53  -864.590453c -6.39  -4.09c   +55.1435
iter: 217 07:50:53  -864.590229c -7.08  -4.05c   +55.1383
iter: 218 07:52:53  -864.590573c -6.58  -3.99    +55.1570
iter: 219 07:54:54  -864.591051c -6.74  -4.03c   +55.1643
iter: 220 07:56:54  -864.594971c -5.83  -3.84    +55.1711
iter: 221 07:58:54  -864.590734c -5.95  -3.43    +55.1793
iter: 222 08:00:54  -864.591136c -6.26  -3.91    +55.1786
iter: 223 08:02:54  -864.591494c -5.90  -3.94    +55.1889
iter: 224 08:04:54  -864.591245c -6.39  -3.83    +55.1951
iter: 225 08:06:54  -864.591594c -6.66  -4.20c   +55.2061
iter: 226 08:08:55  -864.591125c -6.87  -3.94    +55.2085
iter: 227 08:10:55  -864.591231c -7.04  -4.20c   +55.2139
iter: 228 08:12:55  -864.591352c -6.50  -4.20c   +55.2166
iter: 229 08:14:55  -864.591470c -7.09  -4.17c   +55.2128
iter: 230 08:16:55  -864.592156c -6.25  -4.19c   +55.2128
iter: 231 08:18:55  -864.592904c -6.22  -3.76    +55.2091
iter: 232 08:20:54  -864.592018c -6.78  -3.71    +55.2237
iter: 233 08:22:54  -864.592241c -6.88  -4.12c   +55.2319
iter: 234 08:24:53  -864.592737c -6.63  -4.12c   +55.2499
iter: 235 08:26:53  -864.592484c -6.63  -4.07c   +55.2347
iter: 236 08:28:52  -864.592913c -6.58  -4.08c   +55.2544
iter: 237 08:30:51  -864.595168c -5.89  -4.04c   +55.2616
iter: 238 08:32:51  -864.592719c -6.16  -3.40    +55.2630
iter: 239 08:34:50  -864.592769c -6.26  -4.11c   +55.2660
iter: 240 08:36:49  -864.592703c -6.54  -4.20c   +55.2671
iter: 241 08:38:49  -864.592979c -6.49  -4.27c   +55.2656
iter: 242 08:40:48  -864.592656c -7.06  -4.17c   +55.2655
iter: 243 08:42:47  -864.592904c -7.05  -4.66c   +55.2623
iter: 244 08:44:47  -864.592840c -7.03  -4.22c   +55.2668
iter: 245 08:46:46  -864.592900c -7.45c -4.27c   +55.2685

Converged after 245 iterations.

Dipole moment: (-36.469475, -30.480500, 0.096648) |e|*Ang

Total magnetic moment: (0.000000, 0.000000, 55.268458)
Local magnetic moments:
   0 Co ( 0.000000,  0.000000,  1.687990)
   1 Fe ( 0.000000,  0.000000,  2.506807)
   2 Co ( 0.000000,  0.000000,  1.118224)
   3 Fe ( 0.000000,  0.000000,  2.539244)
   4 Co ( 0.000000,  0.000000,  1.267162)
   5 Fe ( 0.000000,  0.000000,  3.041534)
   6 Co ( 0.000000,  0.000000,  1.139555)
   7 Al ( 0.000000,  0.000000, -0.049084)
   8 Co ( 0.000000,  0.000000,  1.771832)
   9 Co ( 0.000000,  0.000000,  1.396094)
  10 Fe ( 0.000000,  0.000000,  1.966222)
  11 Fe ( 0.000000,  0.000000,  2.697839)
  12 Co ( 0.000000,  0.000000,  1.946900)
  13 Co ( 0.000000,  0.000000,  1.747607)
  14 Al ( 0.000000,  0.000000, -0.035780)
  15 Fe ( 0.000000,  0.000000,  2.774084)
  16 Al ( 0.000000,  0.000000, -0.043698)
  17 Co ( 0.000000,  0.000000,  1.641001)
  18 Cr ( 0.000000,  0.000000, -2.707851)
  19 Ni ( 0.000000,  0.000000,  0.617735)
  20 Ni ( 0.000000,  0.000000,  0.298963)
  21 Ni ( 0.000000,  0.000000,  0.207724)
  22 Cr ( 0.000000,  0.000000, -3.286022)
  23 Al ( 0.000000,  0.000000, -0.025350)
  24 Al ( 0.000000,  0.000000, -0.005843)
  25 Al ( 0.000000,  0.000000, -0.016773)
  26 Al ( 0.000000,  0.000000,  0.008861)
  27 Al ( 0.000000,  0.000000, -0.014101)
  28 Fe ( 0.000000,  0.000000,  2.560592)
  29 Cr ( 0.000000,  0.000000, -1.934600)
  30 Al ( 0.000000,  0.000000, -0.039565)
  31 Ni ( 0.000000,  0.000000,  0.256601)
  32 Ni ( 0.000000,  0.000000,  0.685087)
  33 Al ( 0.000000,  0.000000, -0.050377)
  34 Co ( 0.000000,  0.000000,  1.165643)
  35 Al ( 0.000000,  0.000000, -0.017252)
  36 Fe ( 0.000000,  0.000000,  2.272179)
  37 Ni ( 0.000000,  0.000000,  0.428017)
  38 Co ( 0.000000,  0.000000,  1.585907)
  39 Cr ( 0.000000,  0.000000, -1.792343)
  40 Fe ( 0.000000,  0.000000,  2.723834)
  41 Cr ( 0.000000,  0.000000,  0.319932)
  42 Fe ( 0.000000,  0.000000,  2.295664)
  43 Ni ( 0.000000,  0.000000,  0.353123)
  44 Cr ( 0.000000,  0.000000, -0.706535)
  45 Fe ( 0.000000,  0.000000,  2.267904)
  46 Ni ( 0.000000,  0.000000,  0.385925)
  47 Ni ( 0.000000,  0.000000,  0.088228)
  48 Ni ( 0.000000,  0.000000,  0.234690)
  49 Al ( 0.000000,  0.000000, -0.022736)
  50 Co ( 0.000000,  0.000000, -0.211813)
  51 Cr ( 0.000000,  0.000000, -2.241042)
  52 Co ( 0.000000,  0.000000,  1.378469)
  53 Ni ( 0.000000,  0.000000,  0.024876)
  54 Ni ( 0.000000,  0.000000,  0.433754)
  55 Cr ( 0.000000,  0.000000,  1.916317)
  56 Cr ( 0.000000,  0.000000, -1.055052)
  57 Co ( 0.000000,  0.000000,  1.655329)
  58 Co ( 0.000000,  0.000000,  1.783369)
  59 Cr ( 0.000000,  0.000000,  0.194211)
  60 Cr ( 0.000000,  0.000000, -1.138650)
  61 Co ( 0.000000,  0.000000,  1.346468)
  62 Co ( 0.000000,  0.000000,  1.692846)
  63 Ni ( 0.000000,  0.000000,  0.334963)
  64 Al ( 0.000000,  0.000000, -0.027876)
  65 Cr ( 0.000000,  0.000000,  1.834231)
  66 Fe ( 0.000000,  0.000000,  2.339761)
  67 Cr ( 0.000000,  0.000000, -2.592679)
  68 Al ( 0.000000,  0.000000, -0.026442)
  69 Fe ( 0.000000,  0.000000,  2.058458)
  70 Cr ( 0.000000,  0.000000, -1.793417)
  71 Ni ( 0.000000,  0.000000,  0.144394)
  72 Co ( 0.000000,  0.000000,  1.213169)
  73 Co ( 0.000000,  0.000000,  1.314280)
  74 Cr ( 0.000000,  0.000000,  1.622237)
  75 Al ( 0.000000,  0.000000,  0.016844)
  76 Co ( 0.000000,  0.000000,  0.675468)
  77 Ni ( 0.000000,  0.000000,  0.302354)
  78 Fe ( 0.000000,  0.000000,  2.204557)
  79 Fe ( 0.000000,  0.000000,  2.587468)
  80 Al ( 0.000000,  0.000000, -0.028072)
  81 Cr ( 0.000000,  0.000000,  0.146104)
  82 Cr ( 0.000000,  0.000000, -2.705139)
  83 Co ( 0.000000,  0.000000,  1.565434)
  84 Fe ( 0.000000,  0.000000,  2.833598)
  85 Ni ( 0.000000,  0.000000,  0.085557)
  86 Cr ( 0.000000,  0.000000, -1.805451)
  87 Fe ( 0.000000,  0.000000,  2.509001)
  88 Ni ( 0.000000,  0.000000,  0.333248)
  89 Co ( 0.000000,  0.000000,  1.446504)
  90 Co ( 0.000000,  0.000000, -1.412463)
  91 Co ( 0.000000,  0.000000,  0.411986)
  92 Fe ( 0.000000,  0.000000,  2.318912)
  93 Al ( 0.000000,  0.000000, -0.016516)
  94 Ni ( 0.000000,  0.000000,  0.130491)
  95 Cr ( 0.000000,  0.000000, -1.541436)
  96 Co ( 0.000000,  0.000000,  1.142935)
  97 Ni ( 0.000000,  0.000000,  0.258485)
  98 Al ( 0.000000,  0.000000, -0.046297)
  99 Al ( 0.000000,  0.000000, -0.017496)
 100 Cr ( 0.000000,  0.000000, -3.217939)
 101 Cr ( 0.000000,  0.000000, -2.290499)
 102 Fe ( 0.000000,  0.000000,  2.135435)
 103 Cr ( 0.000000,  0.000000, -2.728442)
 104 Al ( 0.000000,  0.000000,  0.003820)
 105 Cr ( 0.000000,  0.000000, -3.476925)
 106 Fe ( 0.000000,  0.000000,  1.811191)
 107 Ni ( 0.000000,  0.000000, -0.009763)
 108 Al ( 0.000000,  0.000000, -0.025369)
 109 Cr ( 0.000000,  0.000000, -3.023244)
 110 Ni ( 0.000000,  0.000000,  0.072864)
 111 Al ( 0.000000,  0.000000,  0.003495)
 112 Fe ( 0.000000,  0.000000,  2.971935)
 113 Al ( 0.000000,  0.000000, -0.007816)
 114 Ni ( 0.000000,  0.000000,  0.283219)
 115 Al ( 0.000000,  0.000000,  0.006456)
 116 Ni ( 0.000000,  0.000000, -0.167060)
 117 Al ( 0.000000,  0.000000, -0.026777)
 118 Fe ( 0.000000,  0.000000,  2.753648)
 119 Cr ( 0.000000,  0.000000, -2.898939)
 120 Fe ( 0.000000,  0.000000,  2.237008)
 121 Ni ( 0.000000,  0.000000,  0.063276)
 122 Ni ( 0.000000,  0.000000,  0.317703)
 123 Fe ( 0.000000,  0.000000,  2.671484)
 124 Fe ( 0.000000,  0.000000,  2.271839)

Energy contributions relative to reference atoms: (reference = -3726899.091688)

Kinetic:       +249.947598
Potential:     -254.979875
External:        +0.000000
XC:            -891.121975
Entropy (-ST):   -5.110536
Local:          +34.116620
--------------------------
Free energy:   -867.148168
Extrapolated:  -864.592900

Dipole-layer corrected work functions: 4.284367, 4.159110 eV

Spin contamination: 54.680420 electrons
Showing all kpts
                      Up                     Down
 Kpt  Band  Eigenvalues  Occupancy  Eigenvalues  Occupancy
  0   523      0.38045    0.99498      1.15392    0.07973
  0   524      0.39443    0.99423      1.16689    0.07071
  0   525      0.41005    0.99326      1.17679    0.06447
  0   526      0.43401    0.99145      1.18377    0.06039

  1   523      0.37023    0.99546      1.15560    0.07850
  1   524      0.38072    0.99496      1.17278    0.06694
  1   525      0.40021    0.99389      1.17853    0.06343
  1   526      0.41572    0.99287      1.18126    0.06183


Fermi level: 0.90931

No gap

Forces in eV/Ang:
  0 Co    0.63506   -0.89558   -0.19604
  1 Fe   -0.14410   -0.44061    0.09179
  2 Co    0.01399    0.09404    0.06639
  3 Fe   -1.10171   -0.36155   -0.41375
  4 Co   -0.44338   -0.27101   -0.27995
  5 Fe   -0.45294   -0.09098    1.87369
  6 Co    0.50123   -0.13148   -0.34500
  7 Al    0.36413   -0.09989    1.15200
  8 Co   -1.00093    0.58823   -0.08824
  9 Co    0.19130   -0.28913    0.01980
 10 Fe    1.17461   -0.12752   -0.14273
 11 Fe   -0.63581    0.47329   -0.19638
 12 Co    0.24198    0.51007    1.58210
 13 Co   -0.66797   -0.54752    0.15447
 14 Al    0.56709   -2.53876   -0.15518
 15 Fe   -0.08052    0.70836    1.27784
 16 Al    0.86258    0.16643   -0.86968
 17 Co   -0.08478   -0.88303    0.26081
 18 Cr   -0.92298    1.33528    0.40759
 19 Ni   -0.39410   -0.46053    0.50170
 20 Ni    0.86301    0.29939   -1.14819
 21 Ni   -1.09221    0.17323    1.05108
 22 Cr    0.07220   -1.06622    1.15748
 23 Al    0.20603   -0.27466    0.87642
 24 Al    0.38275    1.47796    0.73427
 25 Al   -0.71774   -0.14485   -1.30123
 26 Al    0.45355   -0.57311   -2.63664
 27 Al    1.56465    1.11500    0.57174
 28 Fe    0.09927   -1.07184   -0.96060
 29 Cr   -0.27804   -1.21244   -0.45397
 30 Al   -0.81031   -0.74969   -0.28658
 31 Ni    0.27633    0.68765    0.52689
 32 Ni   -0.40833    1.07862   -0.41341
 33 Al    0.69232    0.18916    0.85459
 34 Co   -1.08105    1.33538   -1.05207
 35 Al    0.28291    1.79255   -2.75008
 36 Fe    0.43511   -0.61769    0.70616
 37 Ni   -0.63644   -0.70581    0.06579
 38 Co   -0.24022   -0.37857    0.34791
 39 Cr    0.10069   -1.12076   -0.47655
 40 Fe   -0.72920   -0.08628   -0.11279
 41 Cr   -0.58810   -0.37325    0.50652
 42 Fe    1.49478    0.31774   -1.41639
 43 Ni    0.77553    0.85165    0.98319
 44 Cr    0.87373   -1.41629    0.98770
 45 Fe   -0.46232   -0.23680    1.42903
 46 Ni   -0.49470   -0.02815   -0.01310
 47 Ni    0.27140    0.45450    0.42660
 48 Ni    1.20571    0.59868   -0.13234
 49 Al    2.31270    1.21116   -0.57449
 50 Co    0.48663    1.17050    1.66476
 51 Cr   -1.14470    0.27291    0.46583
 52 Co    0.29781   -0.66200    0.76897
 53 Ni    0.95273    1.37344   -1.16493
 54 Ni    0.09217    0.81815    1.11274
 55 Cr   -0.70472   -0.37093    1.17854
 56 Cr   -0.75632    0.10014    0.03682
 57 Co   -0.18858    0.35887   -0.27205
 58 Co   -0.21795    0.22155   -0.14492
 59 Cr   -0.04786   -0.02554   -0.66785
 60 Cr    0.52160    1.20152    1.00731
 61 Co    0.85987   -0.00893   -0.61973
 62 Co    0.38902   -0.94779    0.93505
 63 Ni    1.01306    1.11143    0.38051
 64 Al    1.08606   -0.46919   -0.17072
 65 Cr    0.53757    0.38235   -0.47737
 66 Fe   -0.25389   -0.03671    0.55770
 67 Cr   -0.45731    0.71277   -0.71621
 68 Al   -2.80705    1.44631    0.36811
 69 Fe    0.39871    1.09549   -1.27494
 70 Cr    0.45099   -0.51073    0.06699
 71 Ni   -0.14026   -0.61649   -0.29960
 72 Co    0.39481   -1.02087    0.42512
 73 Co   -0.16404   -0.79403   -0.82296
 74 Cr    0.27722    1.09059   -0.26364
 75 Al    0.25354    0.47461   -0.71335
 76 Co   -0.57109   -1.10624   -0.02618
 77 Ni    1.62363   -0.39466   -1.48847
 78 Fe    0.82062    0.15322   -0.62923
 79 Fe   -1.31976   -0.58443    0.08871
 80 Al   -1.12434    1.22854    0.94598
 81 Cr   -0.24507    1.91189   -0.95803
 82 Cr    1.76786   -1.17725   -0.34105
 83 Co   -1.11610   -2.52363   -1.82806
 84 Fe    0.10226   -1.06868   -0.90917
 85 Ni   -0.25041   -1.51060    0.90862
 86 Cr   -0.47354    2.28243   -2.65800
 87 Fe    0.08197   -0.34105   -0.21800
 88 Ni    0.19478    0.97354    1.66934
 89 Co   -1.38365   -1.05418   -0.81602
 90 Co   -0.28706   -0.22761   -0.90600
 91 Co    0.04720   -1.19931    0.65262
 92 Fe    0.11930    0.38597   -0.66984
 93 Al    0.32946    0.35662    0.12987
 94 Ni   -0.11638    0.13673   -0.01722
 95 Cr   -0.25120   -0.19625   -0.88071
 96 Co   -0.97561   -0.86381   -0.44011
 97 Ni    0.23145   -2.42947   -1.57198
 98 Al   -1.04418    0.56196    0.59438
 99 Al    0.93982   -0.05561    0.29629
100 Cr   -0.21769   -0.70507    0.75159
101 Cr   -0.47154    0.64802    1.19877
102 Fe   -0.29526   -0.15878    1.19976
103 Cr    0.27632   -1.28664   -0.28566
104 Al    0.72183    1.03236    0.71814
105 Cr   -0.24738    1.26810   -0.21772
106 Fe    0.01639   -0.12765    1.02218
107 Ni    0.58202    0.24762    0.34915
108 Al   -3.08705    0.43138    0.81980
109 Cr   -0.20684    0.26498    0.58750
110 Ni   -0.12200    0.36445    1.01774
111 Al   -2.55267   -0.94381    3.59330
112 Fe    0.29622    0.11532   -0.85547
113 Al   -0.52080    0.30658   -0.58157
114 Ni    0.90171    0.00891   -0.64297
115 Al    1.55846    0.52201    0.39693
116 Ni    0.13166    0.49669   -0.62428
117 Al   -0.09424    0.67115   -0.74765
118 Fe    0.03004   -0.83233   -0.28339
119 Cr    0.28278   -1.04416    0.42867
120 Fe    2.28056    0.30765   -1.64390
121 Ni   -0.21512    0.15080    0.17561
122 Ni   -1.33888    0.29788   -0.29659
123 Fe    0.25650   -0.17381    0.02518
124 Fe    0.36238    0.24736   -0.59717

Timing:                              incl.     excl.
-----------------------------------------------------------
Forces:                             40.307    40.307   0.1% |
Hamiltonian:                         1.835     0.010   0.0% |
 Atomic:                             0.396     0.001   0.0% |
  XC Correction:                     0.395     0.395   0.0% |
 Calculate atomic Hamiltonians:      0.926     0.926   0.0% |
 Communicate:                        0.090     0.090   0.0% |
 Initialize Hamiltonian:             0.000     0.000   0.0% |
 Poisson:                            0.085     0.085   0.0% |
 XC 3D grid:                         0.328     0.328   0.0% |
LCAO initialization:               215.686     0.551   0.0% |
 LCAO eigensolver:                  10.267     0.009   0.0% |
  Calculate projections:             0.000     0.000   0.0% |
  DenseAtomicCorrection:             0.000     0.000   0.0% |
  Distribute overlap matrix:         6.270     6.270   0.0% |
  Orbital Layouts:                   3.843     3.843   0.0% |
  Potential matrix:                  0.008     0.008   0.0% |
  Sum over cells:                    0.137     0.137   0.0% |
 LCAO to grid:                     203.203   203.203   0.7% |
 Set positions (LCAO WFS):           1.665     1.403   0.0% |
  Basic WFS set positions:           0.004     0.004   0.0% |
  Basis functions set positions:     0.001     0.001   0.0% |
  P tci:                             0.000     0.000   0.0% |
  ST tci:                            0.093     0.093   0.0% |
  mktci:                             0.164     0.164   0.0% |
PWDescriptor:                        0.325     0.325   0.0% |
SCF-cycle:                       30469.014   788.465   2.6% ||
 Davidson:                       28264.560  9988.994  32.5% |------------|
  Apply H:                         515.526   503.533   1.6% ||
   HMM T:                           11.993    11.993   0.0% |
  Subspace diag:                  3112.420     0.080   0.0% |
   calc_h_matrix:                 1295.288   817.189   2.7% ||
    Apply H:                       478.099   466.870   1.5% ||
     HMM T:                         11.229    11.229   0.0% |
   diagonalize:                    243.190   243.190   0.8% |
   rotate_psi:                    1573.862  1573.862   5.1% |-|
  calc. matrices:                 7266.171  6304.239  20.5% |-------|
   Apply H:                        961.932   938.219   3.1% ||
    HMM T:                          23.713    23.713   0.1% |
  diagonalize:                    4078.127  4078.127  13.3% |----|
  rotate_psi:                     3303.321  3303.321  10.7% |---|
 Density:                          765.774     0.008   0.0% |
  Atomic density matrices:           4.888     4.888   0.0% |
  Mix:                             454.608   454.608   1.5% ||
  Multipole moments:                 0.155     0.155   0.0% |
  Pseudo density:                  306.115   306.106   1.0% |
   Symmetrize density:               0.009     0.009   0.0% |
 Hamiltonian:                      634.454     2.797   0.0% |
  Atomic:                           92.559     0.323   0.0% |
   XC Correction:                   92.236    92.236   0.3% |
  Calculate atomic Hamiltonians:   419.339   419.339   1.4% ||
  Communicate:                      28.679    28.679   0.1% |
  Poisson:                           9.165     9.165   0.0% |
  XC 3D grid:                       81.915    81.915   0.3% |
 Orthonormalize:                    15.761     0.000   0.0% |
  calc_s_matrix:                     1.859     1.859   0.0% |
  inverse-cholesky:                  0.631     0.631   0.0% |
  projections:                      10.017    10.017   0.0% |
  rotate_psi_s:                      3.253     3.253   0.0% |
Set symmetry:                        0.001     0.001   0.0% |
Other:                               6.867     6.867   0.0% |
-----------------------------------------------------------
Total:                                     30734.035 100.0%

Date: Tue Apr 18 08:47:30 2023
