
  ___ ___ ___ _ _ _  
 |   |   |_  | | | | 
 | | | | | . | | | | 
 |__ |  _|___|_____|  22.8.0
 |___|_|             

User:   c.zeng@d0109
Date:   Wed Apr 19 07:11:47 2023
Arch:   x86_64
Pid:    255906
CWD:    /home/c.zeng/projects/hea-corrosion/hea-mlp/data-curation/surface-mcmc/dft-jobs/177
Python: 3.8.1
gpaw:   /home/c.zeng/usr/installs/gpaw/source/gpaw-22.8.0/gpaw
_gpaw:  /home/c.zeng/usr/installs/gpaw/source/gpaw-22.8.0/
        _gpaw.cpython-38-x86_64-linux-gnu.so
ase:    /home/c.zeng/.local/lib/python3.8/site-packages/ase-3.22.1-py3.8.egg/ase (version 3.22.1)
numpy:  /home/c.zeng/.local/lib/python3.8/site-packages/numpy (version 1.24.2)
scipy:  /home/c.zeng/.local/lib/python3.8/site-packages/scipy (version 1.10.1)
libxc:  4.2.3
units:  Angstrom and eV
cores: 30
OpenMP: False
OMP_NUM_THREADS: 1

Input parameters:
  convergence: {energy: 0.0001}
  kpts: [2 2 1]
  maxiter: 666
  mode: {ecut: 350.0,
         name: pw}
  occupations: {fixmagmom: False,
                name: fermi-dirac,
                width: 0.1}
  poissonsolver: {dipolelayer: xy}
  spinpol: True
  symmetry: {point_group: False}
  xc: PBE

System changes: positions, numbers, cell, pbc, initial_charges, initial_magmoms 

Initialize ...

species:
  Ni:
    name: Nickel
    id: 0d9f38a9d6e76a2886f07bb4381f212b
    Z: 28.0
    valence: 16
    core: 12
    charge: 0.0
    file: /home/c.zeng/usr/data/gpaw-setups-0.9.20000/Ni.PBE.gz
    compensation charges: {type: gauss,
                           rc: 0.36,
                           lmax: 2}
    cutoffs: {filter: 2.14,
              core: 1.98}
    valence states:
      #              energy  rcut
      - 4s(2.00)    -5.642   1.164
      - 3p(6.00)   -71.394   1.207
      - 4p(0.00)    -1.226   1.207
      - 3d(8.00)    -8.875   1.138
      -  s          21.570   1.164
      -  d          18.337   1.138
  
    # Using partial waves for Ni as LCAO basis

  Cr:
    name: Chromium
    id: 33f258bda2ca9f93018e70263a35547b
    Z: 24.0
    valence: 6
    core: 18
    charge: 0.0
    file: /home/c.zeng/usr/data/gpaw-setups-0.9.20000/Cr.PBE.gz
    compensation charges: {type: gauss,
                           rc: 0.35,
                           lmax: 2}
    cutoffs: {filter: 2.14,
              core: 3.04}
    valence states:
      #              energy  rcut
      - 4s(1.00)    -4.007   1.164
      - 4p(0.00)    -0.989   1.217
      - 3d(5.00)    -2.913   1.111
      -  s          23.205   1.164
      -  p          26.223   1.217
      -  d          24.299   1.111
  
    # Using partial waves for Cr as LCAO basis

  Fe:
    name: Iron
    id: 37abbd8d6c3c35915a9b583b742da910
    Z: 26.0
    valence: 8
    core: 18
    charge: 0.0
    file: /home/c.zeng/usr/data/gpaw-setups-0.9.20000/Fe.PBE.gz
    compensation charges: {type: gauss,
                           rc: 0.33,
                           lmax: 2}
    cutoffs: {filter: 2.06,
              core: 2.67}
    valence states:
      #              energy  rcut
      - 4s(2.00)    -5.291   1.164
      - 4p(0.00)    -1.326   1.058
      - 3d(6.00)    -7.505   1.058
      -  s          21.920   1.164
      -  p          25.885   1.058
      -  d          19.706   1.058
  
    # Using partial waves for Fe as LCAO basis

  Al:
    name: Aluminium
    id: 0292cae29f5d6237e50f6abdd43a7bdd
    Z: 13.0
    valence: 3
    core: 10
    charge: 0.0
    file: /home/c.zeng/usr/data/gpaw-setups-0.9.20000/Al.PBE.gz
    compensation charges: {type: gauss,
                           rc: 0.34,
                           lmax: 2}
    cutoffs: {filter: 1.91,
              core: 2.36}
    valence states:
      #              energy  rcut
      - 3s(2.00)    -7.753   1.085
      - 3p(1.00)    -2.712   1.085
      -  s          19.459   1.085
      -  p          24.499   1.085
      -  d           0.000   1.085
  
    # Using partial waves for Al as LCAO basis

  Co:
    name: Cobalt
    id: 339d20d5b0b93d2de9531a1bee871d91
    Z: 27.0
    valence: 9
    core: 18
    charge: 0.0
    file: /home/c.zeng/usr/data/gpaw-setups-0.9.20000/Co.PBE.gz
    compensation charges: {type: gauss,
                           rc: 0.32,
                           lmax: 2}
    cutoffs: {filter: 1.87,
              core: 2.55}
    valence states:
      #              energy  rcut
      - 4s(2.00)    -5.469   1.005
      - 4p(0.00)    -1.277   1.058
      - 3d(7.00)    -8.205   1.005
      -  s          21.742   1.005
      -  p          25.934   1.058
      -  d          19.007   1.005
  
    # Using partial waves for Co as LCAO basis

Reference energy: -3927717.499734  # eV

Spin-polarized calculation.
Magnetic moment: 149.100000

Convergence criteria:
 Maximum [total energy] change in last 3 cyles: 0.0001 eV / electron
 Maximum integral of absolute [dens]ity change: 0.0001 electrons / valence electron
 Maximum integral of absolute [eigenst]ate change: 4e-08 eV^2 / valence electron
 Maximum number of scf [iter]ations: 666
 (Square brackets indicate name in SCF output, whereas a 'c' in
 the SCF output indicates the quantity has converged.)

Symmetries present (total): 1

  ( 1  0  0)
  ( 0  1  0)
  ( 0  0  1)

4 k-points: 2 x 2 x 1 Monkhorst-Pack grid
2 k-points in the irreducible part of the Brillouin zone
       k-points in crystal coordinates                weights
   0:     0.25000000   -0.25000000    0.00000000          2/4
   1:     0.25000000    0.25000000    0.00000000          2/4

Wave functions: Plane wave expansion
  Cutoff energy: 350.000 eV
  Number of coefficients (min, max): 60143, 60161
  Pulay-stress correction: 0.000000 eV/Ang^3 (de/decut=0.000000)
  Using FFTW library
  ScaLapack parameters: grid=1x1, blocksize=None
  Wavefunction extrapolation:
    Improved wavefunction reuse through dual PAW basis 

Occupation numbers: Fermi-Dirac:
  width: 0.1000  # eV
 

Eigensolver
   Davidson(niter=2) 

Densities:
  Coarse grid: 56*56*128 grid
  Fine grid: 112*112*256 grid
  Total Charge: 0.000000 

Density mixing:
  Method: difference
  Backend: pulay
  Linear mixing parameter: 0.05
  old densities: 5
  Damping of long wavelength oscillations: 50 

Hamiltonian:
  XC and Coulomb potentials evaluated on a 112*112*256 grid
  Using the PBE Exchange-Correlation functional
  External potential:
    NoExternalPotential
 

XC parameters: PBE with 2 nearest neighbor stencil

Memory estimate:
  Process memory now: 379.05 MiB
  Calculator: 2209.57 MiB
    Density: 18.91 MiB
      Arrays: 7.39 MiB
      Localized functions: 8.57 MiB
      Mixer: 2.95 MiB
    Hamiltonian: 5.75 MiB
      Arrays: 5.49 MiB
      XC: 0.00 MiB
      Poisson: 0.00 MiB
      vbar: 0.26 MiB
    Wavefunctions: 2184.92 MiB
      Arrays psit_nG: 1382.48 MiB
      Eigensolver: 782.37 MiB
      Projections: 3.31 MiB
      Projectors: 1.16 MiB
      PW-descriptor: 15.59 MiB

Total number of cores used: 30
Parallelization over k-points: 2
Domain decomposition: 1 x 3 x 5

Number of atoms: 125
Number of atomic orbitals: 1116
Number of bands in calculation: 753
Number of valence electrons: 1098
Bands to converge: occupied

... initialized

Initializing position-dependent things.

Density initialized from atomic densities
Creating initial wave functions:
  753 bands from LCAO basis set

                                                               
                                                               
                                                               
                                                               
                          Ni          Ni     Ni    Co          
                            Ni    Co    Cr    Co    Ni         
                                                               
                       Al    CFe   FNi   CCr   NCr   Cr        
                   Ni   CFe    Al    Co    Fe    Cr            
        Ni                       Cr                            
               Ni   FAl  CFCr  CCo   NFe    Cr    Ni           
          Ni    Fe   FAl   NCo   CCr   FFe   Cr                
           Fe    Co    Fe Ni  FeCo  Co       Al   Fe           
                Al    Co    ACo   FAl   CNi   Co    Cr         
            Fe   AFe   AFe    Al    Co    Fe                   
        Ni    Co    Fe    Co Ni Co Cr    Ni    Ni    Co        
             Co    Al   CNi    Cr    Fe    Ni    Ni            
         Cr    Cr   CAl   AFe   CFe   Ni     Ni                
                Fe          Ni                                 
               Cr     Cr          Co    Co                     
           Cr    Cr    Fe    Al     Ni                         
                                                               
                                                               
                                                               
                                                               
                                                               

Positions:
   0 Ni    12.638410    1.500640   10.473714    ( 0.0000,  0.0000,  0.0000)
   1 Cr     2.522937    1.464200   10.500925    ( 0.0000,  0.0000,  0.0000)
   2 Cr     5.053910    1.499679   10.110352    ( 0.0000,  0.0000,  0.0000)
   3 Fe     7.557679    1.474012   10.651858    ( 0.0000,  0.0000,  2.0000)
   4 Al    10.063098    1.480808   10.510582    ( 0.0000,  0.0000,  0.0000)
   5 Co    13.876684    3.701125   10.575129    ( 0.0000,  0.0000,  2.1000)
   6 Cr     3.765065    3.676845   10.563946    ( 0.0000,  0.0000,  2.1000)
   7 Cr     6.296333    3.639618   10.618367    ( 0.0000,  0.0000,  1.5000)
   8 Ni     8.839996    3.605986   10.672787    ( 0.0000,  0.0000,  2.0000)
   9 Co    11.352953    3.684964   10.549299    ( 0.0000,  0.0000,  1.5000)
  10 Ni    15.161276    5.824565   10.498577    ( 0.0000,  0.0000,  1.5000)
  11 Co     5.025278    5.836147   10.574572    ( 0.0000,  0.0000,  1.5000)
  12 Al     7.581095    5.809082   10.450437    ( 0.0000,  0.0000,  0.0000)
  13 Cr    10.115365    5.826084   10.611674    ( 0.0000,  0.0000,  0.0000)
  14 Ni    12.590175    5.838835   10.516863    ( 0.0000,  0.0000,  0.0000)
  15 Ni    16.389239    7.986063   10.611380    ( 0.0000,  0.0000,  2.0000)
  16 Co     6.336726    8.007129   10.633278    ( 0.0000,  0.0000,  2.0000)
  17 Cr     8.860477    8.041112   10.593798    ( 0.0000,  0.0000,  2.0000)
  18 Cr    11.352548    8.028917   10.631722    ( 0.0000,  0.0000,  2.1000)
  19 Ni    13.851584    7.983364   10.505680    ( 0.0000,  0.0000,  2.0000)
  20 Co    17.745314   10.116747   10.074659    ( 0.0000,  0.0000,  0.0000)
  21 Ni     7.636083   10.176440   10.530337    ( 0.0000,  0.0000,  1.5000)
  22 Cr    10.089221   10.193890   10.552029    ( 0.0000,  0.0000,  2.1000)
  23 Ni    12.605039   10.182297   10.523703    ( 0.0000,  0.0000,  2.1000)
  24 Ni    15.064141   10.171206   10.358709    ( 0.0000,  0.0000,  0.0000)
  25 Ni     6.302566   10.804692   12.567941    ( 0.0000,  0.0000,  0.0000)
  26 Co     8.851494   10.898072   12.591335    ( 0.0000,  0.0000,  2.0000)
  27 Fe     5.076351    0.044825   12.536856    ( 0.0000,  0.0000,  0.0000)
  28 Al    13.909654   10.893450   12.608008    ( 0.0000,  0.0000,  1.5000)
  29 Fe    16.352727   10.867270   12.510966    ( 0.0000,  0.0000,  0.0000)
  30 Cr     1.347779    2.234477   12.606775    ( 0.0000,  0.0000,  0.0000)
  31 Cr     3.839937    2.209280   12.530604    ( 0.0000,  0.0000,  2.1000)
  32 Al     6.320342    2.230959   12.618927    ( 0.0000,  0.0000,  0.0000)
  33 Fe     8.782195    2.170075   12.671851    ( 0.0000,  0.0000,  0.0000)
  34 Fe    11.261675    2.259871   12.615258    ( 0.0000,  0.0000,  0.0000)
  35 Co     2.575110    4.392020   12.601990    ( 0.0000,  0.0000,  1.5000)
  36 Al     5.033696    4.384579   12.606305    ( 0.0000,  0.0000,  2.1000)
  37 Ni     7.564379    4.363294   12.629230    ( 0.0000,  0.0000,  2.0000)
  38 Cr    10.052143    4.418954   12.638359    ( 0.0000,  0.0000,  2.0000)
  39 Fe    12.588573    4.408563   12.597529    ( 0.0000,  0.0000,  2.0000)
  40 Al     3.825223    6.539248   12.601110    ( 0.0000,  0.0000,  0.0000)
  41 Al     6.285427    6.556719   12.584144    ( 0.0000,  0.0000,  0.0000)
  42 Cr     8.820218    6.557845   12.561307    ( 0.0000,  0.0000,  2.0000)
  43 Al    11.348710    6.570170   12.593977    ( 0.0000,  0.0000,  2.0000)
  44 Fe    13.909132    6.548655   12.525790    ( 0.0000,  0.0000,  0.0000)
  45 Cr    17.626555    8.699096   12.604162    ( 0.0000,  0.0000,  0.0000)
  46 Al     7.618200    8.725899   12.612235    ( 0.0000,  0.0000,  1.5000)
  47 Fe    10.087472    8.739109   12.626412    ( 0.0000,  0.0000,  1.5000)
  48 Cr    12.639844    8.757204   12.602842    ( 0.0000,  0.0000,  2.1000)
  49 Co    15.116728    8.758580   12.586668    ( 0.0000,  0.0000,  0.0000)
  50 Ni     1.234973    0.732950   14.688585    ( 0.0000,  0.0000,  2.1000)
  51 Co     3.756660    0.776875   14.661198    ( 0.0000,  0.0000,  2.0000)
  52 Fe     6.353364    0.739044   14.685297    ( 0.0000,  0.0000,  2.0000)
  53 Co     8.843197    0.707504   14.667421    ( 0.0000,  0.0000,  1.5000)
  54 Co    11.308149    0.724265   14.667803    ( 0.0000,  0.0000,  2.1000)
  55 Fe     2.562577    2.918904   14.681980    ( 0.0000,  0.0000,  0.0000)
  56 Fe     5.047514    2.876224   14.673262    ( 0.0000,  0.0000,  2.0000)
  57 Fe     7.587094    2.887588   14.717057    ( 0.0000,  0.0000,  2.1000)
  58 Al    10.059655    2.923122   14.721842    ( 0.0000,  0.0000,  2.1000)
  59 Co    12.581173    2.902022   14.699768    ( 0.0000,  0.0000,  2.0000)
  60 Al     3.748435    5.096399   14.714592    ( 0.0000,  0.0000,  2.0000)
  61 Co     6.262723    5.033089   14.723016    ( 0.0000,  0.0000,  0.0000)
  62 Co     8.857244    5.082347   14.703790    ( 0.0000,  0.0000,  1.5000)
  63 Al    11.325799    5.051271   14.695776    ( 0.0000,  0.0000,  0.0000)
  64 Ni    13.876183    5.054495   14.660318    ( 0.0000,  0.0000,  2.1000)
  65 Fe     5.052567    7.279870   14.704259    ( 0.0000,  0.0000,  2.0000)
  66 Ni     7.623886    7.324091   14.709690    ( 0.0000,  0.0000,  0.0000)
  67 Co    10.091768    7.250248   14.682744    ( 0.0000,  0.0000,  1.5000)
  68 Fe    12.609710    7.231017   14.738808    ( 0.0000,  0.0000,  0.0000)
  69 Cr    15.165859    7.289737   14.678898    ( 0.0000,  0.0000,  0.0000)
  70 Cr     6.290924    9.483294   14.711891    ( 0.0000,  0.0000,  0.0000)
  71 Cr     8.799610    9.526006   14.705668    ( 0.0000,  0.0000,  2.0000)
  72 Ni    11.328536    9.524116   14.771390    ( 0.0000,  0.0000,  0.0000)
  73 Fe    13.905777    9.475951   14.693692    ( 0.0000,  0.0000,  2.0000)
  74 Ni    16.402593    9.490986   14.643939    ( 0.0000,  0.0000,  1.5000)
  75 Co    12.559989    1.424700   16.738106    ( 0.0000,  0.0000,  0.0000)
  76 Fe     2.519368    1.415325   16.732030    ( 0.0000,  0.0000,  2.1000)
  77 Co     5.058418    1.426623   16.724633    ( 0.0000,  0.0000,  2.1000)
  78 Fe     7.588593    1.431310   16.719262    ( 0.0000,  0.0000,  1.5000)
  79 Fe    10.080282    1.446990   16.712775    ( 0.0000,  0.0000,  2.1000)
  80 Fe    13.906517    3.636537   16.770219    ( 0.0000,  0.0000,  0.0000)
  81 Fe     3.830827    3.632472   16.750288    ( 0.0000,  0.0000,  2.1000)
  82 Al     6.307138    3.580352   16.791881    ( 0.0000,  0.0000,  2.0000)
  83 Co     8.837036    3.649693   16.760356    ( 0.0000,  0.0000,  1.5000)
  84 Cr    11.316239    3.632713   16.757567    ( 0.0000,  0.0000,  0.0000)
  85 Cr    15.124416    5.819298   16.794875    ( 0.0000,  0.0000,  1.5000)
  86 Fe     5.069314    5.825133   16.817741    ( 0.0000,  0.0000,  2.0000)
  87 Fe     7.591000    5.828182   16.790531    ( 0.0000,  0.0000,  1.5000)
  88 Co    10.100423    5.832104   16.795022    ( 0.0000,  0.0000,  2.1000)
  89 Fe    12.591819    5.816097   16.796049    ( 0.0000,  0.0000,  1.5000)
  90 Cr    16.393148    8.022678   16.766491    ( 0.0000,  0.0000,  0.0000)
  91 Co     6.343718    8.036435   16.784337    ( 0.0000,  0.0000,  2.1000)
  92 Al     8.869407    8.031059   16.785541    ( 0.0000,  0.0000,  1.5000)
  93 Al    11.350811    8.006966   16.850353    ( 0.0000,  0.0000,  0.0000)
  94 Cr    13.848456    8.043231   16.790120    ( 0.0000,  0.0000,  1.5000)
  95 Cr    17.664975   10.214378   16.704673    ( 0.0000,  0.0000,  1.5000)
  96 Co     7.577805   10.200216   16.752871    ( 0.0000,  0.0000,  0.0000)
  97 Fe    10.073950   10.240525   16.814835    ( 0.0000,  0.0000,  0.0000)
  98 Co    12.634825   10.205702   16.792879    ( 0.0000,  0.0000,  2.1000)
  99 Ni    15.128204   10.222671   16.717207    ( 0.0000,  0.0000,  2.1000)
 100 Ni     6.295996   10.895646   18.725164    ( 0.0000,  0.0000,  2.1000)
 101 Ni     2.531103    0.010731   18.808028    ( 0.0000,  0.0000,  0.0000)
 102 Ni    11.354102   10.922176   18.789712    ( 0.0000,  0.0000,  2.0000)
 103 Ni    13.893055   10.918669   18.754371    ( 0.0000,  0.0000,  1.5000)
 104 Co    16.407321   10.902924   18.697866    ( 0.0000,  0.0000,  2.0000)
 105 Ni     1.242615    2.122916   18.813664    ( 0.0000,  0.0000,  0.0000)
 106 Ni     3.777583    2.163727   18.725751    ( 0.0000,  0.0000,  2.0000)
 107 Al     6.316494    2.112186   18.751024    ( 0.0000,  0.0000,  1.5000)
 108 Cr     8.821019    2.135678   18.724841    ( 0.0000,  0.0000,  1.5000)
 109 Cr    11.346910    2.127920   18.772482    ( 0.0000,  0.0000,  0.0000)
 110 Fe    15.041821    4.389824   19.217240    ( 0.0000,  0.0000,  0.0000)
 111 Ni     5.122707    4.340730   18.947661    ( 0.0000,  0.0000,  0.0000)
 112 Fe     7.593428    4.391189   18.757570    ( 0.0000,  0.0000,  0.0000)
 113 Al    10.074524    4.387147   18.958463    ( 0.0000,  0.0000,  0.0000)
 114 Co    12.568500    4.377597   18.792178    ( 0.0000,  0.0000,  2.1000)
 115 Cr    16.401190    6.592941   18.854788    ( 0.0000,  0.0000,  0.0000)
 116 Al     6.333626    6.597181   18.774830    ( 0.0000,  0.0000,  2.1000)
 117 Fe     8.832315    6.612293   18.776708    ( 0.0000,  0.0000,  2.0000)
 118 Ni    11.357713    6.592056   18.807559    ( 0.0000,  0.0000,  1.5000)
 119 Cr    13.843649    6.600634   18.766083    ( 0.0000,  0.0000,  2.1000)
 120 Ni    17.672908    8.762055   18.787393    ( 0.0000,  0.0000,  1.5000)
 121 Ni     7.589466    8.752057   18.793733    ( 0.0000,  0.0000,  0.0000)
 122 Co    10.105305    8.758351   18.804653    ( 0.0000,  0.0000,  2.1000)
 123 Cr    12.605169    8.778467   18.827842    ( 0.0000,  0.0000,  2.0000)
 124 Co    15.105383    8.773889   18.800925    ( 0.0000,  0.0000,  1.5000)

Unit cell:
           periodic     x           y           z      points  spacing
  1. axis:    yes   12.614700    0.000000    0.000000    56     0.1951
  2. axis:    yes    6.308550   10.926700    0.000000    56     0.1951
  3. axis:    no     0.000000    0.000000   29.353100   128     0.2293

  Lengths:  12.614700  12.617075  29.353100
  Angles:   90.000000  90.000000  59.999934

Effective grid spacing dv^(1/3) = 0.2160

     iter     time        total  log10-change:  magmom
                         energy  eigst   dens
iter:   1 07:21:09 -1072.540903                  +148.4802
iter:   2 07:24:18 -1803.059323  +0.39  -1.14    +107.8954
iter:   3 07:27:28 -1842.965650  +0.95  -0.82    +78.2225
iter:   4 07:30:37 -1110.467576  -0.19  -0.81    +52.8656
iter:   5 07:33:46  -991.759790  -1.19  -1.17    +40.0670
iter:   6 07:36:56  -973.853522  -1.65  -1.29    +32.2301
iter:   7 07:40:06  -956.776591  -1.76  -1.31    +30.8889
iter:   8 07:43:16 -1297.644227  -0.41  -1.34    +32.3022
iter:   9 07:46:25 -1074.077164  -0.66  -0.95    +30.5330
iter:  10 07:49:35  -944.016622  -1.45  -1.10    +27.9018
iter:  11 07:52:44  -922.346913  -1.85  -1.39    +29.6206
iter:  12 07:55:54  -930.496251  -1.63  -1.48    +30.8012
iter:  13 07:59:04  -927.865131  -1.78  -1.45    +31.5304
iter:  14 08:02:13  -931.381625  -1.53  -1.47    +33.3627
iter:  15 08:05:23  -951.750126  -1.65  -1.47    +34.9166
iter:  16 08:08:33 -1039.609975  -1.15  -1.42    +35.4570
iter:  17 08:11:42  -931.870590  -1.65  -1.15    +34.1548
iter:  18 08:14:52  -929.014504  -2.14  -1.58    +35.6803
iter:  19 08:18:01  -923.595755  -2.16  -1.59    +37.1163
iter:  20 08:21:11  -920.324587  -2.10  -1.67    +38.9910
iter:  21 08:24:20  -933.226206  -1.98  -1.69    +40.0675
iter:  22 08:27:30  -919.736976  -2.18  -1.52    +40.6037
iter:  23 08:30:38  -915.590475  -2.50  -1.70    +42.1148
iter:  24 08:33:48  -914.576029  -2.96  -1.80    +44.2442
iter:  25 08:36:58  -915.183541  -2.87  -1.87    +47.7799
iter:  26 08:40:07  -920.129067  -2.42  -1.88    +48.1068
iter:  27 08:43:17  -920.158106  -2.56  -1.75    +51.0188
iter:  28 08:46:27  -934.376854  -2.10  -1.80    +53.0146
iter:  29 08:49:36  -917.580587  -2.43  -1.54    +53.3568
iter:  30 08:52:46  -916.778201  -2.70  -1.91    +54.2834
iter:  31 08:55:55  -916.498469  -3.07  -1.96    +55.6503
iter:  32 08:59:05  -917.012197  -3.01  -2.01    +58.1923
iter:  33 09:02:14  -916.916935  -3.31  -2.01    +59.0972
iter:  34 09:05:23  -918.408482  -2.97  -2.06    +60.7097
iter:  35 09:08:33  -923.870569  -2.59  -2.00    +61.7739
iter:  36 09:11:43  -918.587448  -2.74  -1.78    +62.6909
iter:  37 09:14:53  -919.623147  -2.69  -2.12    +62.9314
iter:  38 09:18:03  -920.882224  -2.64  -2.08    +63.2522
iter:  39 09:21:12  -919.328536  -2.78  -2.00    +64.1773
iter:  40 09:24:22  -919.425261  -3.23  -2.15    +65.1567
iter:  41 09:27:33  -919.147136  -3.79  -2.16    +65.5823
iter:  42 09:30:44  -919.471589  -3.24  -2.23    +66.7899
iter:  43 09:33:55  -919.891947  -3.13  -2.24    +67.2599
iter:  44 09:37:07  -920.025110  -3.17  -2.22    +67.3657
iter:  45 09:40:19  -920.930343  -3.00  -2.21    +67.5744
iter:  46 09:43:30  -922.592554  -2.85  -2.09    +67.4975
iter:  47 09:46:42  -920.066333  -3.00  -1.97    +67.5734
iter:  48 09:49:53  -920.082872  -3.47  -2.25    +67.2233
iter:  49 09:53:05  -920.144415c -3.62  -2.28    +67.3363
iter:  50 09:56:16  -920.481644  -3.43  -2.31    +67.2995
iter:  51 09:59:27  -920.197075  -3.47  -2.24    +67.2023
iter:  52 10:02:37  -920.606158  -3.16  -2.37    +67.0711
iter:  53 10:05:47  -922.534730  -2.89  -2.33    +66.8547
iter:  54 10:08:57  -920.259608  -3.17  -2.03    +66.8844
iter:  55 10:12:08  -920.289445  -3.66  -2.51    +66.7958
iter:  56 10:15:20  -920.496321  -3.61  -2.63    +66.7462
iter:  57 10:18:31  -920.290027  -3.81  -2.49    +66.6950
iter:  58 10:21:42  -920.311365  -4.06  -2.67    +66.7107
iter:  59 10:24:53  -920.581613  -3.81  -2.80    +66.7690
iter:  60 10:28:04  -920.404618  -3.97  -2.49    +66.7760
iter:  61 10:31:15  -920.386229  -4.20  -2.73    +66.7848
iter:  62 10:34:27  -920.411729c -4.26  -2.88    +66.8288
iter:  63 10:37:39  -920.446172c -4.44  -2.89    +66.9227
iter:  64 10:40:50  -920.439157c -4.85  -2.85    +66.9587
iter:  65 10:44:01  -920.469216c -4.39  -2.93    +67.0293
iter:  66 10:47:12  -920.621102  -3.95  -2.97    +67.2205
iter:  67 10:50:22  -920.542608  -4.06  -2.64    +67.2058
iter:  68 10:53:32  -920.498354  -4.58  -2.78    +67.2328
iter:  69 10:56:43  -920.504804c -4.62  -3.05    +67.3370
iter:  70 10:59:54  -920.525145c -4.79  -3.09    +67.4571
iter:  71 11:03:06  -920.521640c -4.99  -3.02    +67.5418
iter:  72 11:06:17  -920.544418c -4.50  -3.09    +67.6054
iter:  73 11:09:28  -920.540112c -4.77  -2.99    +67.6081
iter:  74 11:12:39  -920.561592c -4.87  -3.06    +67.6865
iter:  75 11:15:50  -920.540030c -4.89  -2.95    +67.7249
iter:  76 11:19:02  -920.548563c -4.95  -3.23    +67.7755
iter:  77 11:22:13  -920.546756c -5.29  -3.20    +67.8180
iter:  78 11:25:24  -920.557402c -5.22  -3.30    +67.8931
iter:  79 11:28:35  -920.558348c -5.24  -3.24    +67.9397
iter:  80 11:31:43  -920.562119c -5.43  -3.33    +67.9760
iter:  81 11:34:55  -920.573107c -4.98  -3.34    +68.0459
iter:  82 11:38:06  -920.572540c -5.80  -3.32    +68.0400
iter:  83 11:41:17  -920.578047c -5.27  -3.35    +68.0446
iter:  84 11:44:28  -920.579979c -5.25  -3.34    +68.0673
iter:  85 11:47:39  -920.585708c -5.17  -3.51    +68.0662
iter:  86 11:50:50  -920.596289c -5.08  -3.56    +68.0659
iter:  87 11:54:01  -920.591942c -5.47  -3.24    +68.0691
iter:  88 11:57:11  -920.595112c -5.37  -3.56    +68.0773
iter:  89 12:00:23  -920.597574c -5.74  -3.58    +68.0824
iter:  90 12:03:34  -920.601411c -5.65  -3.55    +68.0906
iter:  91 12:06:45  -920.595596c -5.65  -3.50    +68.0682
iter:  92 12:09:56  -920.601989c -5.61  -3.54    +68.0784
iter:  93 12:13:06  -920.639756c -4.88  -3.49    +68.0605
iter:  94 12:16:18  -920.605913c -4.98  -2.93    +68.0948
iter:  95 12:19:29  -920.611631c -5.36  -3.54    +68.1113
iter:  96 12:22:40  -920.609386c -5.59  -3.54    +68.1152
iter:  97 12:25:52  -920.614479c -5.44  -3.50    +68.0898
iter:  98 12:29:03  -920.622884c -5.33  -3.44    +68.0953
iter:  99 12:32:15  -920.667384c -4.66  -3.24    +68.0782
iter: 100 12:35:25  -920.621802c -5.06  -2.90    +68.0377
iter: 101 12:38:34  -920.627155c -5.19  -3.41    +67.9890
iter: 102 12:41:45  -920.630801c -5.26  -3.46    +67.9740
iter: 103 12:44:56  -920.633943c -5.54  -3.42    +67.9420
iter: 104 12:48:08  -920.649969c -4.94  -3.46    +67.9043
iter: 105 12:51:19  -920.643445c -5.31  -3.19    +67.9057
iter: 106 12:54:30  -920.650270c -5.26  -3.35    +67.8802
iter: 107 12:57:41  -920.657159c -5.29  -3.30    +67.8684
iter: 108 13:00:52  -920.653528c -5.39  -3.19    +67.8317
iter: 109 13:04:01  -920.659652c -4.94  -3.34    +67.7884
iter: 110 13:07:13  -920.686331c -4.87  -3.25    +67.7678
iter: 111 13:10:23  -920.670576c -4.86  -2.96    +67.7311
iter: 112 13:13:35  -920.667514c -5.20  -3.15    +67.6993
iter: 113 13:16:46  -920.673112c -5.06  -3.24    +67.6635
iter: 114 13:19:57  -920.714820c -4.77  -3.25    +67.6561
iter: 115 13:23:07  -920.699518c -4.88  -2.90    +67.6259
iter: 116 13:26:16  -920.688934c -4.58  -3.00    +67.5509
iter: 117 13:29:27  -920.683724c -5.06  -3.09    +67.5158
iter: 118 13:32:38  -920.686890c -4.88  -3.23    +67.4784
iter: 119 13:35:49  -920.702674c -4.95  -3.11    +67.4461
iter: 120 13:39:00  -920.691001c -4.89  -2.98    +67.3934
iter: 121 13:42:11  -920.695441c -4.84  -3.17    +67.3226
iter: 122 13:45:22  -920.705250c -4.80  -3.12    +67.3002
iter: 123 13:48:32  -920.699621c -4.67  -3.01    +67.2995
iter: 124 13:51:43  -920.691957c -4.97  -3.16    +67.3298
iter: 125 13:54:53  -920.690922c -5.46  -3.31    +67.3464
iter: 126 13:58:03  -920.692205c -5.36  -3.36    +67.3112
iter: 127 14:01:14  -920.692919c -5.64  -3.36    +67.3248
iter: 128 14:04:25  -920.707738c -5.21  -3.34    +67.3257
iter: 129 14:07:36  -920.694294c -5.31  -3.11    +67.3147
iter: 130 14:10:47  -920.700835c -4.77  -3.37    +67.2564
iter: 131 14:13:57  -920.697846c -4.97  -3.36    +67.2553
iter: 132 14:17:08  -920.693829c -5.36  -3.38    +67.2746
iter: 133 14:20:18  -920.694304c -5.80  -3.68    +67.2986
iter: 134 14:23:30  -920.695795c -5.85  -3.80    +67.3058
iter: 135 14:26:41  -920.695075c -6.14  -3.65    +67.3008
iter: 136 14:29:52  -920.695378c -5.95  -3.84    +67.3056
iter: 137 14:33:02  -920.699520c -5.87  -3.78    +67.3040
iter: 138 14:36:12  -920.697180c -5.94  -3.54    +67.2989
iter: 139 14:39:23  -920.696923c -6.06  -3.91    +67.3004
iter: 140 14:42:33  -920.697481c -6.07  -3.93    +67.3032
iter: 141 14:45:45  -920.698001c -6.21  -3.80    +67.3061
iter: 142 14:48:55  -920.698661c -6.38  -3.92    +67.3039
iter: 143 14:52:07  -920.698466c -6.42  -3.95    +67.3080
iter: 144 14:55:18  -920.699255c -6.43  -4.10c   +67.3132
iter: 145 14:58:28  -920.700070c -6.26  -4.05c   +67.3196
iter: 146 15:01:39  -920.704209c -5.11  -4.05c   +67.3497
iter: 147 15:04:50  -920.700904c -5.69  -3.56    +67.3279
iter: 148 15:08:01  -920.700605c -6.56  -3.94    +67.3212
iter: 149 15:11:12  -920.701215c -6.75  -3.93    +67.3319
iter: 150 15:14:23  -920.704974c -5.26  -3.89    +67.3971
iter: 151 15:17:33  -920.702222c -5.58  -3.59    +67.3459
iter: 152 15:20:44  -920.704304c -6.09  -3.85    +67.3788
iter: 153 15:23:54  -920.703054c -6.68  -3.69    +67.3761
iter: 154 15:27:05  -920.704437c -6.32  -3.85    +67.3953
iter: 155 15:30:14  -920.704571c -5.71  -3.74    +67.3995
iter: 156 15:33:23  -920.703513c -5.94  -3.72    +67.3961
iter: 157 15:36:34  -920.706553c -5.78  -3.90    +67.3949
iter: 158 15:39:45  -920.703675c -6.10  -3.52    +67.4002
iter: 159 15:42:55  -920.703921c -6.40  -3.80    +67.3975
iter: 160 15:46:06  -920.703699c -6.64  -3.94    +67.3994
iter: 161 15:49:17  -920.706149c -6.08  -3.94    +67.3981
iter: 162 15:52:28  -920.704737c -6.67  -3.62    +67.3978
iter: 163 15:55:39  -920.704650c -6.04  -3.86    +67.4033
iter: 164 15:58:50  -920.704363c -6.36  -3.68    +67.4027
iter: 165 16:02:01  -920.704517c -6.45  -3.96    +67.4073
iter: 166 16:05:11  -920.705777c -6.34  -3.97    +67.4093
iter: 167 16:08:22  -920.705391c -6.07  -3.80    +67.4115
iter: 168 16:11:32  -920.704963c -6.13  -3.78    +67.4216
iter: 169 16:14:42  -920.705844c -6.32  -3.97    +67.4250
iter: 170 16:17:52  -920.706007c -6.16  -3.84    +67.4251
iter: 171 16:21:02  -920.705180c -6.31  -3.78    +67.4291
iter: 172 16:24:11  -920.704753c -6.24  -4.08c   +67.4348
iter: 173 16:27:14  -920.705505c -6.47  -3.85    +67.4383
iter: 174 16:30:17  -920.705315c -6.30  -4.10c   +67.4483
iter: 175 16:33:20  -920.705111c -6.87  -3.87    +67.4521
iter: 176 16:36:23  -920.705060c -6.90  -4.42c   +67.4578
iter: 177 16:39:27  -920.705096c -7.20  -4.04c   +67.4592
iter: 178 16:42:30  -920.705456c -7.00  -4.40c   +67.4669
iter: 179 16:46:17  -920.705406c -7.48c -4.37c   +67.4706

Converged after 179 iterations.

Dipole moment: (56.814285, 41.980168, 0.012133) |e|*Ang

Total magnetic moment: (0.000000, 0.000000, 67.470632)
Local magnetic moments:
   0 Ni ( 0.000000,  0.000000,  0.390098)
   1 Cr ( 0.000000,  0.000000,  2.139927)
   2 Cr ( 0.000000,  0.000000, -2.720834)
   3 Fe ( 0.000000,  0.000000,  2.248628)
   4 Al ( 0.000000,  0.000000, -0.055176)
   5 Co ( 0.000000,  0.000000,  1.340090)
   6 Cr ( 0.000000,  0.000000, -1.741351)
   7 Cr ( 0.000000,  0.000000,  2.342806)
   8 Ni ( 0.000000,  0.000000,  0.219305)
   9 Co ( 0.000000,  0.000000,  1.417301)
  10 Ni ( 0.000000,  0.000000,  0.388414)
  11 Co ( 0.000000,  0.000000,  0.667200)
  12 Al ( 0.000000,  0.000000, -0.013023)
  13 Cr ( 0.000000,  0.000000, -1.945851)
  14 Ni ( 0.000000,  0.000000,  0.335242)
  15 Ni ( 0.000000,  0.000000,  0.367790)
  16 Co ( 0.000000,  0.000000,  0.992488)
  17 Cr ( 0.000000,  0.000000,  1.357771)
  18 Cr ( 0.000000,  0.000000,  1.952122)
  19 Ni ( 0.000000,  0.000000,  0.335477)
  20 Co ( 0.000000,  0.000000,  1.860287)
  21 Ni ( 0.000000,  0.000000,  0.181674)
  22 Cr ( 0.000000,  0.000000, -2.147061)
  23 Ni ( 0.000000,  0.000000,  0.041587)
  24 Ni ( 0.000000,  0.000000,  0.495566)
  25 Ni ( 0.000000,  0.000000,  0.364736)
  26 Co ( 0.000000,  0.000000,  0.803305)
  27 Fe ( 0.000000,  0.000000,  2.090259)
  28 Al ( 0.000000,  0.000000, -0.056445)
  29 Fe ( 0.000000,  0.000000,  2.350310)
  30 Cr ( 0.000000,  0.000000, -1.963123)
  31 Cr ( 0.000000,  0.000000,  0.113707)
  32 Al ( 0.000000,  0.000000, -0.046958)
  33 Fe ( 0.000000,  0.000000,  2.107568)
  34 Fe ( 0.000000,  0.000000,  2.351517)
  35 Co ( 0.000000,  0.000000,  0.616397)
  36 Al ( 0.000000,  0.000000, -0.014499)
  37 Ni ( 0.000000,  0.000000,  0.220282)
  38 Cr ( 0.000000,  0.000000,  0.166213)
  39 Fe ( 0.000000,  0.000000,  2.116446)
  40 Al ( 0.000000,  0.000000, -0.022715)
  41 Al ( 0.000000,  0.000000, -0.021625)
  42 Cr ( 0.000000,  0.000000,  0.802666)
  43 Al ( 0.000000,  0.000000, -0.020237)
  44 Fe ( 0.000000,  0.000000,  2.389016)
  45 Cr ( 0.000000,  0.000000,  1.609258)
  46 Al ( 0.000000,  0.000000, -0.021061)
  47 Fe ( 0.000000,  0.000000,  1.492915)
  48 Cr ( 0.000000,  0.000000, -1.913901)
  49 Co ( 0.000000,  0.000000,  0.992864)
  50 Ni ( 0.000000,  0.000000,  0.400079)
  51 Co ( 0.000000,  0.000000,  1.117473)
  52 Fe ( 0.000000,  0.000000,  2.318789)
  53 Co ( 0.000000,  0.000000,  1.330501)
  54 Co ( 0.000000,  0.000000,  1.279731)
  55 Fe ( 0.000000,  0.000000,  2.043698)
  56 Fe ( 0.000000,  0.000000,  1.987565)
  57 Fe ( 0.000000,  0.000000,  2.161309)
  58 Al ( 0.000000,  0.000000, -0.043461)
  59 Co ( 0.000000,  0.000000,  0.971782)
  60 Al ( 0.000000,  0.000000, -0.039777)
  61 Co ( 0.000000,  0.000000,  1.130476)
  62 Co ( 0.000000,  0.000000,  1.106500)
  63 Al ( 0.000000,  0.000000, -0.038516)
  64 Ni ( 0.000000,  0.000000,  0.157794)
  65 Fe ( 0.000000,  0.000000,  1.445584)
  66 Ni ( 0.000000,  0.000000,  0.148446)
  67 Co ( 0.000000,  0.000000,  0.894611)
  68 Fe ( 0.000000,  0.000000,  2.146336)
  69 Cr ( 0.000000,  0.000000, -1.599832)
  70 Cr ( 0.000000,  0.000000, -1.474626)
  71 Cr ( 0.000000,  0.000000,  1.175869)
  72 Ni ( 0.000000,  0.000000,  0.304416)
  73 Fe ( 0.000000,  0.000000,  2.154348)
  74 Ni ( 0.000000,  0.000000,  0.162757)
  75 Co ( 0.000000,  0.000000,  1.055235)
  76 Fe ( 0.000000,  0.000000,  2.449312)
  77 Co ( 0.000000,  0.000000,  1.223533)
  78 Fe ( 0.000000,  0.000000,  2.032096)
  79 Fe ( 0.000000,  0.000000,  1.958336)
  80 Fe ( 0.000000,  0.000000, -2.305450)
  81 Fe ( 0.000000,  0.000000,  2.157657)
  82 Al ( 0.000000,  0.000000, -0.056741)
  83 Co ( 0.000000,  0.000000,  0.968726)
  84 Cr ( 0.000000,  0.000000,  1.006718)
  85 Cr ( 0.000000,  0.000000,  1.230689)
  86 Fe ( 0.000000,  0.000000,  1.909456)
  87 Fe ( 0.000000,  0.000000,  2.257479)
  88 Co ( 0.000000,  0.000000,  0.988217)
  89 Fe ( 0.000000,  0.000000,  1.874582)
  90 Cr ( 0.000000,  0.000000, -1.242077)
  91 Co ( 0.000000,  0.000000,  0.941644)
  92 Al ( 0.000000,  0.000000, -0.052103)
  93 Al ( 0.000000,  0.000000, -0.026521)
  94 Cr ( 0.000000,  0.000000,  0.901696)
  95 Cr ( 0.000000,  0.000000,  1.168782)
  96 Co ( 0.000000,  0.000000,  1.204670)
  97 Fe ( 0.000000,  0.000000,  2.325949)
  98 Co ( 0.000000,  0.000000,  0.922492)
  99 Ni ( 0.000000,  0.000000,  0.355451)
 100 Ni ( 0.000000,  0.000000,  0.439252)
 101 Ni ( 0.000000,  0.000000,  0.596198)
 102 Ni ( 0.000000,  0.000000,  0.363249)
 103 Ni ( 0.000000,  0.000000,  0.317430)
 104 Co ( 0.000000,  0.000000,  1.253074)
 105 Ni ( 0.000000,  0.000000,  0.159839)
 106 Ni ( 0.000000,  0.000000,  0.495937)
 107 Al ( 0.000000,  0.000000, -0.027459)
 108 Cr ( 0.000000,  0.000000, -2.291855)
 109 Cr ( 0.000000,  0.000000, -2.071103)
 110 Fe ( 0.000000,  0.000000, -2.886040)
 111 Ni ( 0.000000,  0.000000,  0.219877)
 112 Fe ( 0.000000,  0.000000,  2.226802)
 113 Al ( 0.000000,  0.000000, -0.000868)
 114 Co ( 0.000000,  0.000000, -0.787179)
 115 Cr ( 0.000000,  0.000000, -2.156955)
 116 Al ( 0.000000,  0.000000, -0.050558)
 117 Fe ( 0.000000,  0.000000,  2.443665)
 118 Ni ( 0.000000,  0.000000,  0.128087)
 119 Cr ( 0.000000,  0.000000, -1.332675)
 120 Ni ( 0.000000,  0.000000,  0.200016)
 121 Ni ( 0.000000,  0.000000,  0.485815)
 122 Co ( 0.000000,  0.000000,  1.072211)
 123 Cr ( 0.000000,  0.000000, -2.362940)
 124 Co ( 0.000000,  0.000000,  1.014683)

Energy contributions relative to reference atoms: (reference = -3927717.499734)

Kinetic:       +374.363254
Potential:     -361.793398
External:        +0.000000
XC:            -969.051479
Entropy (-ST):   -5.173543
Local:          +38.362988
--------------------------
Free energy:   -923.292178
Extrapolated:  -920.705406

Dipole-layer corrected work functions: 4.838937, 4.823009 eV

Spin contamination: 39.883428 electrons
Showing all kpts
                      Up                     Down
 Kpt  Band  Eigenvalues  Occupancy  Eigenvalues  Occupancy
  0   547     -0.01020    0.99248      0.82860    0.02916
  0   548     -0.00178    0.99182      0.84132    0.02576
  0   549      0.01973    0.98988      0.85353    0.02287
  0   550      0.03021    0.98878      0.86020    0.02143

  1   547      0.00428    0.99132      0.83220    0.02815
  1   548      0.01930    0.98992      0.84410    0.02507
  1   549      0.03178    0.98860      0.85959    0.02155
  1   550      0.04008    0.98763      0.86434    0.02057


Fermi level: 0.47805

No gap

Forces in eV/Ang:
  0 Ni   -0.29833   -0.26679    0.56769
  1 Cr   -0.13338    0.10579    0.00137
  2 Cr    0.58068   -0.37898    0.68393
  3 Fe   -0.01248   -0.63491   -0.82019
  4 Al    0.47339   -0.29141   -0.81534
  5 Co   -0.16167   -0.12569    0.44028
  6 Cr   -0.68280    0.30923   -0.17546
  7 Cr   -0.43888   -0.12155   -1.44932
  8 Ni   -0.14935    0.25173   -0.37533
  9 Co    0.47084   -0.03394    0.59630
 10 Ni   -0.19098    0.05736    0.34456
 11 Co    0.17095    0.01847    0.20776
 12 Al   -0.43646   -0.16004   -1.14525
 13 Cr    0.01480   -0.37359   -0.95107
 14 Ni    0.22117   -0.15079    0.17323
 15 Ni    0.18614    0.42152   -0.36401
 16 Co   -0.35594    0.28944   -0.21256
 17 Cr    0.00952   -0.19094   -0.59787
 18 Cr    0.72691    0.48207   -1.01407
 19 Ni    0.11411    0.30370    0.30113
 20 Co   -0.07925    0.02414    1.68735
 21 Ni   -0.77965    0.16796    0.05321
 22 Cr    0.15099   -0.17620    0.31139
 23 Ni    0.25748    0.07520   -0.06946
 24 Ni    0.53627    0.07256    0.76899
 25 Ni   -0.21177    0.97225   -0.18219
 26 Co    0.31134    0.61304    0.33868
 27 Fe   -0.83610   -0.46533    0.20328
 28 Al    0.26587   -0.13533   -0.32727
 29 Fe    0.81911    0.11237   -0.03505
 30 Cr   -0.23246   -0.15039   -0.22264
 31 Cr   -1.07285   -0.87298   -0.24675
 32 Al    0.13809   -0.74597    0.46440
 33 Fe    0.38573   -0.04842   -0.18894
 34 Fe    1.19208   -0.55011   -0.43477
 35 Co   -0.40983   -0.16336   -0.26836
 36 Al    0.30666   -0.37063    0.39758
 37 Ni   -0.06458    0.51413    0.40662
 38 Cr   -0.59901   -0.32403   -1.17801
 39 Fe    0.51039   -0.61048   -0.45267
 40 Al   -1.79490    0.79533   -1.02765
 41 Al    1.07367   -0.44252    0.89650
 42 Cr    0.96901   -0.25730    1.06879
 43 Al    0.65490    0.21170    0.87595
 44 Fe   -0.25469   -0.00517    0.34890
 45 Cr   -0.11062    1.33347   -0.35774
 46 Al   -0.47037    1.22633    0.16133
 47 Fe    0.42996    0.42255    0.69191
 48 Cr   -0.63355   -0.50544    0.18895
 49 Co    0.11830   -0.10808   -0.43121
 50 Ni   -0.06730    0.18344   -0.31247
 51 Co    0.09629   -0.19204   -0.24041
 52 Fe   -0.69889   -0.36497    0.07947
 53 Co    0.08498   -0.30852    0.04347
 54 Co    0.62039   -0.10441   -0.44749
 55 Fe   -0.71067   -0.34157   -0.10200
 56 Fe   -0.25402   -0.02038    0.27222
 57 Fe   -0.05745    0.58323    0.00828
 58 Al   -0.37653   -1.10217   -0.29240
 59 Co    0.28906   -0.27653    0.18223
 60 Al    0.19033   -0.50208    0.65828
 61 Co    0.57843    0.39204   -0.24470
 62 Co   -0.72599    0.51044   -0.09797
 63 Al    0.92193    0.94511    0.63511
 64 Ni   -0.10664    0.14824    0.16398
 65 Fe    0.18021    0.16666    0.61558
 66 Ni   -0.51864   -0.57905   -0.09886
 67 Co   -0.00582    0.27665   -0.05403
 68 Fe    0.20559    0.64382   -0.34580
 69 Cr   -1.06288    0.92538   -0.05236
 70 Cr   -0.32047    0.00486    0.29109
 71 Cr    0.71802    0.34098   -0.34985
 72 Ni    0.18565   -0.37395   -0.63102
 73 Fe   -0.22509   -0.39507    0.18241
 74 Ni   -0.16782   -0.36908    0.03442
 75 Co   -0.02798    0.24641   -0.05952
 76 Fe   -0.02314    0.19587    0.10895
 77 Co   -0.30342   -0.13109   -0.41255
 78 Fe    0.33220   -0.46915   -0.10143
 79 Fe    0.06441   -0.22278    0.56527
 80 Fe   -0.49085    0.20313    0.25752
 81 Fe   -0.35829   -0.20540    0.71272
 82 Al    0.08146    0.96830   -0.99747
 83 Co    0.11601    0.13427    0.14671
 84 Cr    0.87547   -0.35519    1.49011
 85 Cr   -0.38725    0.00109    0.89759
 86 Fe   -0.17362    0.15829   -0.27646
 87 Fe    0.10669   -0.19819   -0.88684
 88 Co   -0.38138   -0.43138   -0.17251
 89 Fe    0.46673   -0.24422    0.25481
 90 Cr    0.27147    0.03271    0.23032
 91 Co   -0.39923   -0.08280   -0.66995
 92 Al   -1.14589    0.00272   -0.35707
 93 Al    0.09542    0.11448   -1.18704
 94 Cr    0.88146    0.35965    0.07613
 95 Cr   -0.08571   -0.28048    0.08681
 96 Co    0.06730    0.11401    0.22563
 97 Fe    0.44005    0.34949   -0.04436
 98 Co   -0.08990    0.12615    0.00256
 99 Ni    0.08684   -0.22942    0.18784
100 Ni   -0.01339    0.12041    0.12802
101 Ni   -0.10253   -0.14542   -0.16679
102 Ni   -0.16531   -0.09121   -0.09980
103 Ni    0.10616   -0.12994   -0.00542
104 Co   -0.09244   -0.00706   -0.04762
105 Ni    0.01544    0.48769   -0.39347
106 Ni   -0.15024    0.27690    0.23829
107 Al   -1.04824   -0.58626    1.99416
108 Cr    0.10115    0.04995   -0.03509
109 Cr    1.01766   -0.12018   -0.45531
110 Fe    0.05872   -0.44858   -1.13475
111 Ni   -0.50438    0.15151   -0.62874
112 Fe   -0.07023   -0.09919    0.25257
113 Al    0.42265    0.51540    0.43637
114 Co    0.47077   -0.08141   -0.42724
115 Cr   -0.59111   -0.30930    0.01351
116 Al    0.17399    0.20702    1.27784
117 Fe    0.37323   -0.27809    0.31011
118 Ni   -0.02088   -0.18167    0.29906
119 Cr    0.15879   -0.73980   -0.53927
120 Ni   -0.17152    0.01827   -0.02639
121 Ni    0.05881    0.33200    0.00268
122 Co   -0.17775    0.11127   -0.04604
123 Cr    0.16240    0.66671    0.77408
124 Co    0.51810   -0.18637   -0.55927

Timing:                              incl.     excl.
-----------------------------------------------------------
Forces:                             48.965    48.965   0.1% |
Hamiltonian:                         1.752     0.016   0.0% |
 Atomic:                             0.417     0.002   0.0% |
  XC Correction:                     0.415     0.415   0.0% |
 Calculate atomic Hamiltonians:      0.601     0.601   0.0% |
 Communicate:                        0.095     0.095   0.0% |
 Initialize Hamiltonian:             0.001     0.001   0.0% |
 Poisson:                            0.129     0.129   0.0% |
 XC 3D grid:                         0.494     0.494   0.0% |
LCAO initialization:               351.275     0.616   0.0% |
 LCAO eigensolver:                  20.663     0.018   0.0% |
  Calculate projections:             0.000     0.000   0.0% |
  DenseAtomicCorrection:             0.000     0.000   0.0% |
  Distribute overlap matrix:         9.523     9.523   0.0% |
  Orbital Layouts:                  11.066    11.066   0.0% |
  Potential matrix:                  0.006     0.006   0.0% |
  Sum over cells:                    0.050     0.050   0.0% |
 LCAO to grid:                     327.329   327.329   0.9% |
 Set positions (LCAO WFS):           2.667     2.296   0.0% |
  Basic WFS set positions:           0.004     0.004   0.0% |
  Basis functions set positions:     0.001     0.001   0.0% |
  P tci:                             0.000     0.000   0.0% |
  ST tci:                            0.146     0.146   0.0% |
  mktci:                             0.219     0.219   0.0% |
PWDescriptor:                        0.122     0.122   0.0% |
SCF-cycle:                       34113.314     1.824   0.0% |
 Davidson:                       33227.614  8927.604  25.9% |---------|
  Apply H:                         670.650   659.014   1.9% ||
   HMM T:                           11.636    11.636   0.0% |
  Subspace diag:                  3101.771     0.121   0.0% |
   calc_h_matrix:                 1393.526   777.843   2.3% ||
    Apply H:                       615.683   603.289   1.7% ||
     HMM T:                         12.394    12.394   0.0% |
   diagonalize:                    278.359   278.359   0.8% |
   rotate_psi:                    1429.765  1429.765   4.1% |-|
  calc. matrices:                 7181.900  6012.111  17.4% |------|
   Apply H:                       1169.789  1146.174   3.3% ||
    HMM T:                          23.615    23.615   0.1% |
  diagonalize:                   10261.936 10261.936  29.7% |-----------|
  rotate_psi:                     3083.754  3083.754   8.9% |---|
 Density:                          512.214     0.009   0.0% |
  Atomic density matrices:           5.757     5.757   0.0% |
  Mix:                             209.190   209.190   0.6% |
  Multipole moments:                 0.174     0.174   0.0% |
  Pseudo density:                  297.083   297.071   0.9% |
   Symmetrize density:               0.012     0.012   0.0% |
 Hamiltonian:                      352.375     3.086   0.0% |
  Atomic:                           79.819     0.364   0.0% |
   XC Correction:                   79.456    79.456   0.2% |
  Calculate atomic Hamiltonians:   159.252   159.252   0.5% |
  Communicate:                      12.504    12.504   0.0% |
  Poisson:                           8.783     8.783   0.0% |
  XC 3D grid:                       88.931    88.931   0.3% |
 Orthonormalize:                    19.287     0.002   0.0% |
  calc_s_matrix:                     2.375     2.375   0.0% |
  inverse-cholesky:                  0.915     0.915   0.0% |
  projections:                      11.896    11.896   0.0% |
  rotate_psi_s:                      4.100     4.100   0.0% |
Set symmetry:                        0.001     0.001   0.0% |
Other:                               8.998     8.998   0.0% |
-----------------------------------------------------------
Total:                                     34524.427 100.0%

Date: Wed Apr 19 16:47:12 2023
