
  ___ ___ ___ _ _ _  
 |   |   |_  | | | | 
 | | | | | . | | | | 
 |__ |  _|___|_____|  22.8.0
 |___|_|             

User:   c.zeng@d0050
Date:   Thu Apr 20 11:52:15 2023
Arch:   x86_64
Pid:    68536
CWD:    /home/c.zeng/projects/hea-corrosion/hea-mlp/data-curation/surface-mcmc/dft-jobs/70
Python: 3.8.1
gpaw:   /home/c.zeng/usr/installs/gpaw/source/gpaw-22.8.0/gpaw
_gpaw:  /home/c.zeng/usr/installs/gpaw/source/gpaw-22.8.0/
        _gpaw.cpython-38-x86_64-linux-gnu.so
ase:    /home/c.zeng/.local/lib/python3.8/site-packages/ase-3.22.1-py3.8.egg/ase (version 3.22.1)
numpy:  /home/c.zeng/.local/lib/python3.8/site-packages/numpy (version 1.24.2)
scipy:  /home/c.zeng/.local/lib/python3.8/site-packages/scipy (version 1.10.1)
libxc:  4.2.3
units:  Angstrom and eV
cores: 30
OpenMP: False
OMP_NUM_THREADS: 1

Input parameters:
  convergence: {energy: 0.0001}
  kpts: [2 2 1]
  maxiter: 666
  mode: {ecut: 350.0,
         name: pw}
  occupations: {fixmagmom: False,
                name: fermi-dirac,
                width: 0.1}
  poissonsolver: {dipolelayer: xy}
  spinpol: True
  symmetry: {point_group: False}
  xc: PBE

System changes: positions, numbers, cell, pbc, initial_charges, initial_magmoms 

Initialize ...

species:
  Co:
    name: Cobalt
    id: 339d20d5b0b93d2de9531a1bee871d91
    Z: 27.0
    valence: 9
    core: 18
    charge: 0.0
    file: /home/c.zeng/usr/data/gpaw-setups-0.9.20000/Co.PBE.gz
    compensation charges: {type: gauss,
                           rc: 0.32,
                           lmax: 2}
    cutoffs: {filter: 1.87,
              core: 2.55}
    valence states:
      #              energy  rcut
      - 4s(2.00)    -5.469   1.005
      - 4p(0.00)    -1.277   1.058
      - 3d(7.00)    -8.205   1.005
      -  s          21.742   1.005
      -  p          25.934   1.058
      -  d          19.007   1.005
  
    # Using partial waves for Co as LCAO basis

  Cr:
    name: Chromium
    id: 33f258bda2ca9f93018e70263a35547b
    Z: 24.0
    valence: 6
    core: 18
    charge: 0.0
    file: /home/c.zeng/usr/data/gpaw-setups-0.9.20000/Cr.PBE.gz
    compensation charges: {type: gauss,
                           rc: 0.35,
                           lmax: 2}
    cutoffs: {filter: 2.14,
              core: 3.04}
    valence states:
      #              energy  rcut
      - 4s(1.00)    -4.007   1.164
      - 4p(0.00)    -0.989   1.217
      - 3d(5.00)    -2.913   1.111
      -  s          23.205   1.164
      -  p          26.223   1.217
      -  d          24.299   1.111
  
    # Using partial waves for Cr as LCAO basis

  Ni:
    name: Nickel
    id: 0d9f38a9d6e76a2886f07bb4381f212b
    Z: 28.0
    valence: 16
    core: 12
    charge: 0.0
    file: /home/c.zeng/usr/data/gpaw-setups-0.9.20000/Ni.PBE.gz
    compensation charges: {type: gauss,
                           rc: 0.36,
                           lmax: 2}
    cutoffs: {filter: 2.14,
              core: 1.98}
    valence states:
      #              energy  rcut
      - 4s(2.00)    -5.642   1.164
      - 3p(6.00)   -71.394   1.207
      - 4p(0.00)    -1.226   1.207
      - 3d(8.00)    -8.875   1.138
      -  s          21.570   1.164
      -  d          18.337   1.138
  
    # Using partial waves for Ni as LCAO basis

  Fe:
    name: Iron
    id: 37abbd8d6c3c35915a9b583b742da910
    Z: 26.0
    valence: 8
    core: 18
    charge: 0.0
    file: /home/c.zeng/usr/data/gpaw-setups-0.9.20000/Fe.PBE.gz
    compensation charges: {type: gauss,
                           rc: 0.33,
                           lmax: 2}
    cutoffs: {filter: 2.06,
              core: 2.67}
    valence states:
      #              energy  rcut
      - 4s(2.00)    -5.291   1.164
      - 4p(0.00)    -1.326   1.058
      - 3d(6.00)    -7.505   1.058
      -  s          21.920   1.164
      -  p          25.885   1.058
      -  d          19.706   1.058
  
    # Using partial waves for Fe as LCAO basis

  Al:
    name: Aluminium
    id: 0292cae29f5d6237e50f6abdd43a7bdd
    Z: 13.0
    valence: 3
    core: 10
    charge: 0.0
    file: /home/c.zeng/usr/data/gpaw-setups-0.9.20000/Al.PBE.gz
    compensation charges: {type: gauss,
                           rc: 0.34,
                           lmax: 2}
    cutoffs: {filter: 1.91,
              core: 2.36}
    valence states:
      #              energy  rcut
      - 3s(2.00)    -7.753   1.085
      - 3p(1.00)    -2.712   1.085
      -  s          19.459   1.085
      -  p          24.499   1.085
      -  d           0.000   1.085
  
    # Using partial waves for Al as LCAO basis

Reference energy: -4275894.041763  # eV

Spin-polarized calculation.
Magnetic moment: 165.900000

Convergence criteria:
 Maximum [total energy] change in last 3 cyles: 0.0001 eV / electron
 Maximum integral of absolute [dens]ity change: 0.0001 electrons / valence electron
 Maximum integral of absolute [eigenst]ate change: 4e-08 eV^2 / valence electron
 Maximum number of scf [iter]ations: 666
 (Square brackets indicate name in SCF output, whereas a 'c' in
 the SCF output indicates the quantity has converged.)

Symmetries present (total): 1

  ( 1  0  0)
  ( 0  1  0)
  ( 0  0  1)

4 k-points: 2 x 2 x 1 Monkhorst-Pack grid
2 k-points in the irreducible part of the Brillouin zone
       k-points in crystal coordinates                weights
   0:     0.25000000   -0.25000000    0.00000000          2/4
   1:     0.25000000    0.25000000    0.00000000          2/4

Wave functions: Plane wave expansion
  Cutoff energy: 350.000 eV
  Number of coefficients (min, max): 58901, 58943
  Pulay-stress correction: 0.000000 eV/Ang^3 (de/decut=0.000000)
  Using FFTW library
  ScaLapack parameters: grid=1x1, blocksize=None
  Wavefunction extrapolation:
    Improved wavefunction reuse through dual PAW basis 

Occupation numbers: Fermi-Dirac:
  width: 0.1000  # eV
 

Eigensolver
   Davidson(niter=2) 

Densities:
  Coarse grid: 54*54*128 grid
  Fine grid: 108*108*256 grid
  Total Charge: 0.000000 

Density mixing:
  Method: difference
  Backend: pulay
  Linear mixing parameter: 0.05
  old densities: 5
  Damping of long wavelength oscillations: 50 

Hamiltonian:
  XC and Coulomb potentials evaluated on a 108*108*256 grid
  Using the PBE Exchange-Correlation functional
  External potential:
    NoExternalPotential
 

XC parameters: PBE with 2 nearest neighbor stencil

Memory estimate:
  Process memory now: 366.73 MiB
  Calculator: 2335.53 MiB
    Density: 17.84 MiB
      Arrays: 6.75 MiB
      Localized functions: 8.39 MiB
      Mixer: 2.70 MiB
    Hamiltonian: 5.27 MiB
      Arrays: 5.01 MiB
      XC: 0.00 MiB
      Poisson: 0.00 MiB
      vbar: 0.25 MiB
    Wavefunctions: 2312.43 MiB
      Arrays psit_nG: 1458.82 MiB
      Eigensolver: 834.29 MiB
      Projections: 3.66 MiB
      Projectors: 1.14 MiB
      PW-descriptor: 14.51 MiB

Total number of cores used: 30
Parallelization over k-points: 2
Domain decomposition: 1 x 3 x 5

Number of atoms: 125
Number of atomic orbitals: 1185
Number of bands in calculation: 811
Number of valence electrons: 1179
Bands to converge: occupied

... initialized

Initializing position-dependent things.

Density initialized from atomic densities
Creating initial wave functions:
  811 bands from LCAO basis set

                                                                  
                                                                  
                                                                  
                                                                  
                             Cr                       Cr          
                               Ni    Co    Ni    Cr    Ni         
                          Co     Ni    Cr    Cr    Co             
                                Fe    Fe    Fe    Al    Cr        
                Co    Cr   NCr   CCo    FAl   Cr    Ni            
           Ni     Co   FCo   CFe   FFe   Cr     Ni   Ni           
             Cr    Fe     CoCo    Ni    Co     Fe                 
                  Fe    NNi   CCr   CFe   FNi   ANi               
              Fe   NNi   FNi   CFFe  CNCr  NNi   Fe               
               Fe    Fe    Cr    Ni     Co                        
                          Fe    NFe   CFe   CNi   CNi   Al        
           Co    Cr   ACr  CCCo   FCr   CFe   CFe   Ni            
            Ni    Co    Fe    Co    Ni                            
                       Co    Cr    Al    Cr    Cr                 
       Ni    Cr   CCr    Co    NFe   Fe    Ni                     
              Cr    Co    Cr     Cr    Co                         
                                                                  
                                                                  
                                                                  
                                                                  
                                                                  

Positions:
   0 Co    12.486468    1.462777   10.528605    ( 0.0000,  0.0000,  1.5000)
   1 Cr     2.491286    1.427324   10.624355    ( 0.0000,  0.0000,  2.0000)
   2 Co     4.996443    1.433664   10.615695    ( 0.0000,  0.0000,  2.1000)
   3 Cr     7.497692    1.450585   10.618513    ( 0.0000,  0.0000,  2.0000)
   4 Cr     9.980354    1.438381   10.617016    ( 0.0000,  0.0000,  2.1000)
   5 Ni    13.725570    3.599047   10.613993    ( 0.0000,  0.0000,  2.1000)
   6 Co     3.721032    3.570702   10.596763    ( 0.0000,  0.0000,  1.5000)
   7 Co     6.265421    3.568181   10.621801    ( 0.0000,  0.0000,  2.0000)
   8 Ni     8.741341    3.586865   10.615549    ( 0.0000,  0.0000,  2.0000)
   9 Fe    11.233064    3.610428   10.573163    ( 0.0000,  0.0000,  0.0000)
  10 Cr    14.927431    5.761281   10.554435    ( 0.0000,  0.0000,  1.5000)
  11 Co     5.002416    5.751707   10.362584    ( 0.0000,  0.0000,  0.0000)
  12 Cr     7.528897    5.754942   10.601782    ( 0.0000,  0.0000,  1.5000)
  13 Al     9.984614    5.751426   10.596909    ( 0.0000,  0.0000,  2.1000)
  14 Cr    12.467830    5.774643   10.569993    ( 0.0000,  0.0000,  0.0000)
  15 Ni    16.185528    7.952943   10.517715    ( 0.0000,  0.0000,  0.0000)
  16 Co     6.281890    7.953062   10.585785    ( 0.0000,  0.0000,  2.0000)
  17 Cr     8.751632    7.929564   10.589659    ( 0.0000,  0.0000,  2.0000)
  18 Co    11.232798    7.933199   10.565472    ( 0.0000,  0.0000,  0.0000)
  19 Co    13.711755    7.928211   10.595530    ( 0.0000,  0.0000,  2.0000)
  20 Al    17.465073   10.103493   10.559367    ( 0.0000,  0.0000,  2.1000)
  21 Ni     7.524528   10.087482   10.585491    ( 0.0000,  0.0000,  2.1000)
  22 Cr     9.999339   10.092837   10.628699    ( 0.0000,  0.0000,  2.1000)
  23 Co    12.492524   10.103136   10.590364    ( 0.0000,  0.0000,  1.5000)
  24 Co    14.967562   10.103591   10.598553    ( 0.0000,  0.0000,  1.5000)
  25 Ni     0.039549    0.061487   12.592509    ( 0.0000,  0.0000,  0.0000)
  26 Cr     2.543839    0.004196   12.633574    ( 0.0000,  0.0000,  2.1000)
  27 Cr     5.007959    0.016292   12.619485    ( 0.0000,  0.0000,  1.5000)
  28 Al    13.725047   10.821613   12.614847    ( 0.0000,  0.0000,  1.5000)
  29 Fe     9.941746    0.020015   12.634836    ( 0.0000,  0.0000,  2.1000)
  30 Ni     1.280557    2.197634   12.622449    ( 0.0000,  0.0000,  2.0000)
  31 Co     3.757003    2.159238   12.617870    ( 0.0000,  0.0000,  0.0000)
  32 Fe     6.259391    2.150539   12.632283    ( 0.0000,  0.0000,  0.0000)
  33 Co     8.729061    2.160536   12.640942    ( 0.0000,  0.0000,  1.5000)
  34 Ni    11.206426    2.199527   12.600112    ( 0.0000,  0.0000,  0.0000)
  35 Fe    14.980028    4.321894   12.623066    ( 0.0000,  0.0000,  1.5000)
  36 Al     5.000637    4.306532   12.605865    ( 0.0000,  0.0000,  0.0000)
  37 Cr     7.511972    4.316766   12.613115    ( 0.0000,  0.0000,  2.0000)
  38 Fe     9.977581    4.334444   12.603575    ( 0.0000,  0.0000,  2.0000)
  39 Fe    12.466237    4.352219   12.609857    ( 0.0000,  0.0000,  0.0000)
  40 Ni    16.217374    6.438246   12.562775    ( 0.0000,  0.0000,  2.1000)
  41 Fe     6.249088    6.441384   12.586551    ( 0.0000,  0.0000,  2.1000)
  42 Fe     8.734867    6.480104   12.598380    ( 0.0000,  0.0000,  2.1000)
  43 Fe    11.217541    6.497393   12.580210    ( 0.0000,  0.0000,  1.5000)
  44 Ni    13.747589    6.470530   12.591629    ( 0.0000,  0.0000,  0.0000)
  45 Fe     4.965631    8.600697   12.619661    ( 0.0000,  0.0000,  0.0000)
  46 Cr     7.527050    8.647229   12.603517    ( 0.0000,  0.0000,  2.0000)
  47 Co     9.992787    8.639093   12.602137    ( 0.0000,  0.0000,  0.0000)
  48 Ni    12.461146    8.678950   12.599202    ( 0.0000,  0.0000,  2.1000)
  49 Fe    14.923147    8.662851   12.605102    ( 0.0000,  0.0000,  0.0000)
  50 Co     1.264555    0.726556   14.701676    ( 0.0000,  0.0000,  2.1000)
  51 Cr     3.750060    0.743838   14.683888    ( 0.0000,  0.0000,  1.5000)
  52 Cr     6.237655    0.730758   14.677812    ( 0.0000,  0.0000,  2.1000)
  53 Co     8.726659    0.737641   14.712772    ( 0.0000,  0.0000,  2.0000)
  54 Cr    11.216460    0.725550   14.709367    ( 0.0000,  0.0000,  2.1000)
  55 Fe     2.513395    2.883675   14.691579    ( 0.0000,  0.0000,  1.5000)
  56 Fe     4.990849    2.893120   14.684241    ( 0.0000,  0.0000,  2.0000)
  57 Cr     7.488486    2.893629   14.696334    ( 0.0000,  0.0000,  0.0000)
  58 Ni     9.972278    2.890664   14.692489    ( 0.0000,  0.0000,  2.0000)
  59 Co    12.467576    2.877141   14.691667    ( 0.0000,  0.0000,  0.0000)
  60 Ni     3.758526    5.050346   14.670151    ( 0.0000,  0.0000,  2.0000)
  61 Fe     6.246120    5.038056   14.669564    ( 0.0000,  0.0000,  1.5000)
  62 Fe     8.732126    5.049902   14.667773    ( 0.0000,  0.0000,  1.5000)
  63 Ni    11.205583    5.023028   14.695277    ( 0.0000,  0.0000,  1.5000)
  64 Ni    13.756582    5.017781   14.684505    ( 0.0000,  0.0000,  2.0000)
  65 Ni     5.010694    7.182699   14.702674    ( 0.0000,  0.0000,  1.5000)
  66 Co     7.485228    7.189460   14.657588    ( 0.0000,  0.0000,  0.0000)
  67 Co     9.946463    7.198159   14.653068    ( 0.0000,  0.0000,  2.1000)
  68 Fe    12.473405    7.201264   14.677166    ( 0.0000,  0.0000,  0.0000)
  69 Ni    15.017763    7.213900   14.645054    ( 0.0000,  0.0000,  2.1000)
  70 Co     6.251064    9.372532   14.712302    ( 0.0000,  0.0000,  2.1000)
  71 Ni     8.729758    9.372705   14.658410    ( 0.0000,  0.0000,  0.0000)
  72 Co    11.200962    9.406124   14.647901    ( 0.0000,  0.0000,  1.5000)
  73 Fe    13.749704    9.394894   14.665366    ( 0.0000,  0.0000,  2.0000)
  74 Ni    16.223386    9.399309   14.720785    ( 0.0000,  0.0000,  1.5000)
  75 Cr    12.479408    1.425961   16.738106    ( 0.0000,  0.0000,  1.5000)
  76 Fe     2.490684    1.454436   16.739222    ( 0.0000,  0.0000,  1.5000)
  77 Ni     4.964072    1.458060   16.748615    ( 0.0000,  0.0000,  2.0000)
  78 Ni     7.493576    1.474137   16.738664    ( 0.0000,  0.0000,  1.5000)
  79 Fe     9.990724    1.450314   16.751932    ( 0.0000,  0.0000,  2.0000)
  80 Ni    13.736871    3.597619   16.749671    ( 0.0000,  0.0000,  2.1000)
  81 Fe     3.731782    3.620695   16.737637    ( 0.0000,  0.0000,  2.0000)
  82 Ni     6.217757    3.600962   16.741893    ( 0.0000,  0.0000,  0.0000)
  83 Cr     8.739843    3.608427   16.720025    ( 0.0000,  0.0000,  2.1000)
  84 Fe    11.236517    3.591755   16.778291    ( 0.0000,  0.0000,  2.0000)
  85 Ni    14.987780    5.779273   16.714506    ( 0.0000,  0.0000,  0.0000)
  86 Fe     4.996827    5.757928   16.729565    ( 0.0000,  0.0000,  1.5000)
  87 Co     7.493878    5.760427   16.738488    ( 0.0000,  0.0000,  2.0000)
  88 Fe     9.975457    5.766269   16.736932    ( 0.0000,  0.0000,  2.0000)
  89 Cr    12.478104    5.731140   16.775473    ( 0.0000,  0.0000,  1.5000)
  90 Ni    16.238159    7.937775   16.730328    ( 0.0000,  0.0000,  2.0000)
  91 Ni     6.231444    7.940404   16.765522    ( 0.0000,  0.0000,  0.0000)
  92 Cr     8.728840    7.936931   16.735611    ( 0.0000,  0.0000,  0.0000)
  93 Fe    11.192557    7.913866   16.746149    ( 0.0000,  0.0000,  0.0000)
  94 Cr    13.768802    7.904897   16.753722    ( 0.0000,  0.0000,  1.5000)
  95 Cr    17.466742   10.100767   16.763996    ( 0.0000,  0.0000,  2.0000)
  96 Fe     7.483726   10.114128   16.752695    ( 0.0000,  0.0000,  0.0000)
  97 Fe     9.946168   10.127316   16.729242    ( 0.0000,  0.0000,  0.0000)
  98 Fe    12.492406   10.089342   16.764671    ( 0.0000,  0.0000,  0.0000)
  99 Al    15.005292   10.118575   16.753076    ( 0.0000,  0.0000,  2.0000)
 100 Cr     6.250979   10.817826   18.755486    ( 0.0000,  0.0000,  2.1000)
 101 Cr     2.491992    0.007607   18.757365    ( 0.0000,  0.0000,  2.0000)
 102 Fe     4.959039    0.011376   18.813253    ( 0.0000,  0.0000,  1.5000)
 103 Co     7.505721    0.033872   18.830425    ( 0.0000,  0.0000,  0.0000)
 104 Cr    16.226478   10.816744   18.766934    ( 0.0000,  0.0000,  1.5000)
 105 Ni     1.262456    2.149912   18.735438    ( 0.0000,  0.0000,  2.1000)
 106 Co     3.733330    2.172036   18.731769    ( 0.0000,  0.0000,  2.1000)
 107 Co     6.235561    2.176310   18.762208    ( 0.0000,  0.0000,  0.0000)
 108 Fe     8.740232    2.176277   18.742160    ( 0.0000,  0.0000,  2.0000)
 109 Fe    11.216255    2.130427   18.758333    ( 0.0000,  0.0000,  1.5000)
 110 Co     2.521812    4.343315   18.747649    ( 0.0000,  0.0000,  2.1000)
 111 Cr     4.991012    4.329273   18.757688    ( 0.0000,  0.0000,  0.0000)
 112 Cr     7.490880    4.334898   18.725399    ( 0.0000,  0.0000,  2.1000)
 113 Co     9.943770    4.322230   18.730184    ( 0.0000,  0.0000,  2.0000)
 114 Al    12.464525    4.326265   18.943816    ( 0.0000,  0.0000,  0.0000)
 115 Co    16.224051    6.495359   18.723022    ( 0.0000,  0.0000,  2.0000)
 116 Co     6.226814    6.495348   18.761650    ( 0.0000,  0.0000,  0.0000)
 117 Ni     8.730619    6.495759   18.735203    ( 0.0000,  0.0000,  1.5000)
 118 Cr    11.207915    6.503819   18.742835    ( 0.0000,  0.0000,  2.1000)
 119 Cr    13.765796    6.524169   18.782109    ( 0.0000,  0.0000,  0.0000)
 120 Ni    17.450702    8.660601   18.763558    ( 0.0000,  0.0000,  0.0000)
 121 Ni     7.490686    8.670024   18.761621    ( 0.0000,  0.0000,  1.5000)
 122 Co     9.981419    8.673010   18.727630    ( 0.0000,  0.0000,  2.1000)
 123 Ni    12.489241    8.635804   18.838438    ( 0.0000,  0.0000,  0.0000)
 124 Cr    14.988874    8.667774   18.729832    ( 0.0000,  0.0000,  2.1000)

Unit cell:
           periodic     x           y           z      points  spacing
  1. axis:    yes   12.474800    0.000000    0.000000    54     0.2001
  2. axis:    yes    6.246240   10.818800    0.000000    54     0.2003
  3. axis:    no     0.000000    0.000000   29.353100   128     0.2293

  Lengths:  12.474800  12.492476  29.353100
  Angles:   90.000000  90.000000  59.999988

Effective grid spacing dv^(1/3) = 0.2198

     iter     time        total  log10-change:  magmom
                         energy  eigst   dens
iter:   1 12:02:26 -1053.599381                  +165.5127
iter:   2 12:06:05 -1891.245600  +0.24  -1.22    +129.9173
iter:   3 12:09:45 -1486.731882  +0.38  -0.83    +101.9983
iter:   4 12:13:26 -1088.226744  -0.66  -0.96    +66.9329
iter:   5 12:17:06 -1004.073033  -1.33  -1.22    +52.3998
iter:   6 12:20:47  -995.141442  -1.82  -1.34    +45.1381
iter:   7 12:24:27  -987.562405  -1.87  -1.36    +42.0604
iter:   8 12:28:09 -1601.815559  -0.63  -1.39    +42.4545
iter:   9 12:31:50 -1010.792475  -0.75  -0.88    +40.3657
iter:  10 12:35:31  -979.250237  -1.63  -1.32    +38.4612
iter:  11 12:39:11  -967.090454  -1.79  -1.44    +39.3708
iter:  12 12:42:52  -992.617684  -1.56  -1.57    +39.7278
iter:  13 12:46:35  -982.847947  -1.64  -1.44    +40.7122
iter:  14 12:50:16  -968.072327  -1.54  -1.49    +40.4245
iter:  15 12:53:57  -971.637824  -1.89  -1.72    +40.6766
iter:  16 12:57:40 -1093.276698  -1.47  -1.63    +41.5955
iter:  17 13:01:23  -965.658816  -1.75  -1.17    +41.5752
iter:  18 13:05:06  -979.296810  -1.92  -1.76    +43.8269
iter:  19 13:08:48  -964.257843  -2.25  -1.61    +44.0804
iter:  20 13:12:31  -968.318844  -2.42  -1.80    +45.5149
iter:  21 13:16:13  -964.083591  -2.54  -1.75    +47.3286
iter:  22 13:19:56  -989.052669  -2.15  -1.86    +49.0513
iter:  23 13:23:38  -964.171714  -2.42  -1.50    +50.9067
iter:  24 13:27:20  -964.541216  -2.59  -1.88    +53.4468
iter:  25 13:31:02  -977.483553  -1.99  -2.01    +55.6969
iter:  26 13:34:44  -967.025380  -2.34  -1.70    +55.5110
iter:  27 13:38:22  -965.291323  -2.69  -1.95    +56.8437
iter:  28 13:42:04  -967.119115  -2.70  -2.13    +58.4021
iter:  29 13:45:46  -969.896163  -2.49  -1.98    +58.9844
iter:  30 13:49:28  -965.008261  -2.99  -1.86    +60.1262
iter:  31 13:53:11  -965.881652  -3.34  -2.25    +61.7627
iter:  32 13:56:53  -965.601998  -3.27  -2.18    +62.5789
iter:  33 14:00:33  -965.506246  -3.51  -2.24    +63.5585
iter:  34 14:04:14  -965.793622  -3.37  -2.32    +65.0276
iter:  35 14:07:56  -967.862029  -2.96  -2.40    +65.4290
iter:  36 14:11:38  -966.611299  -2.98  -2.08    +65.7286
iter:  37 14:15:20  -966.321258  -3.24  -2.29    +66.8731
iter:  38 14:19:01  -969.048222  -3.00  -2.46    +67.5108
iter:  39 14:22:43  -966.502806  -3.23  -2.02    +67.8337
iter:  40 14:26:25  -966.467499  -3.73  -2.47    +68.4078
iter:  41 14:30:06  -966.765997  -3.51  -2.58    +69.3999
iter:  42 14:33:46  -966.957371  -3.48  -2.54    +70.0743
iter:  43 14:37:28  -967.459745  -3.21  -2.55    +70.9597
iter:  44 14:41:11  -967.276085  -3.89  -2.41    +70.4683
iter:  45 14:44:53  -967.424965  -3.81  -2.40    +70.9993
iter:  46 14:48:37  -967.852867  -3.24  -2.40    +71.8606
iter:  47 14:52:19  -968.001219  -3.43  -2.31    +71.7228
iter:  48 14:55:59  -967.816763  -3.23  -2.29    +72.0430
iter:  49 14:59:41  -970.551764  -2.95  -2.38    +72.3694
iter:  50 15:03:23  -968.671819  -2.77  -2.00    +72.4768
iter:  51 15:07:06  -967.471287  -3.31  -2.15    +71.6164
iter:  52 15:10:47  -968.102178  -3.29  -2.47    +71.5010
iter:  53 15:14:27  -967.322728  -3.89  -2.29    +71.4848
iter:  54 15:18:09  -967.384189  -4.21  -2.61    +71.6880
iter:  55 15:21:51  -967.393895c -3.96  -2.59    +71.8180
iter:  56 15:25:33  -967.490813c -4.05  -2.59    +71.8737
iter:  57 15:29:15  -967.442984c -3.94  -2.55    +72.0719
iter:  58 15:32:52  -967.493776c -3.70  -2.61    +72.1189
iter:  59 15:36:35  -967.805139  -3.49  -2.61    +72.3042
iter:  60 15:40:17  -967.395893  -3.92  -2.42    +72.3647
iter:  61 15:43:58  -967.604311  -3.97  -2.84    +72.5296
iter:  62 15:47:41  -967.640002  -3.80  -2.57    +72.5457
iter:  63 15:51:21  -967.440499  -4.16  -2.56    +72.5700
iter:  64 15:55:02  -967.447467  -4.46  -2.86    +72.8008
iter:  65 15:58:44  -967.525375c -4.25  -2.96    +72.9206
iter:  66 16:02:25  -967.461890c -4.73  -2.77    +72.9790
iter:  67 16:06:07  -967.487995c -4.61  -3.01    +73.1570
iter:  68 16:09:49  -967.549566c -4.58  -3.02    +73.1269
iter:  69 16:13:27  -967.534615c -4.40  -2.80    +73.2302
iter:  70 16:17:09  -967.521391c -4.84  -2.92    +73.2414
iter:  71 16:20:50  -967.542811c -4.61  -3.02    +73.3684
iter:  72 16:24:32  -967.581234c -4.45  -3.06    +73.5273
iter:  73 16:28:13  -967.562999c -4.76  -3.00    +73.3900
iter:  74 16:31:55  -967.652970c -3.88  -2.99    +73.8018
iter:  75 16:35:33  -967.695867  -4.31  -2.95    +73.9271
iter:  76 16:39:16  -967.656116c -4.64  -2.87    +73.9709
iter:  77 16:42:58  -967.743149c -4.14  -3.03    +74.0486
iter:  78 16:46:39  -967.686456c -4.57  -2.73    +74.0982
iter:  79 16:50:23  -967.674281c -4.23  -2.92    +74.0770
iter:  80 16:54:04  -967.659997c -4.54  -2.97    +74.0656
iter:  81 16:57:43  -967.663782c -4.78  -3.10    +74.0495
iter:  82 17:01:25  -967.668515c -4.66  -3.16    +74.0156
iter:  83 17:05:07  -967.667434c -5.16  -3.21    +73.9998
iter:  84 17:08:49  -967.677679c -5.04  -3.25    +73.9582
iter:  85 17:12:29  -967.679438c -5.20  -3.15    +73.9782
iter:  86 17:16:09  -967.678251c -4.96  -3.19    +73.9959
iter:  87 17:19:51  -967.683411c -5.12  -3.28    +73.9988
iter:  88 17:23:33  -967.682555c -5.19  -3.23    +74.0001
iter:  89 17:27:15  -967.693356c -5.13  -3.30    +74.0294
iter:  90 17:30:56  -967.699983c -4.98  -3.17    +74.0419
iter:  91 17:34:39  -967.688042c -5.10  -3.12    +74.0482
iter:  92 17:38:20  -967.692293c -5.37  -3.32    +74.0685
iter:  93 17:42:00  -967.689649c -5.40  -3.28    +74.0917
iter:  94 17:45:42  -967.691289c -5.72  -3.37    +74.1179
iter:  95 17:49:24  -967.692280c -5.66  -3.41    +74.1390
iter:  96 17:53:05  -967.693716c -5.92  -3.42    +74.1537
iter:  97 17:56:48  -967.706950c -5.05  -3.42    +74.1977
iter:  98 18:00:27  -967.706789c -5.07  -3.20    +74.1943
iter:  99 18:04:09  -967.699953c -5.07  -3.19    +74.1979
iter: 100 18:07:50  -967.697010c -5.50  -3.47    +74.2283
iter: 101 18:11:32  -967.699382c -5.58  -3.69    +74.2641
iter: 102 18:15:15  -967.699203c -5.95  -3.63    +74.2718
iter: 103 18:18:56  -967.699161c -6.00  -3.68    +74.2887
iter: 104 18:22:33  -967.700125c -6.14  -3.83    +74.3180
iter: 105 18:26:15  -967.704888c -5.42  -3.84    +74.3915
iter: 106 18:29:57  -967.701689c -5.99  -3.54    +74.3568
iter: 107 18:33:39  -967.703409c -5.93  -3.74    +74.3932
iter: 108 18:37:21  -967.704389c -6.03  -3.75    +74.3905
iter: 109 18:41:02  -967.703210c -6.11  -3.61    +74.3945
iter: 110 18:44:41  -967.703731c -6.28  -3.79    +74.4037
iter: 111 18:48:23  -967.705851c -6.06  -3.73    +74.4123
iter: 112 18:52:05  -967.703950c -5.96  -3.61    +74.4173
iter: 113 18:55:47  -967.705559c -5.77  -3.77    +74.4273
iter: 114 18:59:26  -967.706512c -5.80  -3.69    +74.4280
iter: 115 19:03:05  -967.705376c -5.93  -3.58    +74.4189
iter: 116 19:06:46  -967.704767c -6.64  -3.68    +74.4330
iter: 117 19:10:27  -967.704951c -6.65  -3.92    +74.4397
iter: 118 19:14:08  -967.705297c -6.17  -3.91    +74.4564
iter: 119 19:17:50  -967.705679c -5.97  -3.88    +74.4749
iter: 120 19:21:30  -967.705501c -6.72  -3.89    +74.4649
iter: 121 19:25:10  -967.705933c -6.42  -3.88    +74.4700
iter: 122 19:28:51  -967.706198c -6.58  -3.91    +74.4683
iter: 123 19:32:33  -967.706575c -6.03  -3.81    +74.4662
iter: 124 19:36:14  -967.706025c -6.52  -3.82    +74.4628
iter: 125 19:39:55  -967.705936c -6.60  -3.92    +74.4630
iter: 126 19:43:31  -967.706424c -6.62  -3.92    +74.4623
iter: 127 19:47:13  -967.706211c -6.38  -3.91    +74.4563
iter: 128 19:50:55  -967.706147c -6.49  -3.88    +74.4568
iter: 129 19:54:37  -967.707141c -6.16  -3.97    +74.4551
iter: 130 19:58:18  -967.709278c -5.86  -3.75    +74.4545
iter: 131 20:01:57  -967.706133c -6.21  -3.55    +74.4474
iter: 132 20:05:38  -967.706500c -6.38  -4.24c   +74.4438
iter: 133 20:09:19  -967.706286c -6.84  -3.87    +74.4431
iter: 134 20:13:00  -967.706183c -7.22  -4.39c   +74.4347
iter: 135 20:16:42  -967.706224c -7.56c -4.33c   +74.4342

Converged after 135 iterations.

Dipole moment: (46.202154, 23.161315, -0.005196) |e|*Ang

Total magnetic moment: (0.000000, 0.000000, 74.434220)
Local magnetic moments:
   0 Co ( 0.000000,  0.000000,  1.203402)
   1 Cr ( 0.000000,  0.000000,  1.251843)
   2 Co ( 0.000000,  0.000000,  0.856422)
   3 Cr ( 0.000000,  0.000000,  1.679767)
   4 Cr ( 0.000000,  0.000000, -2.406634)
   5 Ni ( 0.000000,  0.000000,  0.141666)
   6 Co ( 0.000000,  0.000000,  1.271663)
   7 Co ( 0.000000,  0.000000,  0.745082)
   8 Ni ( 0.000000,  0.000000,  0.174322)
   9 Fe ( 0.000000,  0.000000,  2.337913)
  10 Cr ( 0.000000,  0.000000,  2.064581)
  11 Co ( 0.000000,  0.000000,  1.601257)
  12 Cr ( 0.000000,  0.000000, -2.075394)
  13 Al ( 0.000000,  0.000000, -0.032227)
  14 Cr ( 0.000000,  0.000000, -2.152242)
  15 Ni ( 0.000000,  0.000000,  0.467691)
  16 Co ( 0.000000,  0.000000,  1.031144)
  17 Cr ( 0.000000,  0.000000,  1.667983)
  18 Co ( 0.000000,  0.000000,  1.210263)
  19 Co ( 0.000000,  0.000000,  1.430172)
  20 Al ( 0.000000,  0.000000, -0.036125)
  21 Ni ( 0.000000,  0.000000,  0.085433)
  22 Cr ( 0.000000,  0.000000, -1.936815)
  23 Co ( 0.000000,  0.000000,  1.114917)
  24 Co ( 0.000000,  0.000000,  1.185998)
  25 Ni ( 0.000000,  0.000000,  0.304367)
  26 Cr ( 0.000000,  0.000000,  0.448188)
  27 Cr ( 0.000000,  0.000000,  0.238031)
  28 Al ( 0.000000,  0.000000, -0.043224)
  29 Fe ( 0.000000,  0.000000,  2.198645)
  30 Ni ( 0.000000,  0.000000,  0.348930)
  31 Co ( 0.000000,  0.000000,  0.714020)
  32 Fe ( 0.000000,  0.000000,  1.218965)
  33 Co ( 0.000000,  0.000000,  0.709723)
  34 Ni ( 0.000000,  0.000000,  0.296983)
  35 Fe ( 0.000000,  0.000000,  2.315427)
  36 Al ( 0.000000,  0.000000, -0.047280)
  37 Cr ( 0.000000,  0.000000, -0.717966)
  38 Fe ( 0.000000,  0.000000,  1.934612)
  39 Fe ( 0.000000,  0.000000, -2.060834)
  40 Ni ( 0.000000,  0.000000,  0.451845)
  41 Fe ( 0.000000,  0.000000,  2.010896)
  42 Fe ( 0.000000,  0.000000,  1.437569)
  43 Fe ( 0.000000,  0.000000,  2.097563)
  44 Ni ( 0.000000,  0.000000,  0.244596)
  45 Fe ( 0.000000,  0.000000,  2.488626)
  46 Cr ( 0.000000,  0.000000, -1.366160)
  47 Co ( 0.000000,  0.000000,  0.780893)
  48 Ni ( 0.000000,  0.000000,  0.372371)
  49 Fe ( 0.000000,  0.000000,  2.522195)
  50 Co ( 0.000000,  0.000000,  0.733009)
  51 Cr ( 0.000000,  0.000000, -1.180298)
  52 Cr ( 0.000000,  0.000000, -0.942809)
  53 Co ( 0.000000,  0.000000,  0.775995)
  54 Cr ( 0.000000,  0.000000, -1.167272)
  55 Fe ( 0.000000,  0.000000,  2.319534)
  56 Fe ( 0.000000,  0.000000,  1.940786)
  57 Cr ( 0.000000,  0.000000, -0.955543)
  58 Ni ( 0.000000,  0.000000,  0.249962)
  59 Co ( 0.000000,  0.000000,  1.122961)
  60 Ni ( 0.000000,  0.000000,  0.436227)
  61 Fe ( 0.000000,  0.000000,  1.942060)
  62 Fe ( 0.000000,  0.000000,  1.947130)
  63 Ni ( 0.000000,  0.000000,  0.280398)
  64 Ni ( 0.000000,  0.000000,  0.219718)
  65 Ni ( 0.000000,  0.000000,  0.575339)
  66 Co ( 0.000000,  0.000000,  1.379462)
  67 Co ( 0.000000,  0.000000,  1.192339)
  68 Fe ( 0.000000,  0.000000, -2.235184)
  69 Ni ( 0.000000,  0.000000,  0.334823)
  70 Co ( 0.000000,  0.000000,  1.295346)
  71 Ni ( 0.000000,  0.000000,  0.287894)
  72 Co ( 0.000000,  0.000000,  0.938867)
  73 Fe ( 0.000000,  0.000000,  1.999338)
  74 Ni ( 0.000000,  0.000000,  0.234237)
  75 Cr ( 0.000000,  0.000000, -1.031761)
  76 Fe ( 0.000000,  0.000000,  2.057719)
  77 Ni ( 0.000000,  0.000000,  0.453902)
  78 Ni ( 0.000000,  0.000000,  0.259292)
  79 Fe ( 0.000000,  0.000000,  1.557902)
  80 Ni ( 0.000000,  0.000000,  0.390410)
  81 Fe ( 0.000000,  0.000000,  2.310068)
  82 Ni ( 0.000000,  0.000000,  0.306648)
  83 Cr ( 0.000000,  0.000000, -1.472020)
  84 Fe ( 0.000000,  0.000000,  2.014739)
  85 Ni ( 0.000000,  0.000000,  0.371018)
  86 Fe ( 0.000000,  0.000000,  2.471111)
  87 Co ( 0.000000,  0.000000,  1.113137)
  88 Fe ( 0.000000,  0.000000,  2.052946)
  89 Cr ( 0.000000,  0.000000,  1.224629)
  90 Ni ( 0.000000,  0.000000,  0.233095)
  91 Ni ( 0.000000,  0.000000,  0.405078)
  92 Cr ( 0.000000,  0.000000, -1.662163)
  93 Fe ( 0.000000,  0.000000,  1.991893)
  94 Cr ( 0.000000,  0.000000, -1.402409)
  95 Cr ( 0.000000,  0.000000, -0.009316)
  96 Fe ( 0.000000,  0.000000,  1.856387)
  97 Fe ( 0.000000,  0.000000,  2.118121)
  98 Fe ( 0.000000,  0.000000,  2.331963)
  99 Al ( 0.000000,  0.000000, -0.027171)
 100 Cr ( 0.000000,  0.000000,  1.434543)
 101 Cr ( 0.000000,  0.000000, -2.340252)
 102 Fe ( 0.000000,  0.000000,  2.637121)
 103 Co ( 0.000000,  0.000000,  1.194288)
 104 Cr ( 0.000000,  0.000000, -1.946259)
 105 Ni ( 0.000000,  0.000000,  0.286004)
 106 Co ( 0.000000,  0.000000,  1.386131)
 107 Co ( 0.000000,  0.000000,  1.408250)
 108 Fe ( 0.000000,  0.000000,  2.243027)
 109 Fe ( 0.000000,  0.000000,  1.986485)
 110 Co ( 0.000000,  0.000000,  1.394283)
 111 Cr ( 0.000000,  0.000000, -2.495463)
 112 Cr ( 0.000000,  0.000000,  1.503575)
 113 Co ( 0.000000,  0.000000,  0.930948)
 114 Al ( 0.000000,  0.000000, -0.017197)
 115 Co ( 0.000000,  0.000000,  1.324435)
 116 Co ( 0.000000,  0.000000,  1.366296)
 117 Ni ( 0.000000,  0.000000,  0.280982)
 118 Cr ( 0.000000,  0.000000, -1.920748)
 119 Cr ( 0.000000,  0.000000, -1.784561)
 120 Ni ( 0.000000,  0.000000,  0.199148)
 121 Ni ( 0.000000,  0.000000,  0.247275)
 122 Co ( 0.000000,  0.000000,  1.351080)
 123 Ni ( 0.000000,  0.000000,  0.158111)
 124 Cr ( 0.000000,  0.000000,  1.732968)

Energy contributions relative to reference atoms: (reference = -4275894.041763)

Kinetic:       +285.601082
Potential:     -319.061402
External:        +0.000000
XC:            -974.174396
Entropy (-ST):   -5.719211
Local:          +42.788098
--------------------------
Free energy:   -970.565830
Extrapolated:  -967.706224

Dipole-layer corrected work functions: 4.940631, 4.947598 eV

Spin contamination: 41.582183 electrons
Showing all kpts
                      Up                     Down
 Kpt  Band  Eigenvalues  Occupancy  Eigenvalues  Occupancy
  0   587     -0.02559    0.99404      0.83175    0.03057
  0   588     -0.01725    0.99352      0.83863    0.02860
  0   589     -0.00628    0.99278      0.84695    0.02637
  0   590      0.00296    0.99209      0.86059    0.02309

  1   587     -0.00448    0.99265      0.83617    0.02929
  1   588     -0.00055    0.99236      0.83834    0.02868
  1   589      0.01001    0.99151      0.84232    0.02759
  1   590      0.02870    0.98979      0.85085    0.02539


Fermi level: 0.48608

No gap

Forces in eV/Ang:
  0 Co   -0.09684    0.14657    0.67706
  1 Cr    0.36678    0.22106    0.11309
  2 Co   -0.20329    0.05768    0.41837
  3 Cr   -0.37172    0.61645   -0.62614
  4 Cr   -0.30756    0.46722   -0.26569
  5 Ni   -0.07760   -0.10049    0.03736
  6 Co    0.41962    0.14307   -0.15071
  7 Co   -0.11186    0.29774    0.02975
  8 Ni   -0.15439    0.07421   -0.17253
  9 Fe    0.43100   -0.43395   -0.08198
 10 Cr    0.17505    0.05652   -0.37612
 11 Co    0.19950    0.09778    0.95072
 12 Cr   -1.38440    0.22606   -0.24431
 13 Al    0.05725   -0.17453   -1.59650
 14 Cr    0.85580    0.13864   -0.09218
 15 Ni    0.22908   -0.34270    0.31468
 16 Co   -0.45233   -0.42060    0.31776
 17 Cr   -0.66674    0.46029   -0.15054
 18 Co    0.40934    0.24302    0.49269
 19 Co   -0.16009    0.58579    0.04396
 20 Al    0.79109   -0.71910   -0.80375
 21 Ni   -0.24356    0.05760   -0.14370
 22 Cr    0.20673    0.18088   -0.35174
 23 Co   -0.00931   -0.39136   -0.09047
 24 Co   -0.04959   -0.28132   -0.09944
 25 Ni   -0.35096   -0.28486    0.41002
 26 Cr   -0.02957    0.36430   -0.15594
 27 Cr   -0.81333   -0.03699   -0.17077
 28 Al    0.52721   -0.13217    0.12512
 29 Fe    0.48954   -0.04318    0.29458
 30 Ni   -0.26399   -0.35112    0.05596
 31 Co   -0.06547   -0.34855   -0.25643
 32 Fe   -0.19449    0.14064   -0.06704
 33 Co    0.04605    0.23149    0.14097
 34 Ni    0.36874   -0.13816    0.25550
 35 Fe   -0.47596   -0.29222   -0.07373
 36 Al   -0.56670    0.16114   -0.45794
 37 Cr    0.67033   -0.26683   -0.22352
 38 Fe   -0.05197   -0.53737    0.56873
 39 Fe    0.19143   -0.06539    0.28709
 40 Ni    0.30591    0.33933   -0.11297
 41 Fe    0.11572    0.64313   -0.38482
 42 Fe   -0.14217    0.25390    0.79801
 43 Fe    0.24359    0.17507    0.56068
 44 Ni   -0.22996   -0.02698    0.38537
 45 Fe    0.35839    0.21356    0.31864
 46 Cr   -0.26813   -0.33889   -0.28332
 47 Co    0.01617    0.15542    0.28049
 48 Ni   -0.05434   -0.30420   -0.09654
 49 Fe    0.54288   -0.87385   -0.19828
 50 Co   -0.36934   -0.05577   -0.28053
 51 Cr   -0.14759   -0.08498    0.12430
 52 Cr   -0.42592   -0.16673    0.66294
 53 Co   -0.02675    0.26824   -0.22316
 54 Cr    0.31227   -0.05011   -0.27294
 55 Fe   -0.42584   -0.00094   -0.42823
 56 Fe    0.11597   -0.46015    0.13800
 57 Cr   -0.03442   -0.14341   -0.61643
 58 Ni    0.17495   -0.08670   -0.14599
 59 Co    0.06919   -0.14950    0.16868
 60 Ni   -0.01881    0.09007   -0.06481
 61 Fe    0.22401    0.19643    0.22494
 62 Fe    0.01260    0.19072   -0.05936
 63 Ni    0.27201    0.15138   -0.29572
 64 Ni   -0.37479    0.39600   -0.13342
 65 Ni    0.10024    0.44068   -0.37132
 66 Co   -0.06768    0.07693    0.11479
 67 Co    0.19808    0.19350    0.19752
 68 Fe   -0.10437   -0.16109    0.08495
 69 Ni   -0.34975   -0.03917    0.13367
 70 Co   -0.07207    0.21678   -0.42077
 71 Ni    0.08601   -0.05615    0.16651
 72 Co    0.28744   -0.27116    0.12878
 73 Fe   -0.67016   -0.21946    0.22210
 74 Ni    0.17330   -0.22039   -0.42429
 75 Cr    0.07997    0.47414    0.25462
 76 Fe    0.11320   -0.08408    0.12085
 77 Ni    0.39360   -0.12162   -0.04039
 78 Ni   -0.35585   -0.26071    0.17073
 79 Fe    0.17451    0.45524   -0.29322
 80 Ni   -0.19976    0.25870   -0.15509
 81 Fe    0.08351   -0.14144    0.32499
 82 Ni    0.06866    0.05276   -0.34359
 83 Cr    0.20711    0.32203    0.35591
 84 Fe   -0.23616   -0.41672   -0.61033
 85 Ni    0.07372   -0.11224    0.31533
 86 Fe    0.28984    0.16781    0.39396
 87 Co   -0.20177    0.04375    0.02115
 88 Fe   -0.35563    0.06377    0.08803
 89 Cr    0.40377    0.77768   -0.36200
 90 Ni   -0.10687   -0.16803   -0.06982
 91 Ni    0.12923   -0.16403   -0.35235
 92 Cr    0.00550   -0.10238    0.28621
 93 Fe    0.28729    0.48981   -0.06658
 94 Cr   -0.54832    0.21739   -0.38111
 95 Cr    1.13633   -0.58237    0.18867
 96 Fe    0.02652   -0.30253   -0.60347
 97 Fe    0.52711   -0.36856   -0.14549
 98 Fe   -0.24129   -0.06700    0.21062
 99 Al   -0.92032    0.59802   -1.05744
100 Cr   -0.27162    0.00212    0.20408
101 Cr   -0.01641    0.15979    0.15936
102 Fe    0.45195    0.04207    0.01924
103 Co   -0.49039    0.02307   -0.38854
104 Cr    0.51926    0.53744    0.83913
105 Ni   -0.13902    0.31759    0.35747
106 Co    0.07421    0.05910    0.17232
107 Co    0.11226   -0.34856   -0.27521
108 Fe   -0.23848    0.05592    0.32115
109 Fe   -0.21355    0.11574    0.05918
110 Co    0.14323    0.00130   -0.21290
111 Cr   -0.36929    0.09440    0.45795
112 Cr    0.36725    0.16197    0.09010
113 Co    0.21296   -0.08319    0.09887
114 Al    0.27446   -0.89283    0.72203
115 Co    0.14303   -0.14741   -0.14088
116 Co    0.01783    0.10130   -0.29766
117 Ni   -0.13533    0.14829    0.17202
118 Cr   -0.44903    0.54268   -0.01777
119 Cr    0.30925   -0.28872    0.13184
120 Ni    0.33911   -0.37163   -0.02954
121 Ni    0.04262   -0.41178    0.04711
122 Co   -0.14720   -0.32492   -0.06156
123 Ni   -0.14867    0.15240   -0.40166
124 Cr   -0.38739   -0.57229    0.78231

Timing:                              incl.     excl.
-----------------------------------------------------------
Forces:                             47.168    47.168   0.2% |
Hamiltonian:                         1.745     0.011   0.0% |
 Atomic:                             0.408     0.001   0.0% |
  XC Correction:                     0.407     0.407   0.0% |
 Calculate atomic Hamiltonians:      0.759     0.759   0.0% |
 Communicate:                        0.095     0.095   0.0% |
 Initialize Hamiltonian:             0.000     0.000   0.0% |
 Poisson:                            0.096     0.096   0.0% |
 XC 3D grid:                         0.376     0.376   0.0% |
LCAO initialization:               368.520     0.570   0.0% |
 LCAO eigensolver:                  20.419     0.018   0.0% |
  Calculate projections:             0.000     0.000   0.0% |
  DenseAtomicCorrection:             0.000     0.000   0.0% |
  Distribute overlap matrix:        10.957    10.957   0.0% |
  Orbital Layouts:                   9.412     9.412   0.0% |
  Potential matrix:                  0.003     0.003   0.0% |
  Sum over cells:                    0.028     0.028   0.0% |
 LCAO to grid:                     344.994   344.994   1.1% |
 Set positions (LCAO WFS):           2.537     2.234   0.0% |
  Basic WFS set positions:           0.004     0.004   0.0% |
  Basis functions set positions:     0.001     0.001   0.0% |
  P tci:                             0.000     0.000   0.0% |
  ST tci:                            0.122     0.122   0.0% |
  mktci:                             0.176     0.176   0.0% |
PWDescriptor:                        0.234     0.234   0.0% |
SCF-cycle:                       29892.405     1.444   0.0% |
 Davidson:                       29145.140  7412.274  24.4% |---------|
  Apply H:                         516.490   507.285   1.7% ||
   HMM T:                            9.206     9.206   0.0% |
  Subspace diag:                  2649.639     0.086   0.0% |
   calc_h_matrix:                 1142.322   679.899   2.2% ||
    Apply H:                       462.423   452.286   1.5% ||
     HMM T:                         10.137    10.137   0.0% |
   diagonalize:                    267.342   267.342   0.9% |
   rotate_psi:                    1239.889  1239.889   4.1% |-|
  calc. matrices:                 6178.360  5301.768  17.5% |------|
   Apply H:                        876.592   857.833   2.8% ||
    HMM T:                          18.760    18.760   0.1% |
  diagonalize:                    9706.712  9706.712  32.0% |------------|
  rotate_psi:                     2681.664  2681.664   8.8% |---|
 Density:                          424.883     0.008   0.0% |
  Atomic density matrices:           5.074     5.074   0.0% |
  Mix:                             200.274   200.274   0.7% |
  Multipole moments:                 0.150     0.150   0.0% |
  Pseudo density:                  219.376   219.368   0.7% |
   Symmetrize density:               0.008     0.008   0.0% |
 Hamiltonian:                      299.267     2.199   0.0% |
  Atomic:                           59.228     0.251   0.0% |
   XC Correction:                   58.976    58.976   0.2% |
  Calculate atomic Hamiltonians:   161.254   161.254   0.5% |
  Communicate:                       9.557     9.557   0.0% |
  Poisson:                           6.415     6.415   0.0% |
  XC 3D grid:                       60.615    60.615   0.2% |
 Orthonormalize:                    21.672     0.001   0.0% |
  calc_s_matrix:                     2.792     2.792   0.0% |
  inverse-cholesky:                  1.185     1.185   0.0% |
  projections:                      13.037    13.037   0.0% |
  rotate_psi_s:                      4.658     4.658   0.0% |
Set symmetry:                        0.001     0.001   0.0% |
Other:                               8.600     8.600   0.0% |
-----------------------------------------------------------
Total:                                     30318.672 100.0%

Date: Thu Apr 20 20:17:34 2023
