
  ___ ___ ___ _ _ _  
 |   |   |_  | | | | 
 | | | | | . | | | | 
 |__ |  _|___|_____|  22.8.0
 |___|_|             

User:   c.zeng@d0135
Date:   Sat Apr  8 13:13:12 2023
Arch:   x86_64
Pid:    70426
CWD:    /home/c.zeng/projects/hea-corrosion/hea-mlp/data-curation/volume/dft-jobs/71
Python: 3.8.1
gpaw:   /home/c.zeng/usr/installs/gpaw/source/gpaw-22.8.0/gpaw
_gpaw:  /home/c.zeng/usr/installs/gpaw/source/gpaw-22.8.0/
        _gpaw.cpython-38-x86_64-linux-gnu.so
ase:    /home/c.zeng/.local/lib/python3.8/site-packages/ase-3.22.1-py3.8.egg/ase (version 3.22.1)
numpy:  /shared/centos7/python/3.8.1/lib/python3.8/site-packages/numpy (version 1.17.4)
scipy:  /shared/centos7/python/3.8.1/lib/python3.8/site-packages/scipy (version 1.4.1)
libxc:  4.2.3
units:  Angstrom and eV
cores: 64
OpenMP: False
OMP_NUM_THREADS: 1

Input parameters:
  convergence: {energy: 0.0001}
  kpts: [2 2 2]
  maxiter: 666
  mode: {ecut: 350.0,
         name: pw}
  occupations: {fixmagmom: False,
                name: fermi-dirac,
                width: 0.1}
  spinpol: True
  xc: PBE

System changes: positions, numbers, cell, pbc, initial_charges, initial_magmoms 

Initialize ...

species:
  Co:
    name: Cobalt
    id: 339d20d5b0b93d2de9531a1bee871d91
    Z: 27.0
    valence: 9
    core: 18
    charge: 0.0
    file: /home/c.zeng/usr/data/gpaw-setups-0.9.20000/Co.PBE.gz
    compensation charges: {type: gauss,
                           rc: 0.32,
                           lmax: 2}
    cutoffs: {filter: 1.87,
              core: 2.55}
    valence states:
      #              energy  rcut
      - 4s(2.00)    -5.469   1.005
      - 4p(0.00)    -1.277   1.058
      - 3d(7.00)    -8.205   1.005
      -  s          21.742   1.005
      -  p          25.934   1.058
      -  d          19.007   1.005
  
    # Using partial waves for Co as LCAO basis

  Ni:
    name: Nickel
    id: 0d9f38a9d6e76a2886f07bb4381f212b
    Z: 28.0
    valence: 16
    core: 12
    charge: 0.0
    file: /home/c.zeng/usr/data/gpaw-setups-0.9.20000/Ni.PBE.gz
    compensation charges: {type: gauss,
                           rc: 0.36,
                           lmax: 2}
    cutoffs: {filter: 2.14,
              core: 1.98}
    valence states:
      #              energy  rcut
      - 4s(2.00)    -5.642   1.164
      - 3p(6.00)   -71.394   1.207
      - 4p(0.00)    -1.226   1.207
      - 3d(8.00)    -8.875   1.138
      -  s          21.570   1.164
      -  d          18.337   1.138
  
    # Using partial waves for Ni as LCAO basis

  Al:
    name: Aluminium
    id: 0292cae29f5d6237e50f6abdd43a7bdd
    Z: 13.0
    valence: 3
    core: 10
    charge: 0.0
    file: /home/c.zeng/usr/data/gpaw-setups-0.9.20000/Al.PBE.gz
    compensation charges: {type: gauss,
                           rc: 0.34,
                           lmax: 2}
    cutoffs: {filter: 1.91,
              core: 2.36}
    valence states:
      #              energy  rcut
      - 3s(2.00)    -7.753   1.085
      - 3p(1.00)    -2.712   1.085
      -  s          19.459   1.085
      -  p          24.499   1.085
      -  d           0.000   1.085
  
    # Using partial waves for Al as LCAO basis

  Cr:
    name: Chromium
    id: 33f258bda2ca9f93018e70263a35547b
    Z: 24.0
    valence: 6
    core: 18
    charge: 0.0
    file: /home/c.zeng/usr/data/gpaw-setups-0.9.20000/Cr.PBE.gz
    compensation charges: {type: gauss,
                           rc: 0.35,
                           lmax: 2}
    cutoffs: {filter: 2.14,
              core: 3.04}
    valence states:
      #              energy  rcut
      - 4s(1.00)    -4.007   1.164
      - 4p(0.00)    -0.989   1.217
      - 3d(5.00)    -2.913   1.111
      -  s          23.205   1.164
      -  p          26.223   1.217
      -  d          24.299   1.111
  
    # Using partial waves for Cr as LCAO basis

  Fe:
    name: Iron
    id: 37abbd8d6c3c35915a9b583b742da910
    Z: 26.0
    valence: 8
    core: 18
    charge: 0.0
    file: /home/c.zeng/usr/data/gpaw-setups-0.9.20000/Fe.PBE.gz
    compensation charges: {type: gauss,
                           rc: 0.33,
                           lmax: 2}
    cutoffs: {filter: 2.06,
              core: 2.67}
    valence states:
      #              energy  rcut
      - 4s(2.00)    -5.291   1.164
      - 4p(0.00)    -1.326   1.058
      - 3d(6.00)    -7.505   1.058
      -  s          21.920   1.164
      -  p          25.885   1.058
      -  d          19.706   1.058
  
    # Using partial waves for Fe as LCAO basis

Reference energy: -3548577.034362  # eV

Spin-polarized calculation.
Magnetic moment: 136.400000

Convergence criteria:
 Maximum [total energy] change in last 3 cyles: 0.0001 eV / electron
 Maximum integral of absolute [dens]ity change: 0.0001 electrons / valence electron
 Maximum integral of absolute [eigenst]ate change: 4e-08 eV^2 / valence electron
 Maximum number of scf [iter]ations: 666
 (Square brackets indicate name in SCF output, whereas a 'c' in
 the SCF output indicates the quantity has converged.)

Symmetries present (total): 1

  ( 1  0  0)
  ( 0  1  0)
  ( 0  0  1)

8 k-points: 2 x 2 x 2 Monkhorst-Pack grid
4 k-points in the irreducible part of the Brillouin zone
       k-points in crystal coordinates                weights
   0:     0.25000000   -0.25000000   -0.25000000          2/8
   1:     0.25000000   -0.25000000    0.25000000          2/8
   2:     0.25000000    0.25000000   -0.25000000          2/8
   3:     0.25000000    0.25000000    0.25000000          2/8

Wave functions: Plane wave expansion
  Cutoff energy: 350.000 eV
  Number of coefficients (min, max): 20795, 20795
  Pulay-stress correction: 0.000000 eV/Ang^3 (de/decut=0.000000)
  Using FFTW library
  ScaLapack parameters: grid=1x1, blocksize=None
  Wavefunction extrapolation:
    Improved wavefunction reuse through dual PAW basis 

Occupation numbers: Fermi-Dirac:
  width: 0.1000  # eV
 

Eigensolver
   Davidson(niter=2) 

Densities:
  Coarse grid: 49*49*49 grid
  Fine grid: 98*98*98 grid
  Total Charge: 0.000000 

Density mixing:
  Method: difference
  Backend: pulay
  Linear mixing parameter: 0.05
  old densities: 5
  Damping of long wavelength oscillations: 50 

Hamiltonian:
  XC and Coulomb potentials evaluated on a 98*98*98 grid
  Using the PBE Exchange-Correlation functional
  External potential:
    NoExternalPotential
 

XC parameters: PBE with 2 nearest neighbor stencil

Memory estimate:
  Process memory now: 180.71 MiB
  Calculator: 727.15 MiB
    Density: 5.66 MiB
      Arrays: 2.02 MiB
      Localized functions: 2.77 MiB
      Mixer: 0.87 MiB
    Hamiltonian: 1.58 MiB
      Arrays: 1.50 MiB
      XC: 0.00 MiB
      Poisson: 0.00 MiB
      vbar: 0.08 MiB
    Wavefunctions: 719.91 MiB
      Arrays psit_nG: 427.73 MiB
      Eigensolver: 284.79 MiB
      Projections: 2.43 MiB
      Projectors: 0.38 MiB
      PW-descriptor: 4.58 MiB

Total number of cores used: 64
Parallelization over k-points: 4
Domain decomposition: 4 x 2 x 2

Number of atoms: 108
Number of atomic orbitals: 994
Number of bands in calculation: 674
Number of valence electrons: 980
Bands to converge: occupied

... initialized

Initializing position-dependent things.

Density initialized from atomic densities
Creating initial wave functions:
  674 bands from LCAO basis set

        .--------------------------.  
       /|  Cr       Fe             |  
      / |      Fe       Fe    Al Fe|  
     /  |         Co               |  
    /  NiAl     Ni       Ni        |  
   /    | NiCr     Fe       FeCo   |  
  /  CoCr  Co Fe    Co Ni    Fe    |  
 *      NiCr   CoAl     CoCr  Al Co|  
 |Co    |FeFe   CoCoCr   CrCr     Ni  
 | Cr Co| CrCoFe   CoFe     Fe     |  
 |      |  NiNi        Co          |  
 |   FeFe       Cr  Cr   Ni  Ni    |  
 Al     FeFe   CoCoNi   CrCr     Ni|  
 |Ni    |NiNi   NiCrCo   CrFe     Al  
 | Cr Co.-NiNiCo---CoCr-----Fe-----.  
 |     Ni     CrNi     CrNi  CrFe /   
 Ni   / AlCo     AlCr     Cr     /    
 |   /                     Cr   /     
 |  /      Fe       Fe       Ni/      
 | /  Al      Fe     CoFe     /       
 |/             Fe       Al  /        
 Co----------------Cr-------*         

Positions:
   0 Co    11.178000    0.000011   11.178000    ( 0.0000,  0.0000,  2.1000)
   1 Ni    11.177966    1.862993    1.863004    ( 0.0000,  0.0000,  1.5000)
   2 Al     1.863060    0.000070    1.863037    ( 0.0000,  0.0000,  0.0000)
   3 Cr     1.863015    1.862993   11.177955    ( 0.0000,  0.0000,  0.0000)
   4 Cr     3.726075    0.000021   11.177978    ( 0.0000,  0.0000,  0.0000)
   5 Fe     3.726041    1.862970    1.863004    ( 0.0000,  0.0000,  2.0000)
   6 Fe     5.588989    0.000032    1.862981    ( 0.0000,  0.0000,  2.0000)
   7 Fe     5.589000    1.862959    0.000020    ( 0.0000,  0.0000,  2.0000)
   8 Cr     7.451925    0.000007    0.000048    ( 0.0000,  0.0000,  0.0000)
   9 Fe     7.451981    1.862981    1.863004    ( 0.0000,  0.0000,  2.0000)
  10 Fe     9.314996    0.000012    1.863026    ( 0.0000,  0.0000,  2.0000)
  11 Al     9.314996    1.863037    0.000107    ( 0.0000,  0.0000,  0.0000)
  12 Co    11.177989    3.726019   11.177989    ( 0.0000,  0.0000,  2.1000)
  13 Fe    11.177966    5.589045    1.863015    ( 0.0000,  0.0000,  2.0000)
  14 Al     1.862970    3.725952    1.863093    ( 0.0000,  0.0000,  0.0000)
  15 Al     1.862981    5.589089   11.177922    ( 0.0000,  0.0000,  0.0000)
  16 Cr     3.726030    3.725963   11.177966    ( 0.0000,  0.0000,  0.0000)
  17 Cr     3.726007    5.589067    1.863004    ( 0.0000,  0.0000,  0.0000)
  18 Al     5.589011    3.725907    1.862981    ( 0.0000,  0.0000,  0.0000)
  19 Co     5.589000    5.589067   11.177978    ( 0.0000,  0.0000,  2.1000)
  20 Co     7.451993    3.725996    0.000004    ( 0.0000,  0.0000,  2.1000)
  21 Cr     7.452048    5.589045    1.862993    ( 0.0000,  0.0000,  0.0000)
  22 Cr     9.315007    3.726019    1.863026    ( 0.0000,  0.0000,  0.0000)
  23 Cr     9.315019    5.589056    0.000021    ( 0.0000,  0.0000,  0.0000)
  24 Fe    11.177978    7.451981   -0.000000    ( 0.0000,  0.0000,  2.0000)
  25 Al    11.177899    9.314929    1.862993    ( 0.0000,  0.0000,  0.0000)
  26 Ni     1.863004    7.451993    1.863004    ( 0.0000,  0.0000,  1.5000)
  27 Cr     1.863015    9.314952   11.177955    ( 0.0000,  0.0000,  0.0000)
  28 Fe     3.726041    7.452015   11.177989    ( 0.0000,  0.0000,  2.0000)
  29 Ni     3.726041    9.314985    1.863004    ( 0.0000,  0.0000,  1.5000)
  30 Co     5.589000    7.452015    1.862959    ( 0.0000,  0.0000,  2.1000)
  31 Fe     5.588989    9.314974   11.177989    ( 0.0000,  0.0000,  2.0000)
  32 Fe     7.451993    7.452004   11.177978    ( 0.0000,  0.0000,  2.0000)
  33 Cr     7.451993    9.314996    1.862970    ( 0.0000,  0.0000,  0.0000)
  34 Fe     9.315007    7.451981    1.863004    ( 0.0000,  0.0000,  2.0000)
  35 Cr     9.314985    9.314929    0.000004    ( 0.0000,  0.0000,  0.0000)
  36 Ni    11.178000    0.000017    3.725996    ( 0.0000,  0.0000,  1.5000)
  37 Ni     0.000038    1.863037    5.589000    ( 0.0000,  0.0000,  1.5000)
  38 Co     1.863026    0.000016    5.589000    ( 0.0000,  0.0000,  2.1000)
  39 Ni     1.863015    1.862993    3.726041    ( 0.0000,  0.0000,  1.5000)
  40 Co     3.726019    0.000006    3.726007    ( 0.0000,  0.0000,  2.1000)
  41 Ni     3.725974    1.862993    5.589011    ( 0.0000,  0.0000,  1.5000)
  42 Co     5.588978    0.000002    5.589011    ( 0.0000,  0.0000,  2.1000)
  43 Ni     5.588989    1.862970    3.725974    ( 0.0000,  0.0000,  1.5000)
  44 Cr     7.451981    0.000045    3.725952    ( 0.0000,  0.0000,  0.0000)
  45 Co     7.451981    1.863026    5.589000    ( 0.0000,  0.0000,  2.1000)
  46 Al     9.314952   11.177989    5.588922    ( 0.0000,  0.0000,  0.0000)
  47 Ni     9.314985    1.862993    3.725974    ( 0.0000,  0.0000,  1.5000)
  48 Cr    11.178000    3.726041    3.726019    ( 0.0000,  0.0000,  0.0000)
  49 Fe     0.000005    5.589000    5.588989    ( 0.0000,  0.0000,  2.0000)
  50 Fe     1.863004    3.726007    5.589011    ( 0.0000,  0.0000,  2.0000)
  51 Ni     1.862970    5.589000    3.726041    ( 0.0000,  0.0000,  1.5000)
  52 Ni     3.725985    3.725974    3.726041    ( 0.0000,  0.0000,  1.5000)
  53 Ni     3.725985    5.588989    5.589022    ( 0.0000,  0.0000,  1.5000)
  54 Co     5.589000    3.726007    5.589011    ( 0.0000,  0.0000,  2.1000)
  55 Cr     5.588989    5.589034    3.726041    ( 0.0000,  0.0000,  0.0000)
  56 Cr     7.452026    3.725985    3.726041    ( 0.0000,  0.0000,  0.0000)
  57 Co     7.452015    5.589000    5.589011    ( 0.0000,  0.0000,  2.1000)
  58 Cr     9.314985    3.726019    5.589000    ( 0.0000,  0.0000,  0.0000)
  59 Fe     9.315030    5.589034    3.726019    ( 0.0000,  0.0000,  2.0000)
  60 Ni    11.177966    7.451948    3.725996    ( 0.0000,  0.0000,  1.5000)
  61 Ni    11.177989    9.314952    5.589000    ( 0.0000,  0.0000,  1.5000)
  62 Cr     1.862993    7.451981    5.589011    ( 0.0000,  0.0000,  0.0000)
  63 Ni     1.863026    9.314996    3.726041    ( 0.0000,  0.0000,  1.5000)
  64 Co     3.726007    7.452015    3.726007    ( 0.0000,  0.0000,  2.1000)
  65 Co     3.726007    9.315007    5.589011    ( 0.0000,  0.0000,  2.1000)
  66 Co     5.589000    7.451993    5.589011    ( 0.0000,  0.0000,  2.1000)
  67 Cr     5.588955    9.315007    3.725985    ( 0.0000,  0.0000,  0.0000)
  68 Cr     7.452037    7.451970    3.725996    ( 0.0000,  0.0000,  0.0000)
  69 Cr     7.452004    9.314974    5.589045    ( 0.0000,  0.0000,  0.0000)
  70 Fe     9.315007    7.452004    5.588989    ( 0.0000,  0.0000,  2.0000)
  71 Ni     9.315019    9.314963    3.725996    ( 0.0000,  0.0000,  1.5000)
  72 Al     0.000135   11.178000    7.452015    ( 0.0000,  0.0000,  0.0000)
  73 Co     0.000042    1.863015    9.314996    ( 0.0000,  0.0000,  2.1000)
  74 Co     1.863026    0.000023    9.314974    ( 0.0000,  0.0000,  2.1000)
  75 Fe     1.863026    1.863004    7.451993    ( 0.0000,  0.0000,  2.0000)
  76 Fe     3.725985    0.000004    7.452004    ( 0.0000,  0.0000,  2.0000)
  77 Fe     3.725996    1.862981    9.314985    ( 0.0000,  0.0000,  2.0000)
  78 Fe     5.588978   11.178000    9.315007    ( 0.0000,  0.0000,  2.0000)
  79 Cr     5.588989    1.862970    7.451993    ( 0.0000,  0.0000,  0.0000)
  80 Ni     7.451959   11.178000    7.452004    ( 0.0000,  0.0000,  1.5000)
  81 Cr     7.451959    1.863004    9.314985    ( 0.0000,  0.0000,  0.0000)
  82 Al     9.314974   11.177922    9.314996    ( 0.0000,  0.0000,  0.0000)
  83 Ni     9.314974    1.863026    7.451981    ( 0.0000,  0.0000,  1.5000)
  84 Cr     0.000045    3.726007    7.451993    ( 0.0000,  0.0000,  0.0000)
  85 Co     0.000008    5.589034    9.314985    ( 0.0000,  0.0000,  2.1000)
  86 Ni     1.863015    3.725985    9.314940    ( 0.0000,  0.0000,  1.5000)
  87 Fe     1.863004    5.588989    7.451993    ( 0.0000,  0.0000,  2.0000)
  88 Co     3.725963    3.726007    7.451981    ( 0.0000,  0.0000,  2.1000)
  89 Fe     3.725996    5.589022    9.314974    ( 0.0000,  0.0000,  2.0000)
  90 Al     5.588989    3.725996    9.314985    ( 0.0000,  0.0000,  0.0000)
  91 Co     5.588989    5.589022    7.451993    ( 0.0000,  0.0000,  2.1000)
  92 Fe     7.451993    3.726007    7.451970    ( 0.0000,  0.0000,  2.0000)
  93 Ni     7.451993    5.589045    9.314985    ( 0.0000,  0.0000,  1.5000)
  94 Cr     9.315007    3.726019    9.314974    ( 0.0000,  0.0000,  0.0000)
  95 Cr     9.314996    5.589045    7.451970    ( 0.0000,  0.0000,  0.0000)
  96 Co    11.177989    7.452004    7.452004    ( 0.0000,  0.0000,  2.1000)
  97 Ni    11.178000    9.314952    9.314996    ( 0.0000,  0.0000,  1.5000)
  98 Ni     1.863004    7.451993    9.314985    ( 0.0000,  0.0000,  1.5000)
  99 Co     1.863026    9.314996    7.451993    ( 0.0000,  0.0000,  2.1000)
 100 Co     3.726007    7.451993    7.452015    ( 0.0000,  0.0000,  2.1000)
 101 Ni     3.726041    9.314996    9.314985    ( 0.0000,  0.0000,  1.5000)
 102 Fe     5.589000    7.452004    9.315030    ( 0.0000,  0.0000,  2.0000)
 103 Co     5.588989    9.315007    7.452015    ( 0.0000,  0.0000,  2.1000)
 104 Co     7.452004    7.451993    7.452015    ( 0.0000,  0.0000,  2.1000)
 105 Ni     7.451970    9.314952    9.314985    ( 0.0000,  0.0000,  1.5000)
 106 Fe     9.314996    7.452026    9.315007    ( 0.0000,  0.0000,  2.0000)
 107 Fe     9.314996    9.314952    7.451993    ( 0.0000,  0.0000,  2.0000)

Unit cell:
           periodic     x           y           z      points  spacing
  1. axis:    yes   11.178000    0.000000    0.000000    49     0.2281
  2. axis:    yes    0.000000   11.178000    0.000000    49     0.2281
  3. axis:    yes    0.000000    0.000000   11.178000    49     0.2281

  Lengths:  11.178000  11.178000  11.178000
  Angles:   90.000000  90.000000  90.000000

Effective grid spacing dv^(1/3) = 0.2281

     iter     time        total  log10-change:  magmom
                         energy  eigst   dens
iter:   1 13:15:37 -1050.832325                  +136.6834
iter:   2 13:16:42  -912.915148  -0.13  -1.17    +75.2787
iter:   3 13:17:42  -920.992975  -0.62  -1.16    +71.2889
iter:   4 13:18:45  -869.584818  -1.10  -1.22    +65.6304
iter:   5 13:19:48  -859.070936  -1.66  -1.29    +66.0894
iter:   6 13:20:51  -861.216078  -1.36  -1.33    +70.1806
iter:   7 13:21:53  -847.607579  -1.33  -1.38    +71.8548
iter:   8 13:22:54  -845.360008  -1.55  -1.51    +73.9865
iter:   9 13:24:00  -842.697328  -1.69  -1.62    +74.8530
iter:  10 13:25:05  -839.760328  -2.21  -1.70    +76.8029
iter:  11 13:26:07  -840.423976  -2.46  -1.82    +78.8339
iter:  12 13:27:09  -841.118841  -2.63  -1.86    +79.3857
iter:  13 13:28:13  -841.493661  -2.51  -1.86    +80.4657
iter:  14 13:29:16  -841.610737  -2.39  -1.91    +81.0058
iter:  15 13:30:20  -842.462475  -2.55  -2.05    +81.1614
iter:  16 13:31:23  -842.092101  -2.77  -2.01    +80.7626
iter:  17 13:32:24  -842.064765  -2.95  -2.09    +81.0781
iter:  18 13:33:27  -842.424861  -3.11  -2.18    +80.7927
iter:  19 13:34:31  -842.563727  -3.17  -2.18    +80.0928
iter:  20 13:35:37  -842.734309  -3.13  -2.24    +79.6061
iter:  21 13:36:40  -842.850251  -3.02  -2.28    +79.1085
iter:  22 13:37:42  -842.766975  -3.19  -2.33    +78.8289
iter:  23 13:38:45  -842.922555  -3.35  -2.48    +78.5388
iter:  24 13:39:47  -842.913887  -3.50  -2.47    +78.1317
iter:  25 13:40:49  -843.041975  -3.67  -2.58    +77.9234
iter:  26 13:41:50  -843.146740  -3.65  -2.58    +77.6234
iter:  27 13:42:52  -843.254003  -3.71  -2.59    +77.3548
iter:  28 13:43:55  -843.375056  -3.81  -2.59    +77.3248
iter:  29 13:44:57  -843.499831  -3.94  -2.55    +77.3422
iter:  30 13:46:00  -843.452202  -4.02  -2.49    +77.2555
iter:  31 13:47:04  -843.608543  -3.74  -2.52    +77.5017
iter:  32 13:48:06  -843.524091  -4.02  -2.47    +77.5132
iter:  33 13:49:09  -843.592931c -3.61  -2.52    +77.6230
iter:  34 13:50:13  -843.537784c -3.93  -2.54    +77.6140
iter:  35 13:51:16  -843.615393c -4.04  -2.62    +77.3138
iter:  36 13:52:20  -843.632908c -3.99  -2.61    +77.4270
iter:  37 13:53:24  -843.662713c -3.73  -2.66    +77.5159
iter:  38 13:54:26  -843.706026c -3.90  -2.70    +77.5587
iter:  39 13:55:30  -843.688052c -4.12  -2.71    +77.6586
iter:  40 13:56:33  -843.732001c -4.29  -2.84    +77.8813
iter:  41 13:57:37  -843.755129c -4.56  -2.84    +77.9534
iter:  42 13:58:40  -843.794760c -4.42  -2.87    +78.1659
iter:  43 13:59:38  -843.819992c -4.53  -2.88    +78.3034
iter:  44 14:00:31  -843.863032c -4.34  -2.91    +78.4378
iter:  45 14:01:27  -843.895504c -4.41  -2.96    +78.6117
iter:  46 14:02:30  -843.915290c -4.37  -2.99    +78.7884
iter:  47 14:03:29  -843.949286c -4.44  -3.04    +78.8696
iter:  48 14:04:32  -843.972877c -4.53  -3.08    +79.0484
iter:  49 14:05:33  -844.014161c -4.40  -3.12    +79.2663
iter:  50 14:06:35  -844.069821c -4.23  -3.12    +79.5741
iter:  51 14:07:37  -844.199160  -3.55  -3.05    +80.3755
iter:  52 14:08:38  -844.269409  -3.38  -2.93    +81.3041
iter:  53 14:09:40  -844.281247c -4.06  -2.84    +81.3317
iter:  54 14:10:41  -844.317022c -4.14  -2.82    +81.3163
iter:  55 14:11:42  -844.334673c -4.60  -2.74    +81.2959
iter:  56 14:12:44  -844.330730c -4.25  -2.68    +81.3483
iter:  57 14:13:45  -844.362299c -3.96  -2.63    +81.2408
iter:  58 14:14:47  -844.303879c -3.77  -2.63    +80.9263
iter:  59 14:15:49  -844.384560c -3.39  -2.67    +80.8325
iter:  60 14:16:52  -844.219961  -3.93  -2.56    +80.5844
iter:  61 14:17:55  -844.210074  -4.30  -2.87    +80.3860
iter:  62 14:18:56  -844.237725c -4.16  -2.93    +80.2372
iter:  63 14:19:58  -844.223147c -4.10  -2.90    +80.2495
iter:  64 14:21:00  -844.215786c -4.40  -2.91    +80.1888
iter:  65 14:22:03  -844.218350c -4.57  -3.03    +80.1339
iter:  66 14:23:05  -844.207337c -4.87  -3.04    +80.1166
iter:  67 14:24:08  -844.214300c -4.92  -3.15    +80.0666
iter:  68 14:25:10  -844.208511c -5.04  -3.12    +80.0759
iter:  69 14:26:18  -844.214784c -5.09  -3.20    +80.0077
iter:  70 14:27:23  -844.212096c -4.98  -3.20    +79.9987
iter:  71 14:28:26  -844.212870c -5.24  -3.18    +80.0031
iter:  72 14:29:28  -844.214577c -5.24  -3.28    +79.9678
iter:  73 14:30:29  -844.211755c -5.35  -3.28    +79.9388
iter:  74 14:31:32  -844.213197c -5.40  -3.36    +79.8823
iter:  75 14:32:34  -844.213005c -5.44  -3.39    +79.8536
iter:  76 14:33:36  -844.218532c -5.29  -3.48    +79.8149
iter:  77 14:34:40  -844.214391c -5.46  -3.40    +79.7874
iter:  78 14:35:42  -844.216231c -5.58  -3.48    +79.7635
iter:  79 14:36:44  -844.215894c -5.64  -3.59    +79.7310
iter:  80 14:37:47  -844.216918c -6.02  -3.64    +79.7090
iter:  81 14:38:50  -844.217990c -5.83  -3.67    +79.6611
iter:  82 14:39:51  -844.219265c -5.79  -3.69    +79.6423
iter:  83 14:40:56  -844.218679c -5.80  -3.71    +79.5989
iter:  84 14:42:01  -844.219461c -6.18  -3.76    +79.5793
iter:  85 14:43:03  -844.221001c -5.89  -3.89    +79.5496
iter:  86 14:44:07  -844.220127c -6.44  -3.82    +79.5450
iter:  87 14:45:10  -844.220724c -6.10  -3.89    +79.5041
iter:  88 14:46:11  -844.221471c -6.49  -3.91    +79.4931
iter:  89 14:47:13  -844.223008c -5.90  -3.95    +79.4542
iter:  90 14:48:18  -844.223086c -6.53  -3.93    +79.4456
iter:  91 14:49:21  -844.223755c -5.97  -3.95    +79.4060
iter:  92 14:50:22  -844.223864c -6.35  -3.94    +79.4003
iter:  93 14:51:26  -844.225048c -6.30  -3.94    +79.3755
iter:  94 14:52:29  -844.225331c -6.58  -3.91    +79.3650
iter:  95 14:53:33  -844.225876c -6.42  -3.85    +79.3462
iter:  96 14:54:35  -844.227000c -6.37  -3.87    +79.3264
iter:  97 14:55:39  -844.227373c -6.60  -3.81    +79.3238
iter:  98 14:56:40  -844.227948c -6.39  -3.77    +79.3049
iter:  99 14:57:41  -844.226807c -5.66  -3.74    +79.3269
iter: 100 14:58:42  -844.226962c -5.73  -3.60    +79.2664
iter: 101 14:59:44  -844.226978c -6.14  -3.79    +79.2214
iter: 102 15:00:49  -844.228036c -5.67  -3.92    +79.1971
iter: 103 15:01:49  -844.229582c -5.39  -3.72    +79.1929
iter: 104 15:02:54  -844.226253c -5.87  -3.66    +79.2161
iter: 105 15:03:57  -844.226524c -6.15  -3.92    +79.2119
iter: 106 15:04:58  -844.226444c -6.61  -3.86    +79.1953
iter: 107 15:06:01  -844.226443c -6.89  -4.03c   +79.1930
iter: 108 15:07:03  -844.226814c -6.88  -4.02c   +79.1933
iter: 109 15:08:03  -844.226625c -7.11  -4.07c   +79.1966
iter: 110 15:09:07  -844.226932c -6.99  -4.11c   +79.1994
iter: 111 15:10:11  -844.226841c -7.18  -4.11c   +79.2014
iter: 112 15:11:11  -844.226805c -7.19  -4.22c   +79.2051
iter: 113 15:12:12  -844.226608c -7.03  -4.23c   +79.2062
iter: 114 15:13:13  -844.226916c -7.24  -4.21c   +79.2050
iter: 115 15:14:16  -844.226731c -7.57c -4.32c   +79.2084

Converged after 115 iterations.

Dipole moment: (0.072808, 0.210268, -0.534333) |e|*Ang

Total magnetic moment: (0.000000, 0.000000, 79.208440)
Local magnetic moments:
   0 Co ( 0.000000,  0.000000,  0.773244)
   1 Ni ( 0.000000,  0.000000,  0.197196)
   2 Al ( 0.000000,  0.000000, -0.006185)
   3 Cr ( 0.000000,  0.000000,  2.047880)
   4 Cr ( 0.000000,  0.000000, -2.240270)
   5 Fe ( 0.000000,  0.000000,  2.454861)
   6 Fe ( 0.000000,  0.000000,  2.433475)
   7 Fe ( 0.000000,  0.000000,  2.192290)
   8 Cr ( 0.000000,  0.000000, -2.032779)
   9 Fe ( 0.000000,  0.000000,  2.222808)
  10 Fe ( 0.000000,  0.000000,  2.375360)
  11 Al ( 0.000000,  0.000000, -0.031803)
  12 Co ( 0.000000,  0.000000, -0.802290)
  13 Fe ( 0.000000,  0.000000,  2.419143)
  14 Al ( 0.000000,  0.000000, -0.015693)
  15 Al ( 0.000000,  0.000000, -0.035421)
  16 Cr ( 0.000000,  0.000000, -2.232525)
  17 Cr ( 0.000000,  0.000000,  1.958031)
  18 Al ( 0.000000,  0.000000, -0.021353)
  19 Co ( 0.000000,  0.000000,  1.370621)
  20 Co ( 0.000000,  0.000000,  1.199314)
  21 Cr ( 0.000000,  0.000000, -2.120666)
  22 Cr ( 0.000000,  0.000000,  1.918057)
  23 Cr ( 0.000000,  0.000000, -2.366847)
  24 Fe ( 0.000000,  0.000000,  2.405099)
  25 Al ( 0.000000,  0.000000, -0.019244)
  26 Ni ( 0.000000,  0.000000,  0.322907)
  27 Cr ( 0.000000,  0.000000, -2.483399)
  28 Fe ( 0.000000,  0.000000,  2.607408)
  29 Ni ( 0.000000,  0.000000,  0.220035)
  30 Co ( 0.000000,  0.000000,  1.319593)
  31 Fe ( 0.000000,  0.000000,  2.510915)
  32 Fe ( 0.000000,  0.000000,  2.430254)
  33 Cr ( 0.000000,  0.000000, -2.063083)
  34 Fe ( 0.000000,  0.000000,  2.300460)
  35 Cr ( 0.000000,  0.000000, -2.174571)
  36 Ni ( 0.000000,  0.000000,  0.415574)
  37 Ni ( 0.000000,  0.000000,  0.232071)
  38 Co ( 0.000000,  0.000000,  1.747699)
  39 Ni ( 0.000000,  0.000000,  0.422495)
  40 Co ( 0.000000,  0.000000,  1.701923)
  41 Ni ( 0.000000,  0.000000,  0.537261)
  42 Co ( 0.000000,  0.000000,  1.562699)
  43 Ni ( 0.000000,  0.000000,  0.338169)
  44 Cr ( 0.000000,  0.000000,  2.013030)
  45 Co ( 0.000000,  0.000000,  1.317073)
  46 Al ( 0.000000,  0.000000, -0.015042)
  47 Ni ( 0.000000,  0.000000,  0.220787)
  48 Cr ( 0.000000,  0.000000, -2.416815)
  49 Fe ( 0.000000,  0.000000,  2.547007)
  50 Fe ( 0.000000,  0.000000,  2.792144)
  51 Ni ( 0.000000,  0.000000,  0.401484)
  52 Ni ( 0.000000,  0.000000,  0.433184)
  53 Ni ( 0.000000,  0.000000,  0.528837)
  54 Co ( 0.000000,  0.000000,  1.630965)
  55 Cr ( 0.000000,  0.000000,  1.465419)
  56 Cr ( 0.000000,  0.000000, -2.305522)
  57 Co ( 0.000000,  0.000000,  1.311587)
  58 Cr ( 0.000000,  0.000000,  2.069900)
  59 Fe ( 0.000000,  0.000000,  2.275143)
  60 Ni ( 0.000000,  0.000000,  0.446456)
  61 Ni ( 0.000000,  0.000000,  0.406199)
  62 Cr ( 0.000000,  0.000000, -2.647792)
  63 Ni ( 0.000000,  0.000000,  0.369099)
  64 Co ( 0.000000,  0.000000,  1.592536)
  65 Co ( 0.000000,  0.000000,  1.669875)
  66 Co ( 0.000000,  0.000000,  1.476373)
  67 Cr ( 0.000000,  0.000000, -2.301783)
  68 Cr ( 0.000000,  0.000000,  1.747791)
  69 Cr ( 0.000000,  0.000000, -2.433260)
  70 Fe ( 0.000000,  0.000000,  2.604692)
  71 Ni ( 0.000000,  0.000000,  0.255903)
  72 Al ( 0.000000,  0.000000, -0.041166)
  73 Co ( 0.000000,  0.000000,  0.945437)
  74 Co ( 0.000000,  0.000000,  1.348261)
  75 Fe ( 0.000000,  0.000000,  2.691364)
  76 Fe ( 0.000000,  0.000000,  2.778450)
  77 Fe ( 0.000000,  0.000000,  2.400872)
  78 Fe ( 0.000000,  0.000000,  2.557050)
  79 Cr ( 0.000000,  0.000000, -2.485653)
  80 Ni ( 0.000000,  0.000000,  0.392254)
  81 Cr ( 0.000000,  0.000000,  1.986196)
  82 Al ( 0.000000,  0.000000, -0.005634)
  83 Ni ( 0.000000,  0.000000,  0.157480)
  84 Cr ( 0.000000,  0.000000, -2.395985)
  85 Co ( 0.000000,  0.000000,  1.167989)
  86 Ni ( 0.000000,  0.000000,  0.336240)
  87 Fe ( 0.000000,  0.000000,  2.725066)
  88 Co ( 0.000000,  0.000000,  1.582798)
  89 Fe ( 0.000000,  0.000000,  2.546127)
  90 Al ( 0.000000,  0.000000, -0.038444)
  91 Co ( 0.000000,  0.000000,  1.768539)
  92 Fe ( 0.000000,  0.000000,  2.390855)
  93 Ni ( 0.000000,  0.000000,  0.409350)
  94 Cr ( 0.000000,  0.000000,  1.864969)
  95 Cr ( 0.000000,  0.000000, -2.390789)
  96 Co ( 0.000000,  0.000000,  1.542347)
  97 Ni ( 0.000000,  0.000000,  0.300590)
  98 Ni ( 0.000000,  0.000000,  0.483545)
  99 Co ( 0.000000,  0.000000,  1.751628)
 100 Co ( 0.000000,  0.000000,  1.778821)
 101 Ni ( 0.000000,  0.000000,  0.480928)
 102 Fe ( 0.000000,  0.000000,  2.767459)
 103 Co ( 0.000000,  0.000000,  1.724821)
 104 Co ( 0.000000,  0.000000,  1.616020)
 105 Ni ( 0.000000,  0.000000,  0.331287)
 106 Fe ( 0.000000,  0.000000,  2.569686)
 107 Fe ( 0.000000,  0.000000,  2.487238)

Energy contributions relative to reference atoms: (reference = -3548577.034362)

Kinetic:       -141.355531
Potential:      +45.210055
External:        +0.000000
XC:            -780.014478
Entropy (-ST):   -4.439238
Local:          +34.152842
--------------------------
Free energy:   -846.446350
Extrapolated:  -844.226731

Spin contamination: 45.193698 electrons
Showing only first 2 kpts
                      Up                     Down
 Kpt  Band  Eigenvalues  Occupancy  Eigenvalues  Occupancy
  0   488      7.76719    0.99907      8.87007    0.01714
  0   489      7.77751    0.99897      8.90100    0.01264
  0   490      7.78470    0.99889      8.90201    0.01251
  0   491      7.80104    0.99870      8.90742    0.01186

  1   488      7.76372    0.99910      8.88329    0.01505
  1   489      7.78490    0.99889      8.89738    0.01310
  1   490      7.79975    0.99871      8.90500    0.01215
  1   491      7.80027    0.99871      8.91525    0.01098


Fermi level: 8.46519

No gap

Forces in eV/Ang:
  0 Co    0.01530   -0.39542   -0.08262
  1 Ni    0.01526   -0.01376    0.11278
  2 Al    0.02703    0.46365    0.86656
  3 Cr   -0.55513    0.07584   -0.72683
  4 Cr    0.69570    0.33649   -0.48400
  5 Fe    0.48078   -0.18373    0.41908
  6 Fe   -0.20762   -0.01665   -0.08898
  7 Fe   -0.22383    0.01686    0.08950
  8 Cr   -0.95983   -0.11000   -0.07843
  9 Fe   -0.06648   -0.14569   -0.03708
 10 Fe    0.08349    0.24593   -0.03098
 11 Al    0.80953    0.37085    0.43618
 12 Co   -0.13835   -0.09841   -0.23291
 13 Fe    0.08807    0.49125    0.41289
 14 Al   -0.19054   -0.56674    0.71693
 15 Al   -0.73507    0.46798   -0.76282
 16 Cr   -0.32189   -0.35908   -0.11565
 17 Cr    0.10687    0.29433    0.16995
 18 Al    0.05784   -0.50391    0.03511
 19 Co    0.09797    0.26134   -0.04331
 20 Co   -0.15608    0.04323   -0.05335
 21 Cr   -0.14305    0.77405    0.03262
 22 Cr   -0.00101    0.18297    0.16274
 23 Cr    0.46236   -0.01733   -0.46039
 24 Fe   -0.12518    0.12190   -0.39490
 25 Al   -0.26861   -0.41249    0.96757
 26 Ni    0.11777   -0.20609    0.04759
 27 Cr   -0.12467   -0.58604   -0.91389
 28 Fe    0.16335    0.43540   -0.03680
 29 Ni    0.09246   -0.12994    0.03566
 30 Co   -0.22692    0.12671   -0.12055
 31 Fe   -0.04617    0.00456    0.15772
 32 Fe   -0.13761   -0.04256    0.11906
 33 Cr    0.02520   -0.29438    0.27859
 34 Fe   -0.10042   -0.18534    0.08015
 35 Cr    0.31046   -0.64186   -0.31821
 36 Ni    0.05684    0.11218   -0.01094
 37 Ni    0.21277   -0.11223   -0.16804
 38 Co    0.41240   -0.12503   -0.23427
 39 Ni    0.02470   -0.06344    0.17855
 40 Co    0.24200    0.06889    0.57372
 41 Ni   -0.11367   -0.05070   -0.14451
 42 Co   -0.23016    0.04384    0.03378
 43 Ni   -0.04522   -0.08059    0.17202
 44 Cr   -0.44066   -0.32032    0.17096
 45 Co   -0.28800    0.21991    0.18927
 46 Al    0.07074    0.55765   -0.50190
 47 Ni    0.12676   -0.07197   -0.15881
 48 Cr   -0.64504   -0.06303    0.55307
 49 Fe    0.37421    0.49681   -0.09355
 50 Fe    0.28700   -0.10659   -0.29949
 51 Ni    0.14101    0.12229   -0.01140
 52 Ni    0.08422    0.03695    0.15841
 53 Ni    0.05638    0.04796    0.06583
 54 Co    0.13226    0.01382    0.13498
 55 Cr    0.15616    0.27730    0.26732
 56 Cr    0.29996   -0.49458    1.00521
 57 Co   -0.22955    0.20125    0.15903
 58 Cr   -0.00998   -0.54557    0.00312
 59 Fe   -0.07217    0.34591    0.11478
 60 Ni   -0.06009   -0.16817    0.05574
 61 Ni    0.01489    0.01331   -0.00651
 62 Cr   -0.04312    0.00963   -0.08237
 63 Ni    0.14710    0.05389    0.10467
 64 Co    0.17429    0.21741    0.12099
 65 Co    0.04264    0.08515   -0.00224
 66 Co   -0.11643   -0.03764    0.36821
 67 Cr   -0.78119   -0.20283   -0.18905
 68 Cr   -0.28876    0.46802   -0.04081
 69 Cr   -0.18926   -0.44391    0.27838
 70 Fe    0.23938   -0.09558    0.07452
 71 Ni    0.18387   -0.08684    0.00138
 72 Al    0.95542    0.07043    0.02977
 73 Co    0.26359   -0.06357    0.11651
 74 Co    0.07393   -0.01320    0.25674
 75 Fe    0.11451    0.16055    0.20270
 76 Fe   -0.10710   -0.32829   -0.29053
 77 Fe    0.01310    0.07037   -0.20340
 78 Fe   -0.11694   -0.57570   -0.12711
 79 Cr   -0.02894   -0.32925   -0.42182
 80 Ni   -0.20721   -0.06362   -0.07580
 81 Cr   -0.01124   -0.03889   -0.03175
 82 Al   -0.03979   -0.31317   -0.36227
 83 Ni   -0.10999   -0.00054    0.00996
 84 Cr    0.34712   -0.56746    0.05026
 85 Co   -0.05264    0.31710   -0.16459
 86 Ni   -0.09416   -0.16937    0.00958
 87 Fe   -0.03539    0.17266    0.18297
 88 Co   -0.00636    0.04742   -0.16572
 89 Fe    0.03097    0.00231   -0.30242
 90 Al    0.48597    0.67147    0.03529
 91 Co   -0.11925    0.19505   -0.45014
 92 Fe   -0.32544    0.27321   -0.76628
 93 Ni   -0.09727    0.09171    0.02163
 94 Cr    0.40033    0.53049   -0.20559
 95 Cr   -0.34390    0.44417    0.19523
 96 Co    0.03733    0.20507    0.19689
 97 Ni    0.06475   -0.03780   -0.02270
 98 Ni   -0.05436    0.04976   -0.13117
 99 Co    0.25693   -0.16029    0.04276
100 Co    0.11286    0.19603   -0.03010
101 Ni   -0.15406   -0.04541   -0.03178
102 Fe    0.31520    0.05119   -0.21813
103 Co    0.01090    0.06025   -0.16067
104 Co   -0.14790   -0.13584    0.04507
105 Ni   -0.06564    0.02001    0.04317
106 Fe   -0.07832   -0.16803   -0.17777
107 Fe   -0.11761   -0.73844   -0.09608

Timing:                              incl.     excl.
-----------------------------------------------------------
Forces:                             15.217    15.217   0.2% |
Hamiltonian:                         0.832     0.005   0.0% |
 Atomic:                             0.242     0.148   0.0% |
  XC Correction:                     0.094     0.094   0.0% |
 Calculate atomic Hamiltonians:      0.432     0.432   0.0% |
 Communicate:                        0.020     0.020   0.0% |
 Initialize Hamiltonian:             0.000     0.000   0.0% |
 Poisson:                            0.000     0.000   0.0% |
 XC 3D grid:                         0.134     0.134   0.0% |
LCAO initialization:                70.835     1.149   0.0% |
 LCAO eigensolver:                   6.848     0.008   0.0% |
  Calculate projections:             0.180     0.180   0.0% |
  DenseAtomicCorrection:             0.185     0.185   0.0% |
  Distribute overlap matrix:         0.523     0.523   0.0% |
  Orbital Layouts:                   3.415     3.415   0.0% |
  Potential matrix:                  1.814     1.814   0.0% |
  Sum over cells:                    0.724     0.724   0.0% |
 LCAO to grid:                      61.331    61.331   0.8% |
 Set positions (LCAO WFS):           1.507     0.672   0.0% |
  Basic WFS set positions:           0.003     0.003   0.0% |
  Basis functions set positions:     0.001     0.001   0.0% |
  P tci:                             0.292     0.292   0.0% |
  ST tci:                            0.182     0.182   0.0% |
  mktci:                             0.356     0.356   0.0% |
PWDescriptor:                        0.189     0.189   0.0% |
SCF-cycle:                        7189.322   121.617   1.7% ||
 Davidson:                        6842.464  2070.825  28.4% |----------|
  Apply H:                          66.134    63.961   0.9% |
   HMM T:                            2.172     2.172   0.0% |
  Subspace diag:                   621.149     0.051   0.0% |
   calc_h_matrix:                  242.239   156.443   2.1% ||
    Apply H:                        85.796    83.904   1.2% |
     HMM T:                          1.892     1.892   0.0% |
   diagonalize:                     95.481    95.481   1.3% ||
   rotate_psi:                     283.378   283.378   3.9% |-|
  calc. matrices:                 1302.954  1143.774  15.7% |-----|
   Apply H:                        159.180   154.923   2.1% ||
    HMM T:                           4.257     4.257   0.1% |
  diagonalize:                    2174.222  2174.222  29.9% |-----------|
  rotate_psi:                      607.180   607.180   8.3% |--|
 Density:                          109.546     0.004   0.0% |
  Atomic density matrices:           1.835     1.835   0.0% |
  Mix:                              69.054    69.054   0.9% |
  Multipole moments:                 0.041     0.041   0.0% |
  Pseudo density:                   38.612    38.607   0.5% |
   Symmetrize density:               0.006     0.006   0.0% |
 Hamiltonian:                      109.677     2.022   0.0% |
  Atomic:                           26.123    15.834   0.2% |
   XC Correction:                   10.290    10.290   0.1% |
  Calculate atomic Hamiltonians:    61.175    61.175   0.8% |
  Communicate:                       2.679     2.679   0.0% |
  Poisson:                           0.049     0.049   0.0% |
  XC 3D grid:                       17.628    17.628   0.2% |
 Orthonormalize:                     6.019     0.001   0.0% |
  calc_s_matrix:                     0.789     0.789   0.0% |
  inverse-cholesky:                  0.464     0.464   0.0% |
  projections:                       3.501     3.501   0.0% |
  rotate_psi_s:                      1.264     1.264   0.0% |
Set symmetry:                        0.001     0.001   0.0% |
Other:                               4.219     4.219   0.1% |
-----------------------------------------------------------
Total:                                      7280.615 100.0%

Date: Sat Apr  8 15:14:32 2023
