
  ___ ___ ___ _ _ _  
 |   |   |_  | | | | 
 | | | | | . | | | | 
 |__ |  _|___|_____|  22.8.0
 |___|_|             

User:   c.zeng@d0057
Date:   Mon Apr 17 04:44:39 2023
Arch:   x86_64
Pid:    201083
CWD:    /home/c.zeng/projects/hea-corrosion/hea-mlp/data-curation/surface-md/dft-jobs/23
Python: 3.8.1
gpaw:   /home/c.zeng/usr/installs/gpaw/source/gpaw-22.8.0/gpaw
_gpaw:  /home/c.zeng/usr/installs/gpaw/source/gpaw-22.8.0/
        _gpaw.cpython-38-x86_64-linux-gnu.so
ase:    /home/c.zeng/.local/lib/python3.8/site-packages/ase-3.22.1-py3.8.egg/ase (version 3.22.1)
numpy:  /home/c.zeng/.local/lib/python3.8/site-packages/numpy (version 1.24.2)
scipy:  /home/c.zeng/.local/lib/python3.8/site-packages/scipy (version 1.10.1)
libxc:  4.2.3
units:  Angstrom and eV
cores: 30
OpenMP: False
OMP_NUM_THREADS: 1

Input parameters:
  convergence: {energy: 0.0001}
  kpts: [2 2 1]
  maxiter: 666
  mode: {ecut: 350.0,
         name: pw}
  occupations: {fixmagmom: False,
                name: fermi-dirac,
                width: 0.1}
  poissonsolver: {dipolelayer: xy}
  spinpol: True
  symmetry: {point_group: False}
  xc: PBE

System changes: positions, numbers, cell, pbc, initial_charges, initial_magmoms 

Initialize ...

species:
  Ni:
    name: Nickel
    id: 0d9f38a9d6e76a2886f07bb4381f212b
    Z: 28.0
    valence: 16
    core: 12
    charge: 0.0
    file: /home/c.zeng/usr/data/gpaw-setups-0.9.20000/Ni.PBE.gz
    compensation charges: {type: gauss,
                           rc: 0.36,
                           lmax: 2}
    cutoffs: {filter: 2.14,
              core: 1.98}
    valence states:
      #              energy  rcut
      - 4s(2.00)    -5.642   1.164
      - 3p(6.00)   -71.394   1.207
      - 4p(0.00)    -1.226   1.207
      - 3d(8.00)    -8.875   1.138
      -  s          21.570   1.164
      -  d          18.337   1.138
  
    # Using partial waves for Ni as LCAO basis

  Fe:
    name: Iron
    id: 37abbd8d6c3c35915a9b583b742da910
    Z: 26.0
    valence: 8
    core: 18
    charge: 0.0
    file: /home/c.zeng/usr/data/gpaw-setups-0.9.20000/Fe.PBE.gz
    compensation charges: {type: gauss,
                           rc: 0.33,
                           lmax: 2}
    cutoffs: {filter: 2.06,
              core: 2.67}
    valence states:
      #              energy  rcut
      - 4s(2.00)    -5.291   1.164
      - 4p(0.00)    -1.326   1.058
      - 3d(6.00)    -7.505   1.058
      -  s          21.920   1.164
      -  p          25.885   1.058
      -  d          19.706   1.058
  
    # Using partial waves for Fe as LCAO basis

  Co:
    name: Cobalt
    id: 339d20d5b0b93d2de9531a1bee871d91
    Z: 27.0
    valence: 9
    core: 18
    charge: 0.0
    file: /home/c.zeng/usr/data/gpaw-setups-0.9.20000/Co.PBE.gz
    compensation charges: {type: gauss,
                           rc: 0.32,
                           lmax: 2}
    cutoffs: {filter: 1.87,
              core: 2.55}
    valence states:
      #              energy  rcut
      - 4s(2.00)    -5.469   1.005
      - 4p(0.00)    -1.277   1.058
      - 3d(7.00)    -8.205   1.005
      -  s          21.742   1.005
      -  p          25.934   1.058
      -  d          19.007   1.005
  
    # Using partial waves for Co as LCAO basis

  Cr:
    name: Chromium
    id: 33f258bda2ca9f93018e70263a35547b
    Z: 24.0
    valence: 6
    core: 18
    charge: 0.0
    file: /home/c.zeng/usr/data/gpaw-setups-0.9.20000/Cr.PBE.gz
    compensation charges: {type: gauss,
                           rc: 0.35,
                           lmax: 2}
    cutoffs: {filter: 2.14,
              core: 3.04}
    valence states:
      #              energy  rcut
      - 4s(1.00)    -4.007   1.164
      - 4p(0.00)    -0.989   1.217
      - 3d(5.00)    -2.913   1.111
      -  s          23.205   1.164
      -  p          26.223   1.217
      -  d          24.299   1.111
  
    # Using partial waves for Cr as LCAO basis

  Al:
    name: Aluminium
    id: 0292cae29f5d6237e50f6abdd43a7bdd
    Z: 13.0
    valence: 3
    core: 10
    charge: 0.0
    file: /home/c.zeng/usr/data/gpaw-setups-0.9.20000/Al.PBE.gz
    compensation charges: {type: gauss,
                           rc: 0.34,
                           lmax: 2}
    cutoffs: {filter: 1.91,
              core: 2.36}
    valence states:
      #              energy  rcut
      - 3s(2.00)    -7.753   1.085
      - 3p(1.00)    -2.712   1.085
      -  s          19.459   1.085
      -  p          24.499   1.085
      -  d           0.000   1.085
  
    # Using partial waves for Al as LCAO basis

Reference energy: -4275894.041763  # eV

Spin-polarized calculation.
Magnetic moment: 165.900000

Convergence criteria:
 Maximum [total energy] change in last 3 cyles: 0.0001 eV / electron
 Maximum integral of absolute [dens]ity change: 0.0001 electrons / valence electron
 Maximum integral of absolute [eigenst]ate change: 4e-08 eV^2 / valence electron
 Maximum number of scf [iter]ations: 666
 (Square brackets indicate name in SCF output, whereas a 'c' in
 the SCF output indicates the quantity has converged.)

Symmetries present (total): 1

  ( 1  0  0)
  ( 0  1  0)
  ( 0  0  1)

4 k-points: 2 x 2 x 1 Monkhorst-Pack grid
2 k-points in the irreducible part of the Brillouin zone
       k-points in crystal coordinates                weights
   0:     0.25000000   -0.25000000    0.00000000          2/4
   1:     0.25000000    0.25000000    0.00000000          2/4

Wave functions: Plane wave expansion
  Cutoff energy: 350.000 eV
  Number of coefficients (min, max): 58901, 58943
  Pulay-stress correction: 0.000000 eV/Ang^3 (de/decut=0.000000)
  Using FFTW library
  ScaLapack parameters: grid=1x1, blocksize=None
  Wavefunction extrapolation:
    Improved wavefunction reuse through dual PAW basis 

Occupation numbers: Fermi-Dirac:
  width: 0.1000  # eV
 

Eigensolver
   Davidson(niter=2) 

Densities:
  Coarse grid: 54*54*128 grid
  Fine grid: 108*108*256 grid
  Total Charge: 0.000000 

Density mixing:
  Method: difference
  Backend: pulay
  Linear mixing parameter: 0.05
  old densities: 5
  Damping of long wavelength oscillations: 50 

Hamiltonian:
  XC and Coulomb potentials evaluated on a 108*108*256 grid
  Using the PBE Exchange-Correlation functional
  External potential:
    NoExternalPotential
 

XC parameters: PBE with 2 nearest neighbor stencil

Memory estimate:
  Process memory now: 367.70 MiB
  Calculator: 2335.53 MiB
    Density: 17.84 MiB
      Arrays: 6.75 MiB
      Localized functions: 8.39 MiB
      Mixer: 2.70 MiB
    Hamiltonian: 5.27 MiB
      Arrays: 5.01 MiB
      XC: 0.00 MiB
      Poisson: 0.00 MiB
      vbar: 0.25 MiB
    Wavefunctions: 2312.43 MiB
      Arrays psit_nG: 1458.82 MiB
      Eigensolver: 834.29 MiB
      Projections: 3.66 MiB
      Projectors: 1.14 MiB
      PW-descriptor: 14.51 MiB

Total number of cores used: 30
Parallelization over k-points: 2
Domain decomposition: 1 x 3 x 5

Number of atoms: 125
Number of atomic orbitals: 1185
Number of bands in calculation: 811
Number of valence electrons: 1179
Bands to converge: occupied

... initialized

Initializing position-dependent things.

Density initialized from atomic densities
Creating initial wave functions:
  811 bands from LCAO basis set

                                                                  
                                                                  
                                                                  
                                                                  
                                                                  
                            CoNi                    Ni            
                                    Co     Cr   Co    Cr          
                          Cr    Ni    Co   ACr    Fe              
                      Cr   Co  Cr Fe Cr Al       Fe     Fe        
               Co         Cr     Cr    Cr    Ni    Fe             
           Co    Co   NCr   FFe    Ni    Ni   FCr                 
            Fe    FNi   CCr   Co  CrFe  Ni Co       Ni            
                        Ni   Cr    Co     Al   NCo                
             Ni    FFe  AlNi   NFe   NNi   Fe    Cr               
               Ni        NiCr  FeFe  Cr Cr                        
                     Fe   Co    Co    Ni    NCr    Co             
          Co    Ni    Co   FFe  CoFCo  CrCr   Ni Ni Cr  Co        
                     Cr Cr    Ni Fe Cr       Fe                   
           Fe    Cr    Al    Ni    Co    Cr    Ni                 
       Al    Co   NNi    Fe    Co    Cr    Co                     
                    Co    Fe     Co                               
              Fe                      Ni                          
                                                                  
                                                                  
                                                                  
                                                                  
                                                                  

Positions:
   0 Ni    12.486910    1.372944    9.841349    ( 0.0000,  0.0000,  1.5000)
   1 Fe     2.710595    1.330170   10.432268    ( 0.0000,  0.0000,  2.0000)
   2 Co     5.109728    1.502422   10.638073    ( 0.0000,  0.0000,  2.1000)
   3 Fe     7.589602    1.487885   10.491293    ( 0.0000,  0.0000,  2.0000)
   4 Co    10.286886    1.534068   10.643374    ( 0.0000,  0.0000,  2.1000)
   5 Co    13.731841    3.577811   10.517747    ( 0.0000,  0.0000,  2.1000)
   6 Ni     3.774378    3.600234   10.355903    ( 0.0000,  0.0000,  1.5000)
   7 Fe     6.362188    3.739759   10.540136    ( 0.0000,  0.0000,  2.0000)
   8 Fe     8.818907    3.751451   10.578661    ( 0.0000,  0.0000,  2.0000)
   9 Cr    11.424399    3.694283   10.871604    ( 0.0000,  0.0000,  0.0000)
  10 Ni    15.192981    5.703716   10.582454    ( 0.0000,  0.0000,  1.5000)
  11 Al     5.158918    5.947868   10.326430    ( 0.0000,  0.0000,  0.0000)
  12 Ni     7.721894    5.916944   10.356712    ( 0.0000,  0.0000,  1.5000)
  13 Co    10.255046    5.880294   10.653558    ( 0.0000,  0.0000,  2.1000)
  14 Cr    12.657312    5.842633   10.391727    ( 0.0000,  0.0000,  0.0000)
  15 Cr    16.367744    8.040893   10.639228    ( 0.0000,  0.0000,  0.0000)
  16 Fe     6.425383    8.016675   10.624226    ( 0.0000,  0.0000,  2.0000)
  17 Fe     8.921513    8.040772   10.537069    ( 0.0000,  0.0000,  2.0000)
  18 Cr    11.230734    7.994301   10.856613    ( 0.0000,  0.0000,  0.0000)
  19 Fe    13.745215    8.102075   10.442055    ( 0.0000,  0.0000,  2.0000)
  20 Co    17.742167   10.046271    9.998054    ( 0.0000,  0.0000,  2.1000)
  21 Co     7.723490   10.183615   10.251684    ( 0.0000,  0.0000,  2.1000)
  22 Co    10.188788   10.103378   10.532736    ( 0.0000,  0.0000,  2.1000)
  23 Ni    12.693127   10.146107   10.735892    ( 0.0000,  0.0000,  1.5000)
  24 Ni    14.955527   10.057188   10.344429    ( 0.0000,  0.0000,  1.5000)
  25 Al     0.182176    0.083956   12.209816    ( 0.0000,  0.0000,  0.0000)
  26 Co     2.567722    0.116231   12.594021    ( 0.0000,  0.0000,  2.1000)
  27 Ni     5.163289   -0.053906   12.597459    ( 0.0000,  0.0000,  1.5000)
  28 Ni    13.769960   11.002894   12.787254    ( 0.0000,  0.0000,  1.5000)
  29 Co    10.011605    0.153724   12.669181    ( 0.0000,  0.0000,  2.1000)
  30 Fe     1.383208    2.231343   12.503033    ( 0.0000,  0.0000,  2.0000)
  31 Cr     3.776850    2.084062   12.575108    ( 0.0000,  0.0000,  0.0000)
  32 Cr     6.451146    2.184572   12.613719    ( 0.0000,  0.0000,  0.0000)
  33 Ni     8.789739    2.215652   12.730714    ( 0.0000,  0.0000,  1.5000)
  34 Cr    11.217444    2.237847   12.662927    ( 0.0000,  0.0000,  0.0000)
  35 Ni    14.946788    4.192530   12.751128    ( 0.0000,  0.0000,  1.5000)
  36 Cr     4.834948    4.141919   12.427778    ( 0.0000,  0.0000,  0.0000)
  37 Fe     7.773625    4.390385   12.567139    ( 0.0000,  0.0000,  2.0000)
  38 Fe    10.153230    4.575424   12.483385    ( 0.0000,  0.0000,  2.0000)
  39 Cr    12.657714    4.464728   12.474713    ( 0.0000,  0.0000,  0.0000)
  40 Co    16.374635    6.383648   12.492915    ( 0.0000,  0.0000,  2.1000)
  41 Co     6.272786    6.295008   12.506186    ( 0.0000,  0.0000,  2.1000)
  42 Co     8.808586    6.636531   12.590256    ( 0.0000,  0.0000,  2.1000)
  43 Ni    11.284925    6.528540   12.827276    ( 0.0000,  0.0000,  1.5000)
  44 Cr    13.964641    6.586623   12.550840    ( 0.0000,  0.0000,  0.0000)
  45 Al     5.099917    8.767400   12.721380    ( 0.0000,  0.0000,  0.0000)
  46 Fe     7.609369    8.820451   12.466248    ( 0.0000,  0.0000,  2.0000)
  47 Cr    10.047661    8.651731   12.674021    ( 0.0000,  0.0000,  0.0000)
  48 Co    12.679016    8.819864   12.620069    ( 0.0000,  0.0000,  2.1000)
  49 Cr    14.962882    8.904288   12.595846    ( 0.0000,  0.0000,  0.0000)
  50 Co     1.229141    0.833868   14.547841    ( 0.0000,  0.0000,  2.1000)
  51 Ni     3.670611    0.751355   14.645525    ( 0.0000,  0.0000,  1.5000)
  52 Co     6.220870    0.647313   14.689383    ( 0.0000,  0.0000,  2.1000)
  53 Fe     8.615367    0.673788   14.790937    ( 0.0000,  0.0000,  2.0000)
  54 Co    11.242086    0.825951   14.527791    ( 0.0000,  0.0000,  2.1000)
  55 Ni     2.509769    2.820739   14.773498    ( 0.0000,  0.0000,  1.5000)
  56 Fe     4.944948    2.741032   14.593647    ( 0.0000,  0.0000,  2.0000)
  57 Cr     7.470401    2.903732   14.743089    ( 0.0000,  0.0000,  0.0000)
  58 Fe     9.975604    2.904251   14.842482    ( 0.0000,  0.0000,  2.0000)
  59 Cr    12.619206    2.952957   14.666847    ( 0.0000,  0.0000,  0.0000)
  60 Fe     3.743605    5.047839   14.692856    ( 0.0000,  0.0000,  2.0000)
  61 Ni     6.189443    4.840082   14.465415    ( 0.0000,  0.0000,  1.5000)
  62 Ni     8.641345    5.024663   14.634054    ( 0.0000,  0.0000,  1.5000)
  63 Ni    11.204343    4.991820   14.833503    ( 0.0000,  0.0000,  1.5000)
  64 Fe    13.761530    4.884369   14.682792    ( 0.0000,  0.0000,  2.0000)
  65 Ni     5.152189    7.147714   14.726447    ( 0.0000,  0.0000,  1.5000)
  66 Cr     7.481993    6.917558   14.669156    ( 0.0000,  0.0000,  0.0000)
  67 Co     9.825742    7.179709   14.794132    ( 0.0000,  0.0000,  2.1000)
  68 Al    12.600656    7.277425   14.915611    ( 0.0000,  0.0000,  0.0000)
  69 Co    15.145503    7.302887   14.547970    ( 0.0000,  0.0000,  2.1000)
  70 Co     6.212927    9.545521   14.715281    ( 0.0000,  0.0000,  2.1000)
  71 Cr     8.824619    9.469547   14.544621    ( 0.0000,  0.0000,  0.0000)
  72 Ni    11.308245    9.271803   14.678281    ( 0.0000,  0.0000,  1.5000)
  73 Fe    13.676061    9.330209   14.855050    ( 0.0000,  0.0000,  2.0000)
  74 Ni    16.265840    9.466519   14.635378    ( 0.0000,  0.0000,  1.5000)
  75 Ni    12.243254    1.509050   16.623089    ( 0.0000,  0.0000,  1.5000)
  76 Ni     2.277289    1.305985   16.812280    ( 0.0000,  0.0000,  1.5000)
  77 Fe     4.855379    1.471370   16.564133    ( 0.0000,  0.0000,  2.0000)
  78 Ni     7.442783    1.379478   16.768315    ( 0.0000,  0.0000,  1.5000)
  79 Fe     9.838567    1.355518   16.757942    ( 0.0000,  0.0000,  2.0000)
  80 Co    13.715813    3.495562   16.817734    ( 0.0000,  0.0000,  2.1000)
  81 Fe     3.742729    3.635898   16.685191    ( 0.0000,  0.0000,  2.0000)
  82 Cr     6.219697    3.577410   16.760815    ( 0.0000,  0.0000,  0.0000)
  83 Co     8.638664    3.502686   16.872949    ( 0.0000,  0.0000,  2.1000)
  84 Fe    11.178695    3.550687   16.972565    ( 0.0000,  0.0000,  2.0000)
  85 Cr    14.986943    5.856279   16.951597    ( 0.0000,  0.0000,  0.0000)
  86 Ni     4.891650    5.771795   16.600321    ( 0.0000,  0.0000,  1.5000)
  87 Fe     7.329157    5.631601   16.609769    ( 0.0000,  0.0000,  2.0000)
  88 Fe     9.965516    5.672782   16.781612    ( 0.0000,  0.0000,  2.0000)
  89 Ni    12.399688    5.640690   16.819364    ( 0.0000,  0.0000,  1.5000)
  90 Fe    16.034120    7.941819   16.809863    ( 0.0000,  0.0000,  2.0000)
  91 Cr     5.889779    7.942749   17.022179    ( 0.0000,  0.0000,  0.0000)
  92 Cr     8.758098    7.941116   16.703863    ( 0.0000,  0.0000,  0.0000)
  93 Cr    11.085626    7.914926   16.821823    ( 0.0000,  0.0000,  0.0000)
  94 Ni    13.577172    7.867779   16.752712    ( 0.0000,  0.0000,  1.5000)
  95 Fe    17.446433   10.078719   16.678804    ( 0.0000,  0.0000,  2.0000)
  96 Cr     7.384752    9.845495   16.869315    ( 0.0000,  0.0000,  0.0000)
  97 Cr    10.061675   10.103487   16.667261    ( 0.0000,  0.0000,  0.0000)
  98 Al    12.405804   10.013465   16.874129    ( 0.0000,  0.0000,  0.0000)
  99 Fe    14.894165   10.125171   16.756250    ( 0.0000,  0.0000,  2.0000)
 100 Co     5.954552   10.571623   18.662529    ( 0.0000,  0.0000,  2.1000)
 101 Fe     2.168282   -0.207572   18.684533    ( 0.0000,  0.0000,  2.0000)
 102 Ni     4.842101    0.013982   18.712349    ( 0.0000,  0.0000,  1.5000)
 103 Cr     7.344854    0.028978   19.146791    ( 0.0000,  0.0000,  0.0000)
 104 Ni    15.957415   10.760161   18.772711    ( 0.0000,  0.0000,  1.5000)
 105 Co     1.183748    2.014284   18.758849    ( 0.0000,  0.0000,  2.1000)
 106 Co     3.670596    2.133091   18.838193    ( 0.0000,  0.0000,  2.1000)
 107 Cr     6.101463    2.131647   18.628915    ( 0.0000,  0.0000,  0.0000)
 108 Fe     8.628639    2.180868   18.852891    ( 0.0000,  0.0000,  2.0000)
 109 Ni    10.963143    2.020328   18.726586    ( 0.0000,  0.0000,  1.5000)
 110 Co     2.483697    4.147112   18.616482    ( 0.0000,  0.0000,  2.1000)
 111 Cr     4.912089    4.505326   19.019300    ( 0.0000,  0.0000,  0.0000)
 112 Co     7.242029    4.360549   18.859843    ( 0.0000,  0.0000,  2.1000)
 113 Fe    10.011116    4.268443   18.850975    ( 0.0000,  0.0000,  2.0000)
 114 Al    12.432414    4.236890   19.075661    ( 0.0000,  0.0000,  0.0000)
 115 Fe    16.054942    6.557747   19.091662    ( 0.0000,  0.0000,  2.0000)
 116 Cr     6.337542    6.565172   18.783811    ( 0.0000,  0.0000,  0.0000)
 117 Ni     8.741821    6.335268   18.642431    ( 0.0000,  0.0000,  1.5000)
 118 Co    11.321606    6.471674   18.773182    ( 0.0000,  0.0000,  2.1000)
 119 Cr    13.639630    6.374600   18.693681    ( 0.0000,  0.0000,  0.0000)
 120 Cr    17.097590    8.587399   18.874628    ( 0.0000,  0.0000,  0.0000)
 121 Ni     7.284790    8.565437   19.431436    ( 0.0000,  0.0000,  1.5000)
 122 Co     9.736217    8.691043   18.840137    ( 0.0000,  0.0000,  2.1000)
 123 Cr    12.474229    8.557209   19.003992    ( 0.0000,  0.0000,  0.0000)
 124 Co    14.832530    8.708222   18.601449    ( 0.0000,  0.0000,  2.1000)

Unit cell:
           periodic     x           y           z      points  spacing
  1. axis:    yes   12.474800    0.000000    0.000000    54     0.2001
  2. axis:    yes    6.246240   10.818800    0.000000    54     0.2003
  3. axis:    no     0.000000    0.000000   29.353100   128     0.2293

  Lengths:  12.474800  12.492476  29.353100
  Angles:   90.000000  90.000000  59.999988

Effective grid spacing dv^(1/3) = 0.2198

     iter     time        total  log10-change:  magmom
                         energy  eigst   dens
iter:   1 04:55:10 -1201.061927                  +166.2219
iter:   2 04:58:52 -1069.266940  -0.11  -1.12    +89.4931
iter:   3 05:02:35 -1630.084905  -0.33  -1.14    +77.2406
iter:   4 05:06:18 -1443.755638  +0.09  -0.85    +67.9305
iter:   5 05:10:00 -1060.298018  -0.79  -0.91    +44.5861
iter:   6 05:13:43 -1012.858634  -1.52  -1.21    +38.0453
iter:   7 05:17:26 -1000.189333  -1.73  -1.28    +36.5528
iter:   8 05:21:09  -990.532938  -1.64  -1.31    +38.6404
iter:   9 05:24:52 -1014.532572  -0.89  -1.35    +39.3194
iter:  10 05:28:36  -964.754652  -1.51  -1.30    +39.0147
iter:  11 05:32:19 -1080.839773  -1.27  -1.49    +42.1081
iter:  12 05:36:03 -1011.960077  -1.30  -1.18    +41.0475
iter:  13 05:39:46  -970.142416  -1.44  -1.33    +38.2474
iter:  14 05:43:29  -960.765432  -1.94  -1.54    +39.3920
iter:  15 05:47:12  -956.711002  -2.22  -1.62    +41.8268
iter:  16 05:50:56  -955.349207  -2.24  -1.71    +45.4960
iter:  17 05:54:39  -972.033472  -1.79  -1.73    +48.7241
iter:  18 05:58:23  -959.250236  -2.13  -1.56    +49.1164
iter:  19 06:02:07  -955.555399  -2.36  -1.71    +51.8471
iter:  20 06:05:51  -957.381861  -2.18  -1.85    +55.5045
iter:  21 06:09:35  -954.455631  -2.49  -1.86    +56.5917
iter:  22 06:13:19  -957.067212  -2.59  -1.93    +60.0214
iter:  23 06:17:02  -954.494692  -2.82  -1.86    +61.5694
iter:  24 06:20:46  -958.502545  -2.64  -2.02    +65.3234
iter:  25 06:24:30  -954.839919  -3.08  -1.84    +65.9834
iter:  26 06:28:13  -955.176785  -3.06  -2.04    +68.9658
iter:  27 06:31:56  -956.874864  -2.71  -2.10    +71.8348
iter:  28 06:35:41  -957.991933  -2.79  -2.04    +71.8236
iter:  29 06:39:24  -956.803841  -2.84  -1.96    +73.4790
iter:  30 06:43:07  -962.570716  -2.46  -2.15    +74.7225
iter:  31 06:46:50  -957.731800  -2.72  -1.82    +75.3911
iter:  32 06:50:34  -957.195290  -3.06  -2.07    +75.9017
iter:  33 06:54:16  -957.034236  -3.25  -2.16    +76.8338
iter:  34 06:58:01  -957.191208  -3.25  -2.20    +77.3055
iter:  35 07:01:45  -956.854908  -3.72  -2.20    +77.7018
iter:  36 07:05:29  -957.451918  -3.37  -2.30    +78.5711
iter:  37 07:09:10  -958.183234  -3.15  -2.24    +78.8898
iter:  38 07:12:54  -957.901105  -3.15  -2.14    +79.5855
iter:  39 07:16:37  -957.755053  -3.07  -2.24    +79.8092
iter:  40 07:20:21  -960.908792  -2.75  -2.30    +80.4531
iter:  41 07:24:04  -957.500559  -3.04  -1.96    +80.6136
iter:  42 07:27:47  -957.616963  -3.47  -2.41    +81.1395
iter:  43 07:31:30  -957.376820  -3.98  -2.37    +81.4709
iter:  44 07:35:13  -957.440657  -4.22  -2.51    +81.8107
iter:  45 07:38:57  -957.547669  -3.87  -2.52    +82.4515
iter:  46 07:42:41  -957.604156  -3.86  -2.54    +82.8475
iter:  47 07:46:24  -957.738054  -3.77  -2.60    +82.7332
iter:  48 07:50:07  -957.665648  -3.67  -2.56    +82.9481
iter:  49 07:53:50  -957.635783c -3.97  -2.73    +82.9920
iter:  50 07:57:32  -957.935207  -3.88  -2.91    +82.9892
iter:  51 08:01:15  -957.670208  -4.06  -2.49    +83.0596
iter:  52 08:04:58  -957.644539  -4.36  -2.83    +83.1652
iter:  53 08:08:42  -957.639688c -4.72  -3.02    +83.3483
iter:  54 08:12:25  -957.645306c -4.87  -3.10    +83.3602
iter:  55 08:16:09  -957.649046c -5.08  -3.12    +83.4314
iter:  56 08:19:52  -957.661990c -5.02  -3.14    +83.4778
iter:  57 08:23:36  -957.673949c -4.84  -3.08    +83.5009
iter:  58 08:27:19  -957.663276c -5.04  -3.03    +83.5186
iter:  59 08:31:03  -957.674885c -4.79  -3.20    +83.5261
iter:  60 08:34:46  -957.678134c -4.94  -3.18    +83.5644
iter:  61 08:38:29  -957.688553c -4.75  -3.18    +83.5710
iter:  62 08:42:13  -957.702060c -4.85  -3.15    +83.5824
iter:  63 08:45:56  -957.695779c -4.82  -3.02    +83.6305
iter:  64 08:49:40  -957.688306c -5.23  -3.15    +83.6254
iter:  65 08:53:25  -957.694403c -5.31  -3.35    +83.6601
iter:  66 08:57:08  -957.705949c -5.01  -3.36    +83.6830
iter:  67 09:00:51  -957.706656c -5.57  -3.29    +83.6745
iter:  68 09:04:35  -957.720918c -5.04  -3.26    +83.6759
iter:  69 09:08:19  -957.714794c -5.67  -3.12    +83.6748
iter:  70 09:12:01  -957.723775c -5.31  -3.24    +83.6402
iter:  71 09:15:45  -957.736003c -4.89  -3.18    +83.6181
iter:  72 09:19:28  -957.735861c -5.36  -3.10    +83.6059
iter:  73 09:23:11  -957.750713c -4.67  -3.09    +83.5899
iter:  74 09:26:54  -957.777225c -4.76  -3.02    +83.6332
iter:  75 09:30:38  -957.743703c -5.04  -2.87    +83.6738
iter:  76 09:34:22  -957.757942c -4.49  -3.12    +83.6768
iter:  77 09:38:05  -957.749858c -4.99  -3.07    +83.6648
iter:  78 09:41:48  -957.753053c -5.42  -3.11    +83.6310
iter:  79 09:45:31  -957.750798c -5.10  -3.12    +83.5844
iter:  80 09:49:15  -957.756971c -5.36  -3.22    +83.5916
iter:  81 09:52:59  -957.764830c -4.82  -3.12    +83.5638
iter:  82 09:56:42  -957.765512c -4.92  -3.13    +83.5601
iter:  83 10:00:26  -957.764480c -4.91  -3.08    +83.5350
iter:  84 10:04:09  -957.756561c -5.05  -3.11    +83.5611
iter:  85 10:07:53  -957.789006c -4.86  -3.25    +83.6050
iter:  86 10:11:37  -957.767254c -4.78  -2.96    +83.5730
iter:  87 10:15:21  -957.773532c -4.94  -3.18    +83.6160
iter:  88 10:19:05  -957.762826c -5.04  -3.09    +83.6190
iter:  89 10:22:49  -957.761319c -5.43  -3.30    +83.6368
iter:  90 10:26:32  -957.763809c -5.67  -3.37    +83.6253
iter:  91 10:30:17  -957.766822c -5.52  -3.36    +83.6420
iter:  92 10:34:01  -957.764957c -6.08  -3.36    +83.6373
iter:  93 10:37:43  -957.771564c -5.38  -3.40    +83.6645
iter:  94 10:41:29  -957.768593c -5.41  -3.23    +83.6475
iter:  95 10:45:13  -957.769185c -5.32  -3.36    +83.6513
iter:  96 10:48:58  -957.787082c -4.93  -3.37    +83.6607
iter:  97 10:52:43  -957.813313c -4.67  -3.13    +83.6561
iter:  98 10:56:28  -957.775306c -5.12  -2.91    +83.6613
iter:  99 11:00:14  -957.775900c -5.00  -3.25    +83.6515
iter: 100 11:03:59  -957.770167c -5.54  -3.28    +83.6795
iter: 101 11:07:43  -957.769879c -5.78  -3.46    +83.6829
iter: 102 11:11:29  -957.770929c -5.96  -3.51    +83.7006
iter: 103 11:15:14  -957.802348c -4.96  -3.48    +83.7230
iter: 104 11:18:59  -957.770942c -5.32  -3.00    +83.7279
iter: 105 11:22:44  -957.783601c -5.15  -3.59    +83.7408
iter: 106 11:26:30  -957.771973c -5.39  -3.18    +83.7194
iter: 107 11:30:15  -957.772021c -5.46  -3.59    +83.7250
iter: 108 11:33:55  -957.771952c -5.96  -3.57    +83.7440
iter: 109 11:37:40  -957.773843c -5.72  -3.68    +83.7429
iter: 110 11:41:25  -957.771618c -6.20  -3.47    +83.7433
iter: 111 11:45:11  -957.772968c -6.24  -3.78    +83.7456
iter: 112 11:48:56  -957.772412c -6.21  -3.65    +83.7440
iter: 113 11:52:41  -957.773771c -5.69  -3.70    +83.7404
iter: 114 11:56:26  -957.772480c -5.84  -3.59    +83.7336
iter: 115 12:00:11  -957.779381c -5.60  -3.80    +83.7531
iter: 116 12:03:57  -957.773069c -5.64  -3.35    +83.7531
iter: 117 12:07:42  -957.773566c -6.04  -3.76    +83.7643
iter: 118 12:11:28  -957.772476c -6.46  -3.64    +83.7544
iter: 119 12:15:13  -957.772590c -6.86  -4.05c   +83.7582
iter: 120 12:18:58  -957.772789c -6.88  -4.10c   +83.7615
iter: 121 12:22:43  -957.773083c -6.81  -4.10c   +83.7634
iter: 122 12:26:23  -957.773214c -6.58  -4.13c   +83.7617
iter: 123 12:30:09  -957.780525c -5.79  -4.04c   +83.7628
iter: 124 12:33:54  -957.773533c -6.00  -3.35    +83.7641
iter: 125 12:37:39  -957.773703c -6.56  -4.18c   +83.7640
iter: 126 12:41:24  -957.773704c -6.99  -4.19c   +83.7599
iter: 127 12:45:09  -957.773599c -7.10  -4.51c   +83.7596
iter: 128 12:48:54  -957.773737c -7.49c -4.50c   +83.7636

Converged after 128 iterations.

Dipole moment: (57.864668, 29.117610, 0.090956) |e|*Ang

Total magnetic moment: (0.000000, 0.000000, 83.763622)
Local magnetic moments:
   0 Ni ( 0.000000,  0.000000,  0.681238)
   1 Fe ( 0.000000,  0.000000,  2.649546)
   2 Co ( 0.000000,  0.000000,  1.238396)
   3 Fe ( 0.000000,  0.000000,  2.797560)
   4 Co ( 0.000000,  0.000000,  1.382326)
   5 Co ( 0.000000,  0.000000,  1.013196)
   6 Ni ( 0.000000,  0.000000,  0.168862)
   7 Fe ( 0.000000,  0.000000,  2.475086)
   8 Fe ( 0.000000,  0.000000,  2.638459)
   9 Cr ( 0.000000,  0.000000, -0.413511)
  10 Ni ( 0.000000,  0.000000,  0.104537)
  11 Al ( 0.000000,  0.000000, -0.034617)
  12 Ni ( 0.000000,  0.000000,  0.599861)
  13 Co ( 0.000000,  0.000000,  1.020472)
  14 Cr ( 0.000000,  0.000000, -2.490907)
  15 Cr ( 0.000000,  0.000000, -2.338155)
  16 Fe ( 0.000000,  0.000000,  2.203162)
  17 Fe ( 0.000000,  0.000000,  2.266955)
  18 Cr ( 0.000000,  0.000000, -1.379722)
  19 Fe ( 0.000000,  0.000000,  2.425932)
  20 Co ( 0.000000,  0.000000,  1.638756)
  21 Co ( 0.000000,  0.000000,  1.507721)
  22 Co ( 0.000000,  0.000000,  1.504536)
  23 Ni ( 0.000000,  0.000000,  0.512128)
  24 Ni ( 0.000000,  0.000000,  0.275070)
  25 Al ( 0.000000,  0.000000, -0.041463)
  26 Co ( 0.000000,  0.000000,  1.124019)
  27 Ni ( 0.000000,  0.000000,  0.318459)
  28 Ni ( 0.000000,  0.000000,  0.241377)
  29 Co ( 0.000000,  0.000000,  1.090474)
  30 Fe ( 0.000000,  0.000000,  2.048670)
  31 Cr ( 0.000000,  0.000000, -0.614051)
  32 Cr ( 0.000000,  0.000000, -1.189333)
  33 Ni ( 0.000000,  0.000000,  0.255033)
  34 Cr ( 0.000000,  0.000000,  0.306024)
  35 Ni ( 0.000000,  0.000000,  0.229770)
  36 Cr ( 0.000000,  0.000000, -0.648799)
  37 Fe ( 0.000000,  0.000000,  2.210243)
  38 Fe ( 0.000000,  0.000000,  1.585126)
  39 Cr ( 0.000000,  0.000000,  0.143147)
  40 Co ( 0.000000,  0.000000,  0.820752)
  41 Co ( 0.000000,  0.000000,  1.280815)
  42 Co ( 0.000000,  0.000000,  1.092386)
  43 Ni ( 0.000000,  0.000000,  0.082709)
  44 Cr ( 0.000000,  0.000000,  1.304241)
  45 Al ( 0.000000,  0.000000, -0.024398)
  46 Fe ( 0.000000,  0.000000,  1.979383)
  47 Cr ( 0.000000,  0.000000,  0.256263)
  48 Co ( 0.000000,  0.000000,  0.892836)
  49 Cr ( 0.000000,  0.000000, -0.679452)
  50 Co ( 0.000000,  0.000000,  1.264730)
  51 Ni ( 0.000000,  0.000000,  0.213308)
  52 Co ( 0.000000,  0.000000,  0.980606)
  53 Fe ( 0.000000,  0.000000,  2.245300)
  54 Co ( 0.000000,  0.000000,  1.266340)
  55 Ni ( 0.000000,  0.000000,  0.389722)
  56 Fe ( 0.000000,  0.000000,  1.676943)
  57 Cr ( 0.000000,  0.000000, -1.321688)
  58 Fe ( 0.000000,  0.000000,  2.373486)
  59 Cr ( 0.000000,  0.000000, -1.629678)
  60 Fe ( 0.000000,  0.000000,  2.296044)
  61 Ni ( 0.000000,  0.000000,  0.177728)
  62 Ni ( 0.000000,  0.000000,  0.266963)
  63 Ni ( 0.000000,  0.000000,  0.347267)
  64 Fe ( 0.000000,  0.000000,  1.925073)
  65 Ni ( 0.000000,  0.000000,  0.234545)
  66 Cr ( 0.000000,  0.000000, -1.467368)
  67 Co ( 0.000000,  0.000000,  0.353922)
  68 Al ( 0.000000,  0.000000, -0.026414)
  69 Co ( 0.000000,  0.000000,  1.159444)
  70 Co ( 0.000000,  0.000000,  1.014512)
  71 Cr ( 0.000000,  0.000000, -1.567463)
  72 Ni ( 0.000000,  0.000000,  0.084717)
  73 Fe ( 0.000000,  0.000000,  1.985676)
  74 Ni ( 0.000000,  0.000000,  0.309104)
  75 Ni ( 0.000000,  0.000000,  0.392603)
  76 Ni ( 0.000000,  0.000000,  0.571196)
  77 Fe ( 0.000000,  0.000000,  1.785038)
  78 Ni ( 0.000000,  0.000000,  0.174670)
  79 Fe ( 0.000000,  0.000000,  2.205485)
  80 Co ( 0.000000,  0.000000,  1.503301)
  81 Fe ( 0.000000,  0.000000,  2.145697)
  82 Cr ( 0.000000,  0.000000,  0.376895)
  83 Co ( 0.000000,  0.000000,  1.289510)
  84 Fe ( 0.000000,  0.000000,  2.295086)
  85 Cr ( 0.000000,  0.000000, -0.497431)
  86 Ni ( 0.000000,  0.000000,  0.241539)
  87 Fe ( 0.000000,  0.000000,  1.840847)
  88 Fe ( 0.000000,  0.000000,  2.331684)
  89 Ni ( 0.000000,  0.000000,  0.159465)
  90 Fe ( 0.000000,  0.000000,  1.732517)
  91 Cr ( 0.000000,  0.000000, -0.258575)
  92 Cr ( 0.000000,  0.000000,  0.658115)
  93 Cr ( 0.000000,  0.000000, -1.138023)
  94 Ni ( 0.000000,  0.000000,  0.146470)
  95 Fe ( 0.000000,  0.000000,  2.099234)
  96 Cr ( 0.000000,  0.000000, -0.610421)
  97 Cr ( 0.000000,  0.000000,  0.711865)
  98 Al ( 0.000000,  0.000000, -0.015509)
  99 Fe ( 0.000000,  0.000000,  1.875188)
 100 Co ( 0.000000,  0.000000,  1.380208)
 101 Fe ( 0.000000,  0.000000,  2.247864)
 102 Ni ( 0.000000,  0.000000,  0.076920)
 103 Cr ( 0.000000,  0.000000, -2.800908)
 104 Ni ( 0.000000,  0.000000,  0.390260)
 105 Co ( 0.000000,  0.000000,  1.665531)
 106 Co ( 0.000000,  0.000000,  1.570080)
 107 Cr ( 0.000000,  0.000000, -1.861936)
 108 Fe ( 0.000000,  0.000000,  2.508636)
 109 Ni ( 0.000000,  0.000000,  0.610845)
 110 Co ( 0.000000,  0.000000,  1.167400)
 111 Cr ( 0.000000,  0.000000, -2.644947)
 112 Co ( 0.000000,  0.000000,  0.877630)
 113 Fe ( 0.000000,  0.000000,  2.510426)
 114 Al ( 0.000000,  0.000000, -0.043451)
 115 Fe ( 0.000000,  0.000000,  2.421701)
 116 Cr ( 0.000000,  0.000000,  1.259975)
 117 Ni ( 0.000000,  0.000000,  0.438434)
 118 Co ( 0.000000,  0.000000,  0.729057)
 119 Cr ( 0.000000,  0.000000, -1.224004)
 120 Cr ( 0.000000,  0.000000, -1.443862)
 121 Ni ( 0.000000,  0.000000,  0.350505)
 122 Co ( 0.000000,  0.000000,  1.243273)
 123 Cr ( 0.000000,  0.000000,  2.473071)
 124 Co ( 0.000000,  0.000000,  0.861844)

Energy contributions relative to reference atoms: (reference = -4275894.041763)

Kinetic:       +353.069736
Potential:     -373.698006
External:        +0.000000
XC:            -976.805677
Entropy (-ST):   -5.562709
Local:          +42.441565
--------------------------
Free energy:   -960.555092
Extrapolated:  -957.773737

Dipole-layer corrected work functions: 4.952961, 4.831011 eV

Spin contamination: 35.083674 electrons
Showing all kpts
                      Up                     Down
 Kpt  Band  Eigenvalues  Occupancy  Eigenvalues  Occupancy
  0   587     -0.04520    0.99719      0.92468    0.02128
  0   588     -0.03779    0.99697      0.93140    0.01992
  0   589     -0.02365    0.99651      0.93933    0.01843
  0   590     -0.00550    0.99582      0.95565    0.01570

  1   587     -0.04580    0.99720      0.93846    0.01859
  1   588     -0.03535    0.99690      0.94169    0.01801
  1   589     -0.02555    0.99658      0.94997    0.01660
  1   590     -0.01848    0.99633      0.95556    0.01572


Fermi level: 0.54183

Gap: 0.010 eV
Transition (v -> c):
  (s=0, k=0, n=631, [0.25, -0.25, 0.00]) -> (s=1, k=0, n=548, [0.25, -0.25, 0.00])

Forces in eV/Ang:
  0 Ni    0.77708    0.63045    1.14912
  1 Fe   -0.58572    0.73326   -0.29430
  2 Co    0.16215   -0.00893    0.07814
  3 Fe    0.38393    0.17783    0.50181
  4 Co   -0.83148   -0.71070   -0.06607
  5 Co    0.74599   -0.02811   -0.09509
  6 Ni    0.42704   -0.28769    0.51371
  7 Fe   -0.32352   -0.48145    0.08829
  8 Fe    0.57614   -0.64498   -0.43949
  9 Cr   -0.11475   -0.92700   -1.15084
 10 Ni   -0.74353    0.30988   -0.14699
 11 Al    0.02037   -1.34940   -0.73794
 12 Ni   -0.29568   -0.12902    0.91629
 13 Co   -0.81187    0.16736   -0.43634
 14 Cr    0.44150    0.17471    0.07064
 15 Cr   -0.86794    0.33472   -0.58314
 16 Fe   -0.04352    0.32505   -0.18126
 17 Fe   -0.37674   -0.25635   -0.48162
 18 Cr    0.77340    0.53941   -0.27853
 19 Fe    0.26278   -1.31239    0.20366
 20 Co   -0.61772    0.16699    0.94640
 21 Co   -0.25562   -0.48280    0.33595
 22 Co    0.09249    0.43871    0.49358
 23 Ni   -1.08560    0.61291   -0.89113
 24 Ni    1.73560    0.83454    0.80276
 25 Al   -0.93722    0.79689   -0.22878
 26 Co    0.40767   -0.76056   -0.67716
 27 Ni   -1.57727    0.93001    0.41639
 28 Ni    0.84440   -1.24791   -0.97035
 29 Co   -0.03376   -0.57950   -0.95648
 30 Fe   -1.00581   -0.37722   -0.17368
 31 Cr    0.69096    0.52317   -0.37252
 32 Cr   -1.46544    0.76403   -0.28029
 33 Ni    0.82733    0.33904   -0.48439
 34 Cr    0.43343    0.79128   -0.03265
 35 Ni    1.32677    1.35602   -0.71961
 36 Cr    1.09949    0.46708    0.02573
 37 Fe   -1.50185   -0.15281   -0.37220
 38 Fe   -0.59794   -1.40492    1.92626
 39 Cr   -0.96710   -0.01839    0.58450
 40 Co   -0.16962    0.52873    1.23100
 41 Co    0.75277    0.85142   -0.03831
 42 Co   -0.14526   -0.19305   -0.13064
 43 Ni    1.02645    0.83583   -0.01781
 44 Cr   -0.38876    0.26231   -0.18021
 45 Al   -0.23707   -1.15700    0.22078
 46 Fe   -0.02661   -1.09381    0.73001
 47 Cr    0.13042    0.32309    0.09679
 48 Co   -0.14433   -1.53961    0.73758
 49 Cr    0.16199   -1.07361   -0.26323
 50 Co   -0.52583   -1.01673    0.31935
 51 Ni    0.22578   -0.81098   -0.04173
 52 Co   -0.51237    0.48871    0.38897
 53 Fe    0.95499    0.29867   -0.88201
 54 Co   -0.02380   -0.54133    0.49618
 55 Ni    0.36954    0.18999   -0.10973
 56 Fe    0.65047    0.75122   -0.19144
 57 Cr    0.08006   -0.78722    0.29530
 58 Fe   -0.01212    0.18369   -0.44258
 59 Cr   -1.08226   -0.18647   -0.26098
 60 Fe   -0.12490    0.02480   -0.79873
 61 Ni   -0.45237    0.65204    0.26197
 62 Ni    1.64416   -0.61719    0.31197
 63 Ni    0.06851    0.13480   -1.05984
 64 Fe   -0.04482    1.44788    0.78424
 65 Ni   -0.63896    0.68237   -0.66996
 66 Cr   -0.65382    2.45630   -0.23466
 67 Co    0.72927    0.24314   -0.71531
 68 Al   -1.09385   -2.53369   -2.78660
 69 Co   -0.51505   -0.46719    0.41744
 70 Co    1.13108   -0.46871   -0.00705
 71 Cr   -0.94163   -0.71362    0.62277
 72 Ni   -0.83417    0.32090   -0.12746
 73 Fe    1.89324    1.13332   -1.52610
 74 Ni   -0.45694   -0.33186    0.44404
 75 Ni    1.13917   -0.97218    0.44323
 76 Ni    0.91174    0.17145   -0.80093
 77 Fe    0.21826    0.13878    1.20146
 78 Ni   -0.79174    0.08880    0.26404
 79 Fe    0.58977    0.16088   -0.08865
 80 Co   -0.35429    0.34478   -0.35748
 81 Fe   -0.19133   -0.57814    0.72927
 82 Cr   -0.64533    0.16328    0.28247
 83 Co    0.14242    0.70042   -0.14412
 84 Fe    0.15079    0.33165   -1.32570
 85 Cr   -0.67554   -0.41760   -0.69881
 86 Ni    0.57978   -0.13926    1.32917
 87 Fe    0.62322    0.56368    0.73240
 88 Fe   -0.49981    0.00605   -0.53941
 89 Ni    0.81378    0.06499   -0.35754
 90 Fe    0.51673   -0.32042   -1.31658
 91 Cr    1.31887   -0.62506   -0.22261
 92 Cr   -1.29988   -0.06553    1.00322
 93 Cr   -0.90793   -0.34172    1.10857
 94 Ni    1.03197    0.20342    1.47077
 95 Fe   -0.92682    0.41865   -0.24630
 96 Cr    0.71707    0.06768   -0.85770
 97 Cr   -1.96090   -0.30283    0.16409
 98 Al    1.38802    1.17697   -0.15025
 99 Fe    0.11442   -0.77795    0.25213
100 Co    0.52081    0.80752    0.86306
101 Fe    0.79766    0.63351    0.70653
102 Ni   -0.24704   -0.28616    0.47052
103 Cr    0.29426   -0.65214   -0.30836
104 Ni    0.83437    0.52999    0.16821
105 Co   -0.56859   -0.09424   -0.14675
106 Co   -0.22772   -0.07057   -0.85905
107 Cr   -0.39711    0.74365    0.15363
108 Fe   -0.70313    0.19501   -0.00415
109 Ni    1.42199   -0.21091    0.93130
110 Co   -0.28788    0.57198    1.29966
111 Cr   -0.56649   -0.34272   -0.68733
112 Co    0.86103   -0.33762   -0.65699
113 Fe   -1.32151    0.45452    0.54557
114 Al    0.42810   -0.90390    0.26474
115 Fe    0.21758   -0.69343   -0.62038
116 Cr   -0.46404   -0.16768   -0.48284
117 Ni   -0.14182    0.82061    0.78379
118 Co   -1.06903   -0.08355    0.22285
119 Cr    0.85718    0.94587    0.38320
120 Cr    1.04551    0.26998    0.41014
121 Ni    0.08875    0.25072   -1.35921
122 Co    0.36067   -0.77780   -0.49223
123 Cr   -0.96821    0.34275    0.42340
124 Co   -0.55340   -0.53765    1.11563

Timing:                              incl.     excl.
-----------------------------------------------------------
Forces:                             47.192    47.192   0.2% |
Hamiltonian:                         2.308     0.018   0.0% |
 Atomic:                             0.438     0.002   0.0% |
  XC Correction:                     0.436     0.436   0.0% |
 Calculate atomic Hamiltonians:      1.106     1.106   0.0% |
 Communicate:                        0.068     0.068   0.0% |
 Initialize Hamiltonian:             0.001     0.001   0.0% |
 Poisson:                            0.136     0.136   0.0% |
 XC 3D grid:                         0.540     0.540   0.0% |
LCAO initialization:               385.272     0.620   0.0% |
 LCAO eigensolver:                  27.406     0.025   0.0% |
  Calculate projections:             0.000     0.000   0.0% |
  DenseAtomicCorrection:             0.000     0.000   0.0% |
  Distribute overlap matrix:        12.986    12.986   0.0% |
  Orbital Layouts:                  14.290    14.290   0.0% |
  Potential matrix:                  0.015     0.015   0.0% |
  Sum over cells:                    0.089     0.089   0.0% |
 LCAO to grid:                     354.050   354.050   1.2% |
 Set positions (LCAO WFS):           3.196     2.777   0.0% |
  Basic WFS set positions:           0.004     0.004   0.0% |
  Basis functions set positions:     0.001     0.001   0.0% |
  P tci:                             0.001     0.001   0.0% |
  ST tci:                            0.173     0.173   0.0% |
  mktci:                             0.240     0.240   0.0% |
PWDescriptor:                        0.132     0.132   0.0% |
SCF-cycle:                       28663.356     1.394   0.0% |
 Davidson:                       27946.071  6976.260  24.0% |---------|
  Apply H:                         492.853   483.736   1.7% ||
   HMM T:                            9.118     9.118   0.0% |
  Subspace diag:                  2531.597     0.086   0.0% |
   calc_h_matrix:                 1095.800   645.622   2.2% ||
    Apply H:                       450.178   440.285   1.5% ||
     HMM T:                          9.893     9.893   0.0% |
   diagonalize:                    257.864   257.864   0.9% |
   rotate_psi:                    1177.847  1177.847   4.0% |-|
  calc. matrices:                 5907.668  5059.147  17.4% |------|
   Apply H:                        848.521   830.133   2.9% ||
    HMM T:                          18.389    18.389   0.1% |
  diagonalize:                    9496.615  9496.615  32.6% |------------|
  rotate_psi:                     2541.078  2541.078   8.7% |--|
 Density:                          407.948     0.007   0.0% |
  Atomic density matrices:           4.931     4.931   0.0% |
  Mix:                             192.425   192.425   0.7% |
  Multipole moments:                 0.134     0.134   0.0% |
  Pseudo density:                  210.452   210.442   0.7% |
   Symmetrize density:               0.009     0.009   0.0% |
 Hamiltonian:                      286.202     2.190   0.0% |
  Atomic:                           57.261     0.260   0.0% |
   XC Correction:                   57.001    57.001   0.2% |
  Calculate atomic Hamiltonians:   153.353   153.353   0.5% |
  Communicate:                       8.174     8.174   0.0% |
  Poisson:                           6.318     6.318   0.0% |
  XC 3D grid:                       58.907    58.907   0.2% |
 Orthonormalize:                    21.741     0.001   0.0% |
  calc_s_matrix:                     2.783     2.783   0.0% |
  inverse-cholesky:                  1.220     1.220   0.0% |
  projections:                      13.085    13.085   0.0% |
  rotate_psi_s:                      4.651     4.651   0.0% |
Set symmetry:                        0.001     0.001   0.0% |
Other:                               9.159     9.159   0.0% |
-----------------------------------------------------------
Total:                                     29107.420 100.0%

Date: Mon Apr 17 12:49:46 2023
