
  ___ ___ ___ _ _ _  
 |   |   |_  | | | | 
 | | | | | . | | | | 
 |__ |  _|___|_____|  22.8.0
 |___|_|             

User:   c.zeng@d0025
Date:   Sat Apr 15 23:45:39 2023
Arch:   x86_64
Pid:    277859
CWD:    /home/c.zeng/projects/hea-corrosion/hea-mlp/data-curation/bulk-mcmc/dft-jobs/99
Python: 3.8.1
gpaw:   /home/c.zeng/usr/installs/gpaw/source/gpaw-22.8.0/gpaw
_gpaw:  /home/c.zeng/usr/installs/gpaw/source/gpaw-22.8.0/
        _gpaw.cpython-38-x86_64-linux-gnu.so
ase:    /home/c.zeng/.local/lib/python3.8/site-packages/ase-3.22.1-py3.8.egg/ase (version 3.22.1)
numpy:  /home/c.zeng/.local/lib/python3.8/site-packages/numpy (version 1.24.2)
scipy:  /home/c.zeng/.local/lib/python3.8/site-packages/scipy (version 1.10.1)
libxc:  4.2.3
units:  Angstrom and eV
cores: 30
OpenMP: False
OMP_NUM_THREADS: 1

Input parameters:
  convergence: {energy: 0.0001}
  kpts: [2 2 2]
  maxiter: 666
  mode: {ecut: 350.0,
         name: pw}
  occupations: {fixmagmom: False,
                name: fermi-dirac,
                width: 0.1}
  spinpol: True
  xc: PBE

System changes: positions, numbers, cell, pbc, initial_charges, initial_magmoms 

Initialize ...

species:
  Ni:
    name: Nickel
    id: 0d9f38a9d6e76a2886f07bb4381f212b
    Z: 28.0
    valence: 16
    core: 12
    charge: 0.0
    file: /home/c.zeng/usr/data/gpaw-setups-0.9.20000/Ni.PBE.gz
    compensation charges: {type: gauss,
                           rc: 0.36,
                           lmax: 2}
    cutoffs: {filter: 2.14,
              core: 1.98}
    valence states:
      #              energy  rcut
      - 4s(2.00)    -5.642   1.164
      - 3p(6.00)   -71.394   1.207
      - 4p(0.00)    -1.226   1.207
      - 3d(8.00)    -8.875   1.138
      -  s          21.570   1.164
      -  d          18.337   1.138
  
    # Using partial waves for Ni as LCAO basis

  Cr:
    name: Chromium
    id: 33f258bda2ca9f93018e70263a35547b
    Z: 24.0
    valence: 6
    core: 18
    charge: 0.0
    file: /home/c.zeng/usr/data/gpaw-setups-0.9.20000/Cr.PBE.gz
    compensation charges: {type: gauss,
                           rc: 0.35,
                           lmax: 2}
    cutoffs: {filter: 2.14,
              core: 3.04}
    valence states:
      #              energy  rcut
      - 4s(1.00)    -4.007   1.164
      - 4p(0.00)    -0.989   1.217
      - 3d(5.00)    -2.913   1.111
      -  s          23.205   1.164
      -  p          26.223   1.217
      -  d          24.299   1.111
  
    # Using partial waves for Cr as LCAO basis

  Fe:
    name: Iron
    id: 37abbd8d6c3c35915a9b583b742da910
    Z: 26.0
    valence: 8
    core: 18
    charge: 0.0
    file: /home/c.zeng/usr/data/gpaw-setups-0.9.20000/Fe.PBE.gz
    compensation charges: {type: gauss,
                           rc: 0.33,
                           lmax: 2}
    cutoffs: {filter: 2.06,
              core: 2.67}
    valence states:
      #              energy  rcut
      - 4s(2.00)    -5.291   1.164
      - 4p(0.00)    -1.326   1.058
      - 3d(6.00)    -7.505   1.058
      -  s          21.920   1.164
      -  p          25.885   1.058
      -  d          19.706   1.058
  
    # Using partial waves for Fe as LCAO basis

  Co:
    name: Cobalt
    id: 339d20d5b0b93d2de9531a1bee871d91
    Z: 27.0
    valence: 9
    core: 18
    charge: 0.0
    file: /home/c.zeng/usr/data/gpaw-setups-0.9.20000/Co.PBE.gz
    compensation charges: {type: gauss,
                           rc: 0.32,
                           lmax: 2}
    cutoffs: {filter: 1.87,
              core: 2.55}
    valence states:
      #              energy  rcut
      - 4s(2.00)    -5.469   1.005
      - 4p(0.00)    -1.277   1.058
      - 3d(7.00)    -8.205   1.005
      -  s          21.742   1.005
      -  p          25.934   1.058
      -  d          19.007   1.005
  
    # Using partial waves for Co as LCAO basis

  Al:
    name: Aluminium
    id: 0292cae29f5d6237e50f6abdd43a7bdd
    Z: 13.0
    valence: 3
    core: 10
    charge: 0.0
    file: /home/c.zeng/usr/data/gpaw-setups-0.9.20000/Al.PBE.gz
    compensation charges: {type: gauss,
                           rc: 0.34,
                           lmax: 2}
    cutoffs: {filter: 1.91,
              core: 2.36}
    valence states:
      #              energy  rcut
      - 3s(2.00)    -7.753   1.085
      - 3p(1.00)    -2.712   1.085
      -  s          19.459   1.085
      -  p          24.499   1.085
      -  d           0.000   1.085
  
    # Using partial waves for Al as LCAO basis

Reference energy: -3699400.456887  # eV

Spin-polarized calculation.
Magnetic moment: 143.500000

Convergence criteria:
 Maximum [total energy] change in last 3 cyles: 0.0001 eV / electron
 Maximum integral of absolute [dens]ity change: 0.0001 electrons / valence electron
 Maximum integral of absolute [eigenst]ate change: 4e-08 eV^2 / valence electron
 Maximum number of scf [iter]ations: 666
 (Square brackets indicate name in SCF output, whereas a 'c' in
 the SCF output indicates the quantity has converged.)

Symmetries present (total): 1

  ( 1  0  0)
  ( 0  1  0)
  ( 0  0  1)

8 k-points: 2 x 2 x 2 Monkhorst-Pack grid
4 k-points in the irreducible part of the Brillouin zone
       k-points in crystal coordinates                weights
   0:     0.25000000   -0.25000000   -0.25000000          2/8
   1:     0.25000000   -0.25000000    0.25000000          2/8
   2:     0.25000000    0.25000000   -0.25000000          2/8
   3:     0.25000000    0.25000000    0.25000000          2/8

Wave functions: Plane wave expansion
  Cutoff energy: 350.000 eV
  Number of coefficients (min, max): 18052, 18052
  Pulay-stress correction: 0.000000 eV/Ang^3 (de/decut=0.000000)
  Using FFTW library
  ScaLapack parameters: grid=1x1, blocksize=None
  Wavefunction extrapolation:
    Improved wavefunction reuse through dual PAW basis 

Occupation numbers: Fermi-Dirac:
  width: 0.1000  # eV
 

Eigensolver
   Davidson(niter=2) 

Densities:
  Coarse grid: 48*48*48 grid
  Fine grid: 96*96*96 grid
  Total Charge: 0.000000 

Density mixing:
  Method: difference
  Backend: pulay
  Linear mixing parameter: 0.05
  old densities: 5
  Damping of long wavelength oscillations: 50 

Hamiltonian:
  XC and Coulomb potentials evaluated on a 96*96*96 grid
  Using the PBE Exchange-Correlation functional
  External potential:
    NoExternalPotential
 

XC parameters: PBE with 2 nearest neighbor stencil

Memory estimate:
  Process memory now: 263.62 MiB
  Calculator: 1062.64 MiB
    Density: 5.44 MiB
      Arrays: 2.05 MiB
      Localized functions: 2.57 MiB
      Mixer: 0.82 MiB
    Hamiltonian: 1.60 MiB
      Arrays: 1.52 MiB
      XC: 0.00 MiB
      Poisson: 0.00 MiB
      vbar: 0.08 MiB
    Wavefunctions: 1055.59 MiB
      Arrays psit_nG: 774.57 MiB
      Eigensolver: 270.45 MiB
      Projections: 5.49 MiB
      Projectors: 0.70 MiB
      PW-descriptor: 4.38 MiB

Total number of cores used: 30
Parallelization over k-points: 2
Domain decomposition: 5 x 3 x 1

Number of atoms: 108
Number of atomic orbitals: 1025
Number of bands in calculation: 703
Number of valence electrons: 1020
Bands to converge: occupied

... initialized

Initializing position-dependent things.

Density initialized from atomic densities
Creating initial wave functions:
  703 bands from LCAO basis set

        Ni------------------------.  
       /|  Co                Co   |  
      Cr|   Ni         Cr         |  
     / Fe      Fe       Al        |  
    /   CCo      Ni       Fe      |  
   /e   | CoNi     CoAl    NiCr   |  
  /  FeCr  NiCo     NiCrCo        |  
 *    FeFe  FeCoCr     CoAl       |  
 |     CoFeCr  CoFe Cr  CrFeCr    |  
 | Fe   CrNiNiCo NiNiCrFe  Ni     |  
 |   CoNi  NiAlNi   NiCrCr   Fe   |  
 |    FeCr  FeFeCoNi CoFeNi   Cr  |  
 |     CrFeFe  Ni CrCr  CoFeFe    |  
 |      .-CoCrCo-FeCrCrCo--CoCr---.  
 |   NiCo    CoAl   NiNiFe       /   
 |    / Cr    NiFe       Cr     /    
 |   /            Ni           /     
 |Cr/      Co       Co        /      
 | /                         /       
 |/            Ni           /        
 *----------------Ni-------*         

Positions:
   0 Ni     0.005316   -0.016350   10.639749    ( 0.0000,  0.0000,  0.0000)
   1 Cr    10.672340    1.801276    1.786848    ( 0.0000,  0.0000,  0.0000)
   2 Fe     1.795727   10.625972    1.782259    ( 0.0000,  0.0000,  0.0000)
   3 Cr     1.780787    1.796175   10.644605    ( 0.0000,  0.0000,  2.1000)
   4 Fe     3.523539   -0.014558    0.017268    ( 0.0000,  0.0000,  2.0000)
   5 Co     3.522568    1.781672    1.746648    ( 0.0000,  0.0000,  0.0000)
   6 Co     5.320952   10.642342    1.763136    ( 0.0000,  0.0000,  1.5000)
   7 Ni     5.342082    1.828767    0.007462    ( 0.0000,  0.0000,  2.0000)
   8 Ni     7.144895    0.019195    0.012033    ( 0.0000,  0.0000,  0.0000)
   9 Co     7.143497    1.798064    1.764939    ( 0.0000,  0.0000,  2.1000)
  10 Cr     8.891362   10.651627    1.788353    ( 0.0000,  0.0000,  1.5000)
  11 Co     8.888779    1.804777   10.642609    ( 0.0000,  0.0000,  2.0000)
  12 Fe     0.008694    3.581540   10.650250    ( 0.0000,  0.0000,  2.1000)
  13 Ni     0.018979    5.332745    1.789751    ( 0.0000,  0.0000,  2.1000)
  14 Cr     1.778129    3.600941    1.760019    ( 0.0000,  0.0000,  2.0000)
  15 Co     1.790423    5.343267   -0.017766    ( 0.0000,  0.0000,  2.0000)
  16 Ni     3.542802    3.589864   -0.015614    ( 0.0000,  0.0000,  2.0000)
  17 Co     3.526837    5.358538    1.765793    ( 0.0000,  0.0000,  2.0000)
  18 Fe     5.336650    3.606501    1.755815    ( 0.0000,  0.0000,  0.0000)
  19 Ni     5.300399    5.323642   -0.012797    ( 0.0000,  0.0000,  2.1000)
  20 Al     7.122858    3.584816   10.659524    ( 0.0000,  0.0000,  2.0000)
  21 Ni     7.120500    5.315168    1.805502    ( 0.0000,  0.0000,  1.5000)
  22 Cr     8.892034    3.590952    1.773146    ( 0.0000,  0.0000,  2.1000)
  23 Fe     8.925340    5.301487   -0.003100    ( 0.0000,  0.0000,  0.0000)
  24 Cr     0.023055    7.096680   -0.007939    ( 0.0000,  0.0000,  0.0000)
  25 Cr     0.019141    8.871245    1.787510    ( 0.0000,  0.0000,  1.5000)
  26 Co     1.784372    7.104567    1.776443    ( 0.0000,  0.0000,  2.0000)
  27 Co     1.779944    8.867628   10.659406    ( 0.0000,  0.0000,  1.5000)
  28 Ni     3.547785    7.097897    0.009215    ( 0.0000,  0.0000,  2.1000)
  29 Ni     3.541137    8.858109    1.788225    ( 0.0000,  0.0000,  2.1000)
  30 Cr     5.295105    7.099391    1.787894    ( 0.0000,  0.0000,  2.1000)
  31 Ni     5.303685    8.873828    0.029898    ( 0.0000,  0.0000,  0.0000)
  32 Cr     7.106883    7.088719   10.645159    ( 0.0000,  0.0000,  0.0000)
  33 Co     7.111055    8.901137    1.809472    ( 0.0000,  0.0000,  0.0000)
  34 Co     8.939384    7.093404    1.799238    ( 0.0000,  0.0000,  0.0000)
  35 Co     8.919972    8.915853   10.664881    ( 0.0000,  0.0000,  0.0000)
  36 Cr    10.679704   10.658873    3.584517    ( 0.0000,  0.0000,  2.0000)
  37 Fe    10.670921    1.796367    5.340289    ( 0.0000,  0.0000,  2.1000)
  38 Fe     1.770350   10.649001    5.343491    ( 0.0000,  0.0000,  0.0000)
  39 Co     1.791800    1.784671    3.584891    ( 0.0000,  0.0000,  2.0000)
  40 Ni     3.529718   10.626388    3.565234    ( 0.0000,  0.0000,  2.1000)
  41 Fe     3.535716    1.793465    5.367289    ( 0.0000,  0.0000,  1.5000)
  42 Co     5.311497    0.001574    5.366254    ( 0.0000,  0.0000,  1.5000)
  43 Al     5.332627    1.768055    3.580793    ( 0.0000,  0.0000,  0.0000)
  44 Ni     7.136966   10.673941    3.563804    ( 0.0000,  0.0000,  2.0000)
  45 Cr     7.136774    1.794126    5.358944    ( 0.0000,  0.0000,  2.1000)
  46 Co     8.925938   10.673621    5.347589    ( 0.0000,  0.0000,  2.0000)
  47 Fe     8.883827    1.779111    3.582404    ( 0.0000,  0.0000,  1.5000)
  48 Cr    -0.010038    3.572341    3.580996    ( 0.0000,  0.0000,  2.0000)
  49 Co    10.685573    5.328935    5.338550    ( 0.0000,  0.0000,  2.0000)
  50 Cr     1.784180    3.582949    5.348357    ( 0.0000,  0.0000,  1.5000)
  51 Fe     1.766326    5.339510    3.565255    ( 0.0000,  0.0000,  1.5000)
  52 Cr     3.522387    3.605007    3.574059    ( 0.0000,  0.0000,  0.0000)
  53 Al     3.543581    5.347343    5.347962    ( 0.0000,  0.0000,  2.1000)
  54 Co     5.333950    3.591678    5.360630    ( 0.0000,  0.0000,  2.0000)
  55 Cr     5.336458    5.346308    3.560132    ( 0.0000,  0.0000,  0.0000)
  56 Cr     7.143102    3.570089    3.572138    ( 0.0000,  0.0000,  2.1000)
  57 Cr     7.120265    5.347471    5.345689    ( 0.0000,  0.0000,  2.0000)
  58 Ni     8.888299    3.570665    5.342018    ( 0.0000,  0.0000,  1.5000)
  59 Fe     8.904573    5.339084    3.577453    ( 0.0000,  0.0000,  2.0000)
  60 Fe     0.020297    7.105111    3.565266    ( 0.0000,  0.0000,  0.0000)
  61 Co     0.010839    8.875973    5.335359    ( 0.0000,  0.0000,  1.5000)
  62 Ni     1.776144    7.099124    5.335530    ( 0.0000,  0.0000,  2.0000)
  63 Ni     1.782707    8.879996    3.566664    ( 0.0000,  0.0000,  1.5000)
  64 Fe     3.540379    7.112901    3.549920    ( 0.0000,  0.0000,  2.1000)
  65 Co     3.550165    8.855643    5.319490    ( 0.0000,  0.0000,  2.1000)
  66 Ni     5.302320    7.072776    5.331720    ( 0.0000,  0.0000,  1.5000)
  67 Ni     5.308712    8.888715    3.547198    ( 0.0000,  0.0000,  2.0000)
  68 Fe     7.110436    7.091110    3.542599    ( 0.0000,  0.0000,  1.5000)
  69 Cr     7.111322    8.868257    5.343331    ( 0.0000,  0.0000,  0.0000)
  70 Ni     8.928819    7.090939    5.344996    ( 0.0000,  0.0000,  1.5000)
  71 Fe     8.912748    8.874735    3.555853    ( 0.0000,  0.0000,  2.0000)
  72 Co     0.013232   10.658937    7.109743    ( 0.0000,  0.0000,  0.0000)
  73 Cr    10.669470    1.787435    8.884158    ( 0.0000,  0.0000,  2.0000)
  74 Ni     1.768674   10.665478    8.879922    ( 0.0000,  0.0000,  2.0000)
  75 Ni     1.779645    1.805428    7.118291    ( 0.0000,  0.0000,  0.0000)
  76 Fe     3.512206   10.665905    7.084504    ( 0.0000,  0.0000,  0.0000)
  77 Cr     3.526218    1.824316    8.898021    ( 0.0000,  0.0000,  0.0000)
  78 Co     5.331144    0.023495    8.896708    ( 0.0000,  0.0000,  0.0000)
  79 Ni     5.335252    1.825362    7.095656    ( 0.0000,  0.0000,  2.1000)
  80 Ni     7.148524    0.023834    7.114139    ( 0.0000,  0.0000,  0.0000)
  81 Cr     7.139922    1.808384    8.892706    ( 0.0000,  0.0000,  2.1000)
  82 Fe     8.906836    0.013024    8.882259    ( 0.0000,  0.0000,  2.1000)
  83 Cr     8.894083    1.797691    7.127959    ( 0.0000,  0.0000,  0.0000)
  84 Fe     0.021840    3.574998    7.113777    ( 0.0000,  0.0000,  1.5000)
  85 Fe     0.023462    5.326566    8.882152    ( 0.0000,  0.0000,  1.5000)
  86 Fe     1.768098    3.569908    8.891692    ( 0.0000,  0.0000,  2.1000)
  87 Fe     1.775205    5.350033    7.118739    ( 0.0000,  0.0000,  2.1000)
  88 Ni     3.546355    3.587879    7.119902    ( 0.0000,  0.0000,  2.1000)
  89 Co     3.540272    5.336074    8.886271    ( 0.0000,  0.0000,  2.1000)
  90 Cr     5.331998    3.563526    8.882088    ( 0.0000,  0.0000,  1.5000)
  91 Fe     5.316310    5.330738    7.117095    ( 0.0000,  0.0000,  1.5000)
  92 Cr     7.104076    3.574977    7.111546    ( 0.0000,  0.0000,  1.5000)
  93 Cr     7.108740    5.307762    8.854395    ( 0.0000,  0.0000,  1.5000)
  94 Al     8.907593    3.561296    8.890348    ( 0.0000,  0.0000,  2.1000)
  95 Fe     8.917806    5.336309    7.100224    ( 0.0000,  0.0000,  0.0000)
  96 Fe     0.016270    7.102027    7.111664    ( 0.0000,  0.0000,  2.0000)
  97 Fe     0.000822    8.895150    8.883817    ( 0.0000,  0.0000,  1.5000)
  98 Co     1.771182    7.105090    8.888608    ( 0.0000,  0.0000,  1.5000)
  99 Ni     1.775184    8.850318    7.108494    ( 0.0000,  0.0000,  2.0000)
 100 Co     3.530401    7.086478    7.104972    ( 0.0000,  0.0000,  1.5000)
 101 Fe     3.524841    8.851001    8.894798    ( 0.0000,  0.0000,  0.0000)
 102 Co     5.310654    7.102827    8.871128    ( 0.0000,  0.0000,  0.0000)
 103 Ni     5.290613    8.850286    7.104876    ( 0.0000,  0.0000,  0.0000)
 104 Co     7.129016    7.083330    7.142750    ( 0.0000,  0.0000,  2.1000)
 105 Al     7.143241    8.903186    8.854384    ( 0.0000,  0.0000,  2.0000)
 106 Ni     8.926504    7.115858    8.862313    ( 0.0000,  0.0000,  0.0000)
 107 Cr     8.932896    8.877648    7.127479    ( 0.0000,  0.0000,  1.5000)

Unit cell:
           periodic     x           y           z      points  spacing
  1. axis:    yes   10.671700    0.000000    0.000000    48     0.2223
  2. axis:    yes    0.000000   10.671700    0.000000    48     0.2223
  3. axis:    yes    0.000000    0.000000   10.671700    48     0.2223

  Lengths:  10.671700  10.671700  10.671700
  Angles:   90.000000  90.000000  90.000000

Effective grid spacing dv^(1/3) = 0.2223

     iter     time        total  log10-change:  magmom
                         energy  eigst   dens
iter:   1 23:51:37  -959.625763                  +143.1616
iter:   2 23:54:49  -994.742597  -0.41  -1.29    +108.4965
iter:   3 23:57:17  -898.095908  -0.81  -1.23    +79.0366
iter:   4 23:59:44  -874.129126  -1.36  -1.36    +66.0612
iter:   5 00:02:12  -874.325411  -1.86  -1.47    +59.1808
iter:   6 00:04:41  -877.131869  -1.90  -1.48    +56.7363
iter:   7 00:07:09  -870.685310  -1.77  -1.48    +55.2647
iter:   8 00:09:36  -869.880379  -1.62  -1.58    +55.1176
iter:   9 00:12:04  -871.966292  -1.82  -1.71    +54.7977
iter:  10 00:15:25  -871.079585  -2.05  -1.73    +54.4572
iter:  11 00:18:17  -867.666931  -2.21  -1.75    +55.5552
iter:  12 00:20:45  -868.653334  -2.44  -1.87    +56.4046
iter:  13 00:23:13  -867.198686  -2.59  -1.87    +57.0480
iter:  14 00:25:41  -866.887991  -2.77  -1.94    +58.1601
iter:  15 00:28:10  -867.824706  -2.87  -1.97    +59.7358
iter:  16 00:30:38  -869.122274  -2.58  -1.97    +61.2888
iter:  17 00:33:07  -869.153018  -2.55  -1.95    +61.9405
iter:  18 00:35:35  -869.722813  -2.56  -1.99    +63.0147
iter:  19 00:38:03  -869.306377  -2.55  -1.98    +64.1809
iter:  20 00:40:31  -868.956098  -2.68  -2.04    +65.0185
iter:  21 00:42:59  -868.534081  -3.04  -2.06    +65.8031
iter:  22 00:45:27  -868.883549  -3.05  -2.15    +66.7480
iter:  23 00:47:55  -868.719342  -3.27  -2.12    +67.4456
iter:  24 00:50:23  -868.946411  -3.33  -2.17    +68.2567
iter:  25 00:52:51  -869.189585  -3.22  -2.19    +68.6857
iter:  26 00:55:19  -870.075885  -2.85  -2.21    +69.3002
iter:  27 00:57:54  -869.665760  -2.94  -2.14    +69.5711
iter:  28 01:01:29  -870.486263  -2.80  -2.23    +70.0206
iter:  29 01:03:57  -869.862712  -2.90  -2.16    +69.8704
iter:  30 01:06:25  -869.641706  -3.06  -2.27    +70.1281
iter:  31 01:08:54  -869.311154  -3.52  -2.30    +70.4283
iter:  32 01:11:22  -869.308229  -3.85  -2.41    +70.4079
iter:  33 01:13:51  -869.292220c -4.20  -2.43    +70.6083
iter:  34 01:16:19  -869.428577  -4.02  -2.47    +70.6458
iter:  35 01:18:47  -869.585407  -3.66  -2.46    +70.6561
iter:  36 01:21:16  -869.914589  -3.23  -2.47    +70.4875
iter:  37 01:23:44  -869.787846  -3.25  -2.38    +70.4167
iter:  38 01:26:13  -869.788104  -3.28  -2.46    +70.7915
iter:  39 01:28:42  -869.665110  -3.39  -2.49    +70.5229
iter:  40 01:31:10  -869.513603  -3.80  -2.54    +70.3776
iter:  41 01:33:39  -869.478363  -4.28  -2.69    +70.3147
iter:  42 01:36:07  -869.472926c -4.50  -2.79    +70.3509
iter:  43 01:38:36  -869.486293c -4.89  -2.82    +70.2583
iter:  44 01:41:58  -869.516608c -4.52  -2.85    +70.1326
iter:  45 01:44:50  -869.645014  -3.82  -2.84    +70.1362
iter:  46 01:47:19  -869.571783  -3.97  -2.68    +70.1164
iter:  47 01:49:47  -869.565125c -4.13  -2.87    +69.9080
iter:  48 01:52:16  -869.591930c -4.03  -2.92    +69.6959
iter:  49 01:54:45  -869.536737c -4.35  -2.87    +69.6114
iter:  50 01:57:13  -869.534939c -4.84  -3.08    +69.6535
iter:  51 01:59:42  -869.541651c -5.32  -3.28    +69.5656
iter:  52 02:02:12  -869.554236c -5.07  -3.29    +69.4481
iter:  53 02:04:41  -869.554691c -5.23  -3.25    +69.4476
iter:  54 02:07:09  -869.562364c -5.12  -3.21    +69.2757
iter:  55 02:09:38  -869.561913c -5.84  -3.26    +69.3214
iter:  56 02:12:07  -869.585640c -4.82  -3.25    +69.1531
iter:  57 02:14:35  -869.574191c -4.71  -3.18    +69.2910
iter:  58 02:17:04  -869.583531c -4.64  -3.11    +69.1644
iter:  59 02:19:33  -869.584767c -4.78  -3.14    +69.1473
iter:  60 02:22:02  -869.587419c -4.87  -3.21    +68.9502
iter:  61 02:24:31  -869.584670c -5.43  -3.26    +68.9306
iter:  62 02:26:58  -869.594870c -4.87  -3.42    +68.7566
iter:  63 02:29:26  -869.599526c -4.99  -3.29    +68.7989
iter:  64 02:31:55  -869.608491c -4.87  -3.32    +68.7911
iter:  65 02:34:24  -869.604765c -5.33  -3.35    +68.7702
iter:  66 02:36:52  -869.620079c -4.80  -3.60    +68.6939
iter:  67 02:40:24  -869.612968c -5.20  -3.29    +68.5919
iter:  68 02:43:05  -869.619194c -5.46  -3.64    +68.5088
iter:  69 02:45:34  -869.620947c -5.81  -3.62    +68.5578
iter:  70 02:48:02  -869.631031c -5.27  -3.47    +68.4357
iter:  71 02:50:31  -869.619472c -5.37  -3.46    +68.6225
iter:  72 02:53:00  -869.613017c -5.19  -3.58    +68.8027
iter:  73 02:55:29  -869.621700c -5.33  -3.58    +68.5823
iter:  74 02:57:57  -869.620286c -6.03  -3.66    +68.5991
iter:  75 03:00:26  -869.629434c -5.33  -3.63    +68.4840
iter:  76 03:02:55  -869.628785c -5.49  -3.60    +68.5095
iter:  77 03:05:22  -869.636606c -5.23  -3.41    +68.4508
iter:  78 03:07:52  -869.638468c -5.51  -3.52    +68.4433
iter:  79 03:10:21  -869.642831c -5.28  -3.40    +68.2750
iter:  80 03:12:49  -869.646353c -5.50  -3.50    +68.2451
iter:  81 03:15:18  -869.648625c -5.46  -3.43    +68.2060
iter:  82 03:18:41  -869.658578c -4.75  -3.43    +68.0921
iter:  83 03:21:28  -869.657864c -4.99  -3.21    +68.0932
iter:  84 03:23:56  -869.663036c -4.96  -3.39    +68.0988
iter:  85 03:26:24  -869.661760c -5.33  -3.38    +68.0223
iter:  86 03:28:53  -869.666266c -5.52  -3.56    +67.9551
iter:  87 03:31:21  -869.672772c -5.41  -3.56    +67.8903
iter:  88 03:33:50  -869.632488c -4.00  -3.51    +68.3447
iter:  89 03:36:19  -869.635386c -5.19  -3.64    +68.2880
iter:  90 03:38:48  -869.639537c -5.70  -3.68    +68.2594
iter:  91 03:41:17  -869.638200c -6.09  -3.68    +68.3102
iter:  92 03:43:46  -869.645180c -5.49  -3.74    +68.2065
iter:  93 03:46:15  -869.638418c -5.60  -3.69    +68.3195
iter:  94 03:48:44  -869.622398c -4.56  -3.75    +68.5699
iter:  95 03:51:12  -869.614219c -4.67  -3.69    +68.6880
iter:  96 03:53:40  -869.606021c -4.64  -3.64    +68.7319
iter:  97 03:56:09  -869.606768c -5.11  -3.67    +68.6806
iter:  98 03:58:36  -869.609877c -5.20  -3.73    +68.5986
iter:  99 04:01:05  -869.614763c -5.03  -3.75    +68.4723
iter: 100 04:03:34  -869.613562c -5.59  -3.67    +68.5136
iter: 101 04:06:02  -869.617108c -5.07  -3.69    +68.3222
iter: 102 04:08:30  -869.624509c -4.51  -3.66    +67.9881
iter: 103 04:10:59  -869.621701c -5.25  -3.41    +68.2280
iter: 104 04:14:40  -869.629208c -4.54  -3.58    +67.8626
iter: 105 04:17:12  -869.630182c -5.48  -3.32    +68.0421
iter: 106 04:19:40  -869.632995c -5.36  -3.40    +67.9303
iter: 107 04:22:10  -869.642291c -4.92  -3.35    +67.8373
iter: 108 04:24:38  -869.636455c -5.66  -3.22    +67.9015
iter: 109 04:27:07  -869.644903c -5.17  -3.30    +67.8749
iter: 110 04:29:35  -869.639573c -5.42  -3.23    +67.8958
iter: 111 04:32:03  -869.639974c -4.57  -3.23    +67.9279
iter: 112 04:34:32  -869.635190c -5.29  -3.31    +67.9462
iter: 113 04:37:00  -869.642260c -4.94  -3.44    +67.8877
iter: 114 04:39:28  -869.635249c -5.38  -3.32    +67.9108
iter: 115 04:41:57  -869.638927c -5.41  -3.60    +67.9259
iter: 116 04:44:25  -869.643447c -5.42  -3.58    +67.9815
iter: 117 04:46:54  -869.643088c -5.57  -3.62    +67.9762
iter: 118 04:49:31  -869.646557c -5.44  -3.60    +67.9904
iter: 119 04:53:02  -869.647456c -5.71  -3.66    +68.0047
iter: 120 04:55:31  -869.650186c -5.55  -3.80    +67.9873
iter: 121 04:58:00  -869.649989c -5.97  -3.82    +67.9817
iter: 122 05:00:29  -869.652595c -5.69  -3.79    +67.9679
iter: 123 05:02:58  -869.654573c -6.02  -3.95    +67.9659
iter: 124 05:05:26  -869.655687c -6.03  -3.87    +67.9780
iter: 125 05:07:55  -869.658382c -5.88  -3.96    +67.9542
iter: 126 05:10:25  -869.647996c -4.97  -3.93    +68.0825
iter: 127 05:12:54  -869.630612c -4.24  -3.94    +68.3322
iter: 128 05:15:22  -869.624691c -4.42  -3.68    +68.5160
iter: 129 05:17:51  -869.622392c -4.26  -3.54    +68.7829
iter: 130 05:20:20  -869.622871c -5.26  -3.40    +68.7517
iter: 131 05:22:49  -869.623956c -5.56  -3.43    +68.7565
iter: 132 05:25:19  -869.625624c -5.59  -3.43    +68.7917
iter: 133 05:27:47  -869.632904c -5.10  -3.43    +68.8161
iter: 134 05:30:16  -869.636166c -4.35  -3.25    +68.8081
iter: 135 05:32:45  -869.624060c -4.56  -3.12    +68.7472
iter: 136 05:35:12  -869.616408c -5.19  -3.25    +68.7413
iter: 137 05:37:41  -869.617931c -5.46  -3.71    +68.6859
iter: 138 05:40:11  -869.620109c -5.33  -3.61    +68.6546
iter: 139 05:42:39  -869.620788c -5.63  -3.59    +68.6471
iter: 140 05:45:08  -869.621903c -5.69  -3.85    +68.6186
iter: 141 05:47:36  -869.623530c -5.76  -3.85    +68.6001
iter: 142 05:51:18  -869.623539c -6.08  -3.85    +68.5908
iter: 143 05:53:50  -869.627005c -5.66  -3.96    +68.5816
iter: 144 05:56:19  -869.626877c -6.03  -3.86    +68.5647
iter: 145 05:58:49  -869.628128c -5.89  -4.01c   +68.5302
iter: 146 06:01:17  -869.628740c -6.41  -4.07c   +68.5225
iter: 147 06:03:45  -869.630456c -6.00  -4.16c   +68.5049
iter: 148 06:06:14  -869.630986c -6.48  -4.19c   +68.4957
iter: 149 06:08:43  -869.633557c -5.81  -4.25c   +68.4612
iter: 150 06:12:06  -869.609788c -3.84  -4.21c   +68.8353
iter: 151 06:14:58  -869.605371c -4.13  -3.71    +68.9892
iter: 152 06:17:27  -869.607814c -5.17  -3.55    +68.8999
iter: 153 06:19:56  -869.609808c -5.18  -3.61    +68.8084
iter: 154 06:22:25  -869.610614c -5.84  -3.68    +68.7793
iter: 155 06:24:54  -869.610473c -6.25  -3.70    +68.8063
iter: 156 06:27:22  -869.610887c -6.02  -3.67    +68.7912
iter: 157 06:29:51  -869.609222c -6.29  -3.61    +68.7994
iter: 158 06:32:20  -869.610959c -5.15  -3.68    +68.7820
iter: 159 06:34:48  -869.608174c -4.98  -3.33    +68.7799
iter: 160 06:37:17  -869.605880c -5.51  -3.50    +68.7923
iter: 161 06:39:46  -869.607632c -5.76  -3.77    +68.7303
iter: 162 06:42:14  -869.608233c -6.10  -3.86    +68.7266
iter: 163 06:44:43  -869.611361c -5.57  -3.81    +68.6885
iter: 164 06:47:11  -869.612039c -5.53  -3.76    +68.6408
iter: 165 06:49:40  -869.613097c -5.75  -3.84    +68.6403
iter: 166 06:52:09  -869.613488c -6.13  -3.93    +68.6451
iter: 167 06:54:48  -869.615089c -5.83  -3.95    +68.6162
iter: 168 06:58:18  -869.616274c -6.02  -4.07c   +68.6005
iter: 169 07:00:46  -869.616496c -6.40  -4.10c   +68.5905
iter: 170 07:03:14  -869.620075c -5.53  -4.33c   +68.5658
iter: 171 07:05:44  -869.617337c -5.88  -4.26c   +68.5944
iter: 172 07:08:13  -869.612909c -5.21  -4.20c   +68.6293
iter: 173 07:10:42  -869.615475c -6.21  -4.00    +68.6114
iter: 174 07:13:10  -869.612644c -5.83  -4.11c   +68.6370
iter: 175 07:15:38  -869.606617c -4.91  -3.99    +68.7043
iter: 176 07:18:23  -869.596504c -4.21  -3.75    +68.8592
iter: 177 07:21:49  -869.598805c -5.45  -3.49    +68.8229
iter: 178 07:24:17  -869.598723c -5.91  -3.60    +68.8162
iter: 179 07:26:46  -869.598537c -6.01  -3.58    +68.7948
iter: 180 07:29:14  -869.600882c -5.56  -3.57    +68.7948
iter: 181 07:31:42  -869.602554c -4.98  -3.47    +68.7952
iter: 182 07:34:11  -869.600372c -4.94  -3.40    +68.7653
iter: 183 07:36:39  -869.597921c -5.38  -3.47    +68.7257
iter: 184 07:39:06  -869.600249c -5.46  -3.65    +68.6836
iter: 185 07:41:35  -869.599816c -6.04  -3.68    +68.6845
iter: 186 07:44:02  -869.601122c -5.51  -3.83    +68.6250
iter: 187 07:47:43  -869.603214c -5.61  -3.83    +68.6275
iter: 188 07:50:13  -869.602725c -6.05  -3.92    +68.6363
iter: 189 07:52:42  -869.603888c -6.03  -3.88    +68.6212
iter: 190 07:55:12  -869.604497c -6.15  -3.94    +68.6177
iter: 191 07:57:40  -869.605796c -5.73  -3.99    +68.5795
iter: 192 08:00:09  -869.604415c -6.25  -4.10c   +68.5974
iter: 193 08:02:37  -869.604365c -5.85  -4.11c   +68.6616
iter: 194 08:05:05  -869.606433c -6.01  -4.02c   +68.6261
iter: 195 08:07:34  -869.596215c -4.52  -4.17c   +68.7956
iter: 196 08:10:03  -869.595677c -5.01  -3.69    +68.8319
iter: 197 08:12:32  -869.594581c -5.42  -3.57    +68.8129
iter: 198 08:15:00  -869.593453c -5.90  -3.55    +68.7950
iter: 199 08:17:29  -869.593286c -6.39  -3.55    +68.8010
iter: 200 08:19:56  -869.591711c -5.54  -3.60    +68.7765
iter: 201 08:23:00  -869.586832c -5.38  -3.60    +68.8164
iter: 202 08:26:08  -869.593855c -5.05  -3.62    +68.7190
iter: 203 08:28:36  -869.592644c -5.47  -3.67    +68.7144
iter: 204 08:31:05  -869.595621c -5.43  -3.64    +68.6417
iter: 205 08:33:33  -869.600517c -5.03  -3.86    +68.5024
iter: 206 08:36:02  -869.605024c -5.21  -3.80    +68.4249
iter: 207 08:38:30  -869.600043c -5.60  -3.68    +68.5153
iter: 208 08:40:59  -869.588149c -4.52  -3.82    +68.7498
iter: 209 08:43:27  -869.588641c -5.53  -3.85    +68.7596
iter: 210 08:45:55  -869.589802c -6.00  -3.84    +68.6899
iter: 211 08:48:23  -869.593125c -5.40  -3.88    +68.5949
iter: 212 08:50:32  -869.596556c -5.22  -3.94    +68.4824
iter: 213 08:52:18  -869.591536c -5.23  -3.95    +68.6382
iter: 214 08:54:05  -869.583767c -4.39  -3.98    +68.9724
iter: 215 08:55:51  -869.591654c -4.69  -3.54    +68.6635
iter: 216 08:57:37  -869.595514c -5.00  -3.87    +68.5540
iter: 217 08:59:24  -869.591813c -5.68  -3.91    +68.6490
iter: 218 09:01:10  -869.593266c -6.35  -3.95    +68.6348
iter: 219 09:02:56  -869.595013c -5.75  -4.02c   +68.5866
iter: 220 09:04:43  -869.591488c -5.32  -4.10c   +68.6694
iter: 221 09:06:29  -869.596468c -5.08  -3.72    +68.5418
iter: 222 09:08:15  -869.592071c -5.29  -4.09c   +68.6425
iter: 223 09:10:01  -869.590202c -5.45  -4.02c   +68.6527
iter: 224 09:11:48  -869.593206c -5.52  -3.82    +68.5928
iter: 225 09:13:34  -869.588578c -5.24  -4.10c   +68.6332
iter: 226 09:15:20  -869.587169c -5.32  -3.95    +68.6241
iter: 227 09:17:06  -869.587525c -5.69  -3.84    +68.5663
iter: 228 09:18:53  -869.587261c -6.01  -3.68    +68.5955
iter: 229 09:20:39  -869.588211c -6.06  -3.98    +68.5479
iter: 230 09:22:25  -869.587876c -5.86  -4.02c   +68.5895
iter: 231 09:24:11  -869.590240c -5.22  -3.81    +68.4980
iter: 232 09:25:58  -869.590578c -5.98  -3.88    +68.4704
iter: 233 09:27:45  -869.591750c -5.91  -4.07c   +68.4315
iter: 234 09:29:33  -869.592474c -6.11  -4.07c   +68.3967
iter: 235 09:31:20  -869.595603c -5.36  -4.17c   +68.3008
iter: 236 09:33:08  -869.585582c -4.48  -3.92    +68.5920
iter: 237 09:34:55  -869.587377c -5.97  -3.89    +68.5381
iter: 238 09:36:43  -869.588367c -6.11  -4.10c   +68.4842
iter: 239 09:38:31  -869.591347c -5.29  -4.17c   +68.3538
iter: 240 09:40:18  -869.592140c -5.88  -4.15c   +68.3178
iter: 241 09:42:06  -869.593714c -5.72  -4.13c   +68.2619
iter: 242 09:43:54  -869.590736c -5.56  -4.03c   +68.3560
iter: 243 09:45:41  -869.587338c -4.88  -4.18c   +68.5128
iter: 244 09:47:29  -869.590178c -5.35  -3.94    +68.3745
iter: 245 09:49:17  -869.591602c -5.61  -4.36c   +68.3142
iter: 246 09:51:04  -869.590954c -6.94  -4.26c   +68.3322
iter: 247 09:52:52  -869.591305c -6.93  -4.58c   +68.3206
iter: 248 09:54:40  -869.592428c -6.06  -4.54c   +68.2712
iter: 249 09:56:27  -869.591149c -6.18  -4.40c   +68.3295
iter: 250 09:58:15  -869.590198c -6.11  -4.63c   +68.3765
iter: 251 10:00:02  -869.594002c -5.14  -4.62c   +68.1942
iter: 252 10:01:50  -869.591038c -5.45  -4.21c   +68.3448
iter: 253 10:03:38  -869.592810c -5.94  -4.58c   +68.2627
iter: 254 10:05:25  -869.588494c -5.09  -4.38c   +68.4474
iter: 255 10:07:13  -869.590477c -5.97  -4.42c   +68.3634
iter: 256 10:09:00  -869.592636c -5.56  -4.64c   +68.2762
iter: 257 10:10:48  -869.589171c -5.36  -4.40c   +68.4109
iter: 258 10:12:35  -869.589558c -6.91  -4.57c   +68.3894
iter: 259 10:14:23  -869.590332c -6.45  -4.68c   +68.3546
iter: 260 10:16:10  -869.590279c -7.87c -4.63c   +68.3581

Converged after 260 iterations.

Dipole moment: (-10.530952, 8.046887, 8.903935) |e|*Ang

Total magnetic moment: (0.000000, 0.000000, 68.358056)
Local magnetic moments:
   0 Ni ( 0.000000,  0.000000,  0.144380)
   1 Cr ( 0.000000,  0.000000,  0.143533)
   2 Fe ( 0.000000,  0.000000,  2.175831)
   3 Cr ( 0.000000,  0.000000, -0.425298)
   4 Fe ( 0.000000,  0.000000,  2.317582)
   5 Co ( 0.000000,  0.000000,  1.051306)
   6 Co ( 0.000000,  0.000000,  1.629878)
   7 Ni ( 0.000000,  0.000000,  0.332378)
   8 Ni ( 0.000000,  0.000000,  0.384296)
   9 Co ( 0.000000,  0.000000,  1.100388)
  10 Cr ( 0.000000,  0.000000, -0.412768)
  11 Co ( 0.000000,  0.000000,  0.338938)
  12 Fe ( 0.000000,  0.000000,  1.541530)
  13 Ni ( 0.000000,  0.000000,  0.257206)
  14 Cr ( 0.000000,  0.000000, -0.678263)
  15 Co ( 0.000000,  0.000000,  1.248556)
  16 Ni ( 0.000000,  0.000000,  0.275920)
  17 Co ( 0.000000,  0.000000,  0.907225)
  18 Fe ( 0.000000,  0.000000,  2.217949)
  19 Ni ( 0.000000,  0.000000,  0.276560)
  20 Al ( 0.000000,  0.000000, -0.017013)
  21 Ni ( 0.000000,  0.000000,  0.137382)
  22 Cr ( 0.000000,  0.000000, -0.624370)
  23 Fe ( 0.000000,  0.000000,  1.641687)
  24 Cr ( 0.000000,  0.000000, -1.616105)
  25 Cr ( 0.000000,  0.000000, -0.881205)
  26 Co ( 0.000000,  0.000000,  1.342932)
  27 Co ( 0.000000,  0.000000,  1.303035)
  28 Ni ( 0.000000,  0.000000,  0.475309)
  29 Ni ( 0.000000,  0.000000,  0.512678)
  30 Cr ( 0.000000,  0.000000,  0.940917)
  31 Ni ( 0.000000,  0.000000,  0.438092)
  32 Cr ( 0.000000,  0.000000, -0.052097)
  33 Co ( 0.000000,  0.000000,  1.315844)
  34 Co ( 0.000000,  0.000000,  0.987423)
  35 Co ( 0.000000,  0.000000,  0.794162)
  36 Cr ( 0.000000,  0.000000, -0.159046)
  37 Fe ( 0.000000,  0.000000,  1.874986)
  38 Fe ( 0.000000,  0.000000, -1.984631)
  39 Co ( 0.000000,  0.000000,  0.194504)
  40 Ni ( 0.000000,  0.000000,  0.356133)
  41 Fe ( 0.000000,  0.000000,  2.232870)
  42 Co ( 0.000000,  0.000000,  1.214108)
  43 Al ( 0.000000,  0.000000, -0.033939)
  44 Ni ( 0.000000,  0.000000,  0.290387)
  45 Cr ( 0.000000,  0.000000,  0.277356)
  46 Co ( 0.000000,  0.000000,  0.835386)
  47 Fe ( 0.000000,  0.000000,  1.592160)
  48 Cr ( 0.000000,  0.000000, -0.372408)
  49 Co ( 0.000000,  0.000000,  1.189855)
  50 Cr ( 0.000000,  0.000000, -1.455149)
  51 Fe ( 0.000000,  0.000000,  1.676867)
  52 Cr ( 0.000000,  0.000000,  0.694558)
  53 Al ( 0.000000,  0.000000, -0.028653)
  54 Co ( 0.000000,  0.000000,  0.236389)
  55 Cr ( 0.000000,  0.000000, -0.643585)
  56 Cr ( 0.000000,  0.000000, -0.419905)
  57 Cr ( 0.000000,  0.000000, -1.238282)
  58 Ni ( 0.000000,  0.000000,  0.145140)
  59 Fe ( 0.000000,  0.000000,  1.903223)
  60 Fe ( 0.000000,  0.000000,  2.314010)
  61 Co ( 0.000000,  0.000000,  1.239377)
  62 Ni ( 0.000000,  0.000000,  0.576586)
  63 Ni ( 0.000000,  0.000000,  0.381193)
  64 Fe ( 0.000000,  0.000000,  2.310326)
  65 Co ( 0.000000,  0.000000,  1.560028)
  66 Ni ( 0.000000,  0.000000,  0.250011)
  67 Ni ( 0.000000,  0.000000,  0.368884)
  68 Fe ( 0.000000,  0.000000,  2.143973)
  69 Cr ( 0.000000,  0.000000, -1.963965)
  70 Ni ( 0.000000,  0.000000,  0.261362)
  71 Fe ( 0.000000,  0.000000,  2.085015)
  72 Co ( 0.000000,  0.000000,  1.148526)
  73 Cr ( 0.000000,  0.000000, -0.522297)
  74 Ni ( 0.000000,  0.000000,  0.317636)
  75 Ni ( 0.000000,  0.000000,  0.244592)
  76 Fe ( 0.000000,  0.000000,  2.390753)
  77 Cr ( 0.000000,  0.000000, -1.589745)
  78 Co ( 0.000000,  0.000000,  1.338263)
  79 Ni ( 0.000000,  0.000000,  0.188592)
  80 Ni ( 0.000000,  0.000000,  0.083975)
  81 Cr ( 0.000000,  0.000000, -1.103040)
  82 Fe ( 0.000000,  0.000000,  1.862355)
  83 Cr ( 0.000000,  0.000000, -0.323535)
  84 Fe ( 0.000000,  0.000000,  1.857369)
  85 Fe ( 0.000000,  0.000000,  2.070840)
  86 Fe ( 0.000000,  0.000000,  1.891478)
  87 Fe ( 0.000000,  0.000000,  2.144376)
  88 Ni ( 0.000000,  0.000000,  0.200870)
  89 Co ( 0.000000,  0.000000,  1.461236)
  90 Cr ( 0.000000,  0.000000,  1.219472)
  91 Fe ( 0.000000,  0.000000,  1.962931)
  92 Cr ( 0.000000,  0.000000,  0.496838)
  93 Cr ( 0.000000,  0.000000, -1.031795)
  94 Al ( 0.000000,  0.000000, -0.019814)
  95 Fe ( 0.000000,  0.000000,  1.791796)
  96 Fe ( 0.000000,  0.000000,  2.329405)
  97 Fe ( 0.000000,  0.000000,  2.344221)
  98 Co ( 0.000000,  0.000000,  1.504098)
  99 Ni ( 0.000000,  0.000000,  0.527911)
 100 Co ( 0.000000,  0.000000,  1.480499)
 101 Fe ( 0.000000,  0.000000,  2.658512)
 102 Co ( 0.000000,  0.000000,  1.218610)
 103 Ni ( 0.000000,  0.000000,  0.395240)
 104 Co ( 0.000000,  0.000000,  0.744938)
 105 Al ( 0.000000,  0.000000, -0.020136)
 106 Ni ( 0.000000,  0.000000,  0.198629)
 107 Cr ( 0.000000,  0.000000, -1.416685)

Energy contributions relative to reference atoms: (reference = -3699400.456887)

Kinetic:       +135.596746
Potential:     -188.084134
External:        +0.000000
XC:            -852.643760
Entropy (-ST):   -4.613777
Local:          +37.847758
--------------------------
Free energy:   -871.897168
Extrapolated:  -869.590279

Spin contamination: 23.413828 electrons
Showing only first 2 kpts
                      Up                     Down
 Kpt  Band  Eigenvalues  Occupancy  Eigenvalues  Occupancy
  0   508      9.62039    0.99490     10.53351    0.02066
  0   509      9.62907    0.99444     10.54593    0.01829
  0   510      9.64254    0.99364     10.55685    0.01643
  0   511      9.65671    0.99268     10.57638    0.01356

  1   508      9.61736    0.99505     10.53680    0.02001
  1   509      9.62999    0.99438     10.56594    0.01502
  1   510      9.63835    0.99390     10.57569    0.01365
  1   511      9.64605    0.99341     10.57910    0.01320


Fermi level: 10.14765

Gap: 0.004 eV
Transition (v -> c):
  (s=1, k=2, n=475, [0.25, 0.25, -0.25]) -> (s=0, k=1, n=544, [0.25, -0.25, 0.25])

Forces in eV/Ang:
  0 Ni   -0.01830    0.35849    0.41545
  1 Cr    0.24885   -0.19226   -0.40699
  2 Fe   -0.26243    0.48352   -0.01492
  3 Cr   -0.14319   -0.32380    0.33456
  4 Fe    0.50507    0.32526   -0.17485
  5 Co   -0.04592    0.05651    0.13235
  6 Co    0.04385   -0.00126   -0.10839
  7 Ni   -0.18960   -0.57261    0.10237
  8 Ni   -0.34019    0.05145    0.01570
  9 Co    0.00035   -0.19950    0.24966
 10 Cr    0.10023    0.45600   -0.38659
 11 Co    0.31411   -0.51815    0.36227
 12 Fe    0.20562   -0.10304    0.74065
 13 Ni   -0.01020    0.11775   -0.20715
 14 Cr   -0.12589   -0.19333    0.12594
 15 Co    0.05990    0.01513    0.14730
 16 Ni   -0.00054   -0.13598    0.31331
 17 Co    0.04778   -0.13223   -0.07491
 18 Fe   -0.59254   -0.20693    0.39608
 19 Ni    0.09768    0.37604    0.15785
 20 Al   -0.66353   -0.07479    1.29099
 21 Ni    0.02244    0.53999   -0.45194
 22 Cr    1.11841   -0.42634    0.38176
 23 Fe   -0.08081    0.93709    0.37597
 24 Cr   -0.42901   -0.03883   -0.00011
 25 Cr   -0.16095    0.12019   -0.21396
 26 Co   -0.08398    0.02975   -0.11233
 27 Co   -0.05893    0.03072    0.20262
 28 Ni   -0.02871    0.01236   -0.20193
 29 Ni   -0.01308    0.11942   -0.12083
 30 Cr    0.34698   -0.10721   -0.38168
 31 Ni    0.35763    0.21528   -0.23607
 32 Cr    0.23715   -0.41218    1.02399
 33 Co    0.17603   -0.27023   -0.48784
 34 Co   -0.38950    0.15311   -0.38363
 35 Co   -0.25977   -0.43727    0.52334
 36 Cr   -0.03216    0.11784    0.18202
 37 Fe    0.21905   -0.13813   -0.14249
 38 Fe   -0.27086    0.22767   -0.25045
 39 Co   -0.02393   -0.02431   -0.12960
 40 Ni    0.24985    0.36923    0.00407
 41 Fe    0.00689   -0.15900   -0.04833
 42 Co    0.06781   -0.35246    0.20120
 43 Al   -0.24235   -0.61867   -0.51236
 44 Ni   -0.00955   -0.12475    0.14796
 45 Cr    0.31978   -0.04718    0.45284
 46 Co   -0.29021   -0.24212    0.08973
 47 Fe   -0.13367   -0.04980   -0.10169
 48 Cr   -0.09743   -0.18468   -0.19084
 49 Co   -0.07115    0.08144   -0.04358
 50 Cr   -0.78465   -0.89718   -0.12024
 51 Fe   -0.20549   -0.19600   -0.30288
 52 Cr   -0.17471   -0.23080   -0.71224
 53 Al    0.18155    0.52705    0.52289
 54 Co    0.07903   -0.32299   -0.08545
 55 Cr    0.38652   -0.27317   -0.57008
 56 Cr    0.25016    0.26799    0.14057
 57 Cr    0.17533    0.28074    0.35010
 58 Ni    0.09863    0.07346   -0.00521
 59 Fe   -0.11834   -0.13132   -0.21645
 60 Fe    0.13729    0.14927    0.04952
 61 Co   -0.17804    0.10294    0.01771
 62 Ni   -0.13513    0.32668    0.07571
 63 Ni   -0.09020   -0.06863    0.07258
 64 Fe    0.07880    0.06824   -0.12326
 65 Co    0.06389    0.08475    0.29718
 66 Ni    0.35848    0.40051    0.20665
 67 Ni    0.22674    0.09322    0.09381
 68 Fe    0.00773    0.32283    0.22319
 69 Cr   -0.15936    0.14608   -0.40843
 70 Ni   -0.29872    0.24944    0.06153
 71 Fe   -0.28106    0.07909    0.17852
 72 Co   -0.19091    0.19707   -0.11731
 73 Cr    0.51874   -0.75160    0.06095
 74 Ni   -0.04928    0.08897    0.01110
 75 Ni   -0.16056   -0.24371    0.02052
 76 Fe    0.65792   -0.01600    0.32212
 77 Cr    0.29646   -0.38590   -0.02367
 78 Co   -0.47936    0.34600   -0.17561
 79 Ni   -0.02737   -0.50060    0.09774
 80 Ni   -0.47423   -0.03903   -0.08526
 81 Cr   -0.84896   -1.29839   -0.44528
 82 Fe    0.27367    0.31588    0.15223
 83 Cr    0.20936   -0.67170   -1.00838
 84 Fe   -0.12091   -0.05618   -0.30980
 85 Fe   -0.04411    0.54623    0.28903
 86 Fe    0.37923   -0.22117   -0.02193
 87 Fe    0.01842   -0.11334    0.05618
 88 Ni    0.02366   -0.30792   -0.00782
 89 Co   -0.08439    0.41435    0.22757
 90 Cr   -0.45245   -0.04793   -0.14512
 91 Fe    0.24689    0.38995    0.07995
 92 Cr   -0.01687   -0.13366   -0.59502
 93 Cr   -0.32014    1.19761   -0.48087
 94 Al    0.88221    0.50231    0.00176
 95 Fe   -0.16475    0.25646   -0.24987
 96 Fe   -0.10929    0.03694   -0.33729
 97 Fe    0.15128   -0.07909    0.18411
 98 Co    0.07943   -0.02762    0.03921
 99 Ni    0.05877    0.22042   -0.20276
100 Co    0.15662    0.38918    0.27282
101 Fe    0.26842   -0.01703   -0.12927
102 Co    0.22134   -0.28896    0.25640
103 Ni    0.14563    0.31368   -0.00643
104 Co   -0.12839   -0.11675   -0.46172
105 Al   -0.99305    0.12297    0.46481
106 Ni   -0.26502   -0.28178    0.34371
107 Cr    1.04547    0.30151   -0.80585

Timing:                              incl.     excl.
-----------------------------------------------------------
Forces:                             21.612    21.612   0.1% |
Hamiltonian:                         0.772     0.008   0.0% |
 Atomic:                             0.406     0.098   0.0% |
  XC Correction:                     0.308     0.308   0.0% |
 Calculate atomic Hamiltonians:      0.224     0.224   0.0% |
 Communicate:                        0.006     0.006   0.0% |
 Initialize Hamiltonian:             0.000     0.000   0.0% |
 Poisson:                            0.001     0.001   0.0% |
 XC 3D grid:                         0.128     0.128   0.0% |
LCAO initialization:               175.152     0.653   0.0% |
 LCAO eigensolver:                  26.352     0.031   0.0% |
  Calculate projections:             0.258     0.258   0.0% |
  DenseAtomicCorrection:             0.341     0.341   0.0% |
  Distribute overlap matrix:         3.189     3.189   0.0% |
  Orbital Layouts:                  14.301    14.301   0.0% |
  Potential matrix:                  6.450     6.450   0.0% |
  Sum over cells:                    1.781     1.781   0.0% |
 LCAO to grid:                     145.342   145.342   0.4% |
 Set positions (LCAO WFS):           2.805     2.003   0.0% |
  Basic WFS set positions:           0.004     0.004   0.0% |
  Basis functions set positions:     0.001     0.001   0.0% |
  P tci:                             0.286     0.286   0.0% |
  ST tci:                            0.236     0.236   0.0% |
  mktci:                             0.275     0.275   0.0% |
PWDescriptor:                        0.067     0.067   0.0% |
SCF-cycle:                       37653.510   466.849   1.2% |
 Davidson:                       36630.465  7145.489  18.9% |-------|
  Apply H:                         406.583   397.051   1.0% |
   HMM T:                            9.533     9.533   0.0% |
  Subspace diag:                  2509.860     0.309   0.0% |
   calc_h_matrix:                  880.687   586.546   1.5% ||
    Apply H:                       294.141   284.443   0.8% |
     HMM T:                          9.698     9.698   0.0% |
   diagonalize:                    555.982   555.982   1.5% ||
   rotate_psi:                    1072.882  1072.882   2.8% ||
  calc. matrices:                 5828.609  5246.821  13.9% |-----|
   Apply H:                        581.787   560.989   1.5% ||
    HMM T:                          20.798    20.798   0.1% |
  diagonalize:                   18230.776 18230.776  48.2% |------------------|
  rotate_psi:                     2509.148  2509.148   6.6% |--|
 Density:                          287.849     0.013   0.0% |
  Atomic density matrices:           8.119     8.119   0.0% |
  Mix:                             137.880   137.880   0.4% |
  Multipole moments:                 0.177     0.177   0.0% |
  Pseudo density:                  141.660   141.644   0.4% |
   Symmetrize density:               0.016     0.016   0.0% |
 Hamiltonian:                      257.073     1.690   0.0% |
  Atomic:                          109.707    28.771   0.1% |
   XC Correction:                   80.937    80.937   0.2% |
  Calculate atomic Hamiltonians:   111.850   111.850   0.3% |
  Communicate:                       1.221     1.221   0.0% |
  Poisson:                           0.278     0.278   0.0% |
  XC 3D grid:                       32.326    32.326   0.1% |
 Orthonormalize:                    11.274     0.002   0.0% |
  calc_s_matrix:                     1.390     1.390   0.0% |
  inverse-cholesky:                  1.049     1.049   0.0% |
  projections:                       6.608     6.608   0.0% |
  rotate_psi_s:                      2.226     2.226   0.0% |
Set symmetry:                        0.001     0.001   0.0% |
Other:                               3.422     3.422   0.0% |
-----------------------------------------------------------
Total:                                     37854.536 100.0%

Date: Sun Apr 16 10:16:34 2023
