
  ___ ___ ___ _ _ _  
 |   |   |_  | | | | 
 | | | | | . | | | | 
 |__ |  _|___|_____|  22.8.0
 |___|_|             

User:   c.zeng@d0080
Date:   Mon Apr 17 18:34:05 2023
Arch:   x86_64
Pid:    232941
CWD:    /home/c.zeng/projects/hea-corrosion/hea-mlp/data-curation/surface-md/dft-jobs/73
Python: 3.8.1
gpaw:   /home/c.zeng/usr/installs/gpaw/source/gpaw-22.8.0/gpaw
_gpaw:  /home/c.zeng/usr/installs/gpaw/source/gpaw-22.8.0/
        _gpaw.cpython-38-x86_64-linux-gnu.so
ase:    /home/c.zeng/.local/lib/python3.8/site-packages/ase-3.22.1-py3.8.egg/ase (version 3.22.1)
numpy:  /home/c.zeng/.local/lib/python3.8/site-packages/numpy (version 1.24.2)
scipy:  /home/c.zeng/.local/lib/python3.8/site-packages/scipy (version 1.10.1)
libxc:  4.2.3
units:  Angstrom and eV
cores: 30
OpenMP: False
OMP_NUM_THREADS: 1

Input parameters:
  convergence: {energy: 0.0001}
  kpts: [2 2 1]
  maxiter: 666
  mode: {ecut: 350.0,
         name: pw}
  occupations: {fixmagmom: False,
                name: fermi-dirac,
                width: 0.1}
  poissonsolver: {dipolelayer: xy}
  spinpol: True
  symmetry: {point_group: False}
  xc: PBE

System changes: positions, numbers, cell, pbc, initial_charges, initial_magmoms 

Initialize ...

species:
  Cr:
    name: Chromium
    id: 33f258bda2ca9f93018e70263a35547b
    Z: 24.0
    valence: 6
    core: 18
    charge: 0.0
    file: /home/c.zeng/usr/data/gpaw-setups-0.9.20000/Cr.PBE.gz
    compensation charges: {type: gauss,
                           rc: 0.35,
                           lmax: 2}
    cutoffs: {filter: 2.14,
              core: 3.04}
    valence states:
      #              energy  rcut
      - 4s(1.00)    -4.007   1.164
      - 4p(0.00)    -0.989   1.217
      - 3d(5.00)    -2.913   1.111
      -  s          23.205   1.164
      -  p          26.223   1.217
      -  d          24.299   1.111
  
    # Using partial waves for Cr as LCAO basis

  Al:
    name: Aluminium
    id: 0292cae29f5d6237e50f6abdd43a7bdd
    Z: 13.0
    valence: 3
    core: 10
    charge: 0.0
    file: /home/c.zeng/usr/data/gpaw-setups-0.9.20000/Al.PBE.gz
    compensation charges: {type: gauss,
                           rc: 0.34,
                           lmax: 2}
    cutoffs: {filter: 1.91,
              core: 2.36}
    valence states:
      #              energy  rcut
      - 3s(2.00)    -7.753   1.085
      - 3p(1.00)    -2.712   1.085
      -  s          19.459   1.085
      -  p          24.499   1.085
      -  d           0.000   1.085
  
    # Using partial waves for Al as LCAO basis

  Fe:
    name: Iron
    id: 37abbd8d6c3c35915a9b583b742da910
    Z: 26.0
    valence: 8
    core: 18
    charge: 0.0
    file: /home/c.zeng/usr/data/gpaw-setups-0.9.20000/Fe.PBE.gz
    compensation charges: {type: gauss,
                           rc: 0.33,
                           lmax: 2}
    cutoffs: {filter: 2.06,
              core: 2.67}
    valence states:
      #              energy  rcut
      - 4s(2.00)    -5.291   1.164
      - 4p(0.00)    -1.326   1.058
      - 3d(6.00)    -7.505   1.058
      -  s          21.920   1.164
      -  p          25.885   1.058
      -  d          19.706   1.058
  
    # Using partial waves for Fe as LCAO basis

  Co:
    name: Cobalt
    id: 339d20d5b0b93d2de9531a1bee871d91
    Z: 27.0
    valence: 9
    core: 18
    charge: 0.0
    file: /home/c.zeng/usr/data/gpaw-setups-0.9.20000/Co.PBE.gz
    compensation charges: {type: gauss,
                           rc: 0.32,
                           lmax: 2}
    cutoffs: {filter: 1.87,
              core: 2.55}
    valence states:
      #              energy  rcut
      - 4s(2.00)    -5.469   1.005
      - 4p(0.00)    -1.277   1.058
      - 3d(7.00)    -8.205   1.005
      -  s          21.742   1.005
      -  p          25.934   1.058
      -  d          19.007   1.005
  
    # Using partial waves for Co as LCAO basis

  Ni:
    name: Nickel
    id: 0d9f38a9d6e76a2886f07bb4381f212b
    Z: 28.0
    valence: 16
    core: 12
    charge: 0.0
    file: /home/c.zeng/usr/data/gpaw-setups-0.9.20000/Ni.PBE.gz
    compensation charges: {type: gauss,
                           rc: 0.36,
                           lmax: 2}
    cutoffs: {filter: 2.14,
              core: 1.98}
    valence states:
      #              energy  rcut
      - 4s(2.00)    -5.642   1.164
      - 3p(6.00)   -71.394   1.207
      - 4p(0.00)    -1.226   1.207
      - 3d(8.00)    -8.875   1.138
      -  s          21.570   1.164
      -  d          18.337   1.138
  
    # Using partial waves for Ni as LCAO basis

Reference energy: -3927717.499734  # eV

Spin-polarized calculation.
Magnetic moment: 149.100000

Convergence criteria:
 Maximum [total energy] change in last 3 cyles: 0.0001 eV / electron
 Maximum integral of absolute [dens]ity change: 0.0001 electrons / valence electron
 Maximum integral of absolute [eigenst]ate change: 4e-08 eV^2 / valence electron
 Maximum number of scf [iter]ations: 666
 (Square brackets indicate name in SCF output, whereas a 'c' in
 the SCF output indicates the quantity has converged.)

Symmetries present (total): 1

  ( 1  0  0)
  ( 0  1  0)
  ( 0  0  1)

4 k-points: 2 x 2 x 1 Monkhorst-Pack grid
2 k-points in the irreducible part of the Brillouin zone
       k-points in crystal coordinates                weights
   0:     0.25000000   -0.25000000    0.00000000          2/4
   1:     0.25000000    0.25000000    0.00000000          2/4

Wave functions: Plane wave expansion
  Cutoff energy: 350.000 eV
  Number of coefficients (min, max): 60143, 60161
  Pulay-stress correction: 0.000000 eV/Ang^3 (de/decut=0.000000)
  Using FFTW library
  ScaLapack parameters: grid=1x1, blocksize=None
  Wavefunction extrapolation:
    Improved wavefunction reuse through dual PAW basis 

Occupation numbers: Fermi-Dirac:
  width: 0.1000  # eV
 

Eigensolver
   Davidson(niter=2) 

Densities:
  Coarse grid: 56*56*128 grid
  Fine grid: 112*112*256 grid
  Total Charge: 0.000000 

Density mixing:
  Method: difference
  Backend: pulay
  Linear mixing parameter: 0.05
  old densities: 5
  Damping of long wavelength oscillations: 50 

Hamiltonian:
  XC and Coulomb potentials evaluated on a 112*112*256 grid
  Using the PBE Exchange-Correlation functional
  External potential:
    NoExternalPotential
 

XC parameters: PBE with 2 nearest neighbor stencil

Memory estimate:
  Process memory now: 379.31 MiB
  Calculator: 2209.57 MiB
    Density: 18.91 MiB
      Arrays: 7.39 MiB
      Localized functions: 8.57 MiB
      Mixer: 2.95 MiB
    Hamiltonian: 5.75 MiB
      Arrays: 5.49 MiB
      XC: 0.00 MiB
      Poisson: 0.00 MiB
      vbar: 0.26 MiB
    Wavefunctions: 2184.92 MiB
      Arrays psit_nG: 1382.48 MiB
      Eigensolver: 782.37 MiB
      Projections: 3.31 MiB
      Projectors: 1.16 MiB
      PW-descriptor: 15.59 MiB

Total number of cores used: 30
Parallelization over k-points: 2
Domain decomposition: 1 x 3 x 5

Number of atoms: 125
Number of atomic orbitals: 1116
Number of bands in calculation: 753
Number of valence electrons: 1098
Bands to converge: occupied

... initialized

Initializing position-dependent things.

Density initialized from atomic densities
Creating initial wave functions:
  753 bands from LCAO basis set

                                                                    
                                                                    
                                                                    
                                                                    
                                                                    
                                                                    
                                                   Fe               
                                       Fe    Ni                     
                        CoCo    Fe   Ni          Cr                 
                                   Co    Fe     Ni    Ni            
                          CrCrr  Al Cr Co AliCo                     
                    Al  Fe     Ni         Co   Co     Ni            
               Fe    Ni  CoNi     Cr Cor   Ali   Ni                 
         Cr      Co     Fe    Nii   Cr            Al                
           Cr              Al Cr    Fe    Al    Fe     Ni           
            Co    Co Fe Nie   Co Ni Fe Cr  CoCo                     
                     Fe     Co Al   CrNi   Al    NCr   Cr           
               Cr               NiCo  NiFe  Co     Cr   Cr          
            Co   NFe   CFe   FNiAl FeNi  Fe Co                      
            Al    Co  Cr    Cr    Fe Co  Fe   Ale  Al    Al         
                        Cr Fe  Cr Fe Al Co           Fe             
                   Co     NAl   Fe    Ni    Co                      
                       Ni     Al    Cr     Cr    Ni                 
              Cr    Al           Cr   Cr                            
                                   Fe                               
                                                                    
                                                                    
                                                                    
                                                                    
                                                                    
                                                                    

Positions:
   0 Cr    12.105194    2.342702    9.775117    ( 0.0000,  0.0000,  0.0000)
   1 Cr     2.597177    1.779038   10.722699    ( 0.0000,  0.0000,  0.0000)
   2 Al     5.055732    1.664517   10.322343    ( 0.0000,  0.0000,  0.0000)
   3 Fe    10.414519    3.551236    8.611258    ( 0.0000,  0.0000,  2.0000)
   4 Cr    10.056109    1.627484   10.677735    ( 0.0000,  0.0000,  0.0000)
   5 Co    14.036704    3.720318   10.852857    ( 0.0000,  0.0000,  2.1000)
   6 Co     3.789710    3.829762   11.031283    ( 0.0000,  0.0000,  2.1000)
   7 Ni     6.649412    3.943032   11.026893    ( 0.0000,  0.0000,  1.5000)
   8 Fe     9.170967    3.758445   10.846104    ( 0.0000,  0.0000,  2.0000)
   9 Ni    11.701356    4.411606   10.745952    ( 0.0000,  0.0000,  1.5000)
  10 Ni    15.635237    5.791976    9.329616    ( 0.0000,  0.0000,  1.5000)
  11 Ni     5.317001    5.616975    9.527371    ( 0.0000,  0.0000,  1.5000)
  12 Al     8.095499    5.680629    9.341119    ( 0.0000,  0.0000,  0.0000)
  13 Cr    10.481404    6.082905    9.287074    ( 0.0000,  0.0000,  0.0000)
  14 Cr    13.205294    6.077451    9.064128    ( 0.0000,  0.0000,  0.0000)
  15 Fe    16.648180    8.298595    9.989537    ( 0.0000,  0.0000,  2.0000)
  16 Fe     6.318178    8.094945   10.072191    ( 0.0000,  0.0000,  2.0000)
  17 Fe     8.841135    8.275209    9.834681    ( 0.0000,  0.0000,  2.0000)
  18 Co    11.544889    8.222789    9.913939    ( 0.0000,  0.0000,  2.1000)
  19 Fe    14.146537    8.119436   10.369450    ( 0.0000,  0.0000,  2.0000)
  20 Al    17.788323   10.500468    9.316247    ( 0.0000,  0.0000,  0.0000)
  21 Ni     9.809214   10.315367    9.997338    ( 0.0000,  0.0000,  1.5000)
  22 Co    11.826575   11.137114   12.546071    ( 0.0000,  0.0000,  2.1000)
  23 Co    12.760565   10.196040   10.370334    ( 0.0000,  0.0000,  2.1000)
  24 Al    15.247688   10.393086    9.667677    ( 0.0000,  0.0000,  0.0000)
  25 Al     7.632529   10.391615   10.550485    ( 0.0000,  0.0000,  0.0000)
  26 Fe     9.199332   11.110338   12.572898    ( 0.0000,  0.0000,  2.0000)
  27 Al     8.057329    0.036522   12.619264    ( 0.0000,  0.0000,  0.0000)
  28 Ni    13.893939   12.676899   10.722702    ( 0.0000,  0.0000,  1.5000)
  29 Cr    16.968679   10.725850   12.016011    ( 0.0000,  0.0000,  0.0000)
  30 Al     1.483496    2.548159   12.993285    ( 0.0000,  0.0000,  0.0000)
  31 Co     4.064338    2.281157   12.959273    ( 0.0000,  0.0000,  2.1000)
  32 Cr     6.466724    2.364005   12.674247    ( 0.0000,  0.0000,  0.0000)
  33 Cr     9.218462    2.042808   12.942012    ( 0.0000,  0.0000,  0.0000)
  34 Al    11.559518    2.434527   12.448728    ( 0.0000,  0.0000,  0.0000)
  35 Ni     3.030643    4.505631   13.141948    ( 0.0000,  0.0000,  1.5000)
  36 Co     5.226367    4.428989   13.296646    ( 0.0000,  0.0000,  2.1000)
  37 Fe     7.792366    4.281452   13.120871    ( 0.0000,  0.0000,  2.0000)
  38 Fe    10.247460    4.474474   13.017681    ( 0.0000,  0.0000,  2.0000)
  39 Fe    12.719593    4.515850   12.958257    ( 0.0000,  0.0000,  2.0000)
  40 Cr     4.425416    6.210324   11.730845    ( 0.0000,  0.0000,  0.0000)
  41 Cr     7.042571    6.240860   11.525943    ( 0.0000,  0.0000,  0.0000)
  42 Fe     9.488349    6.342288   11.485959    ( 0.0000,  0.0000,  2.0000)
  43 Fe    12.088642    6.657218   11.547419    ( 0.0000,  0.0000,  2.0000)
  44 Al    14.503425    6.275542   11.843067    ( 0.0000,  0.0000,  0.0000)
  45 Cr    18.020185    8.284404   12.226714    ( 0.0000,  0.0000,  0.0000)
  46 Ni     8.275810    8.507600   12.070012    ( 0.0000,  0.0000,  1.5000)
  47 Ni    10.682805    8.597966   11.922266    ( 0.0000,  0.0000,  1.5000)
  48 Co    13.031743    8.678505   12.294387    ( 0.0000,  0.0000,  2.1000)
  49 Cr    15.590045    8.906261   12.044096    ( 0.0000,  0.0000,  0.0000)
  50 Co     1.882156    0.535618   14.775423    ( 0.0000,  0.0000,  2.1000)
  51 Fe     4.172761    0.642993   14.795428    ( 0.0000,  0.0000,  2.0000)
  52 Fe     6.902102    0.385534   14.808756    ( 0.0000,  0.0000,  2.0000)
  53 Ni     9.397074    0.283283   15.012591    ( 0.0000,  0.0000,  1.5000)
  54 Co    11.971332    0.651023   14.253937    ( 0.0000,  0.0000,  2.1000)
  55 Cr     2.725915    2.598772   15.220474    ( 0.0000,  0.0000,  0.0000)
  56 Fe     5.156968    2.947960   15.375919    ( 0.0000,  0.0000,  2.0000)
  57 Co     7.789091    2.891720   15.200451    ( 0.0000,  0.0000,  2.1000)
  58 Co    10.475452    2.760547   14.885217    ( 0.0000,  0.0000,  2.1000)
  59 Fe    12.826013    2.845348   14.922979    ( 0.0000,  0.0000,  2.0000)
  60 Fe     4.318563    5.190263   15.568098    ( 0.0000,  0.0000,  2.0000)
  61 Al     6.669997    5.282978   15.823051    ( 0.0000,  0.0000,  0.0000)
  62 Ni     9.308349    4.977709   15.298615    ( 0.0000,  0.0000,  1.5000)
  63 Cr    11.935488    4.872235   15.537779    ( 0.0000,  0.0000,  0.0000)
  64 Co    14.448989    4.813214   15.452459    ( 0.0000,  0.0000,  2.1000)
  65 Fe     5.660610    6.823196   14.107512    ( 0.0000,  0.0000,  2.0000)
  66 Al     8.166029    6.421932   13.783172    ( 0.0000,  0.0000,  0.0000)
  67 Ni    10.707938    7.063304   13.670893    ( 0.0000,  0.0000,  1.5000)
  68 Al    13.084700    6.558062   13.980172    ( 0.0000,  0.0000,  0.0000)
  69 Cr    15.956354    6.769884   13.685121    ( 0.0000,  0.0000,  0.0000)
  70 Cr     6.952607    9.642308   13.878903    ( 0.0000,  0.0000,  0.0000)
  71 Fe     9.474899    9.177941   14.288390    ( 0.0000,  0.0000,  2.0000)
  72 Al    11.797468    9.331058   14.213283    ( 0.0000,  0.0000,  0.0000)
  73 Fe    14.485898    9.015195   14.201584    ( 0.0000,  0.0000,  2.0000)
  74 Ni    17.164888    9.332149   14.230491    ( 0.0000,  0.0000,  1.5000)
  75 Cr    11.459887    1.229726   16.577880    ( 0.0000,  0.0000,  0.0000)
  76 Co     1.442987    1.622842   16.878450    ( 0.0000,  0.0000,  2.1000)
  77 Co     4.239701    1.500278   17.134774    ( 0.0000,  0.0000,  2.1000)
  78 Ni     6.654311    1.191507   17.057035    ( 0.0000,  0.0000,  1.5000)
  79 Co     9.142862    1.227256   17.291372    ( 0.0000,  0.0000,  2.1000)
  80 Al    13.347137    4.637052   17.602393    ( 0.0000,  0.0000,  0.0000)
  81 Co     3.078490    3.554541   17.361894    ( 0.0000,  0.0000,  2.1000)
  82 Fe     5.901443    3.635510   17.390781    ( 0.0000,  0.0000,  2.0000)
  83 Ni     8.427520    3.558704   17.445348    ( 0.0000,  0.0000,  1.5000)
  84 Cr    10.910201    3.540473   17.360900    ( 0.0000,  0.0000,  0.0000)
  85 Ni    15.613251    6.027942   17.532981    ( 0.0000,  0.0000,  1.5000)
  86 Fe     5.463394    6.251443   17.670222    ( 0.0000,  0.0000,  2.0000)
  87 Ni     8.228283    6.135201   17.924908    ( 0.0000,  0.0000,  1.5000)
  88 Co    10.812403    5.854945   17.757544    ( 0.0000,  0.0000,  2.1000)
  89 Ni    13.006669    6.742588   18.822649    ( 0.0000,  0.0000,  1.5000)
  90 Al    15.633602    7.811079   15.933825    ( 0.0000,  0.0000,  0.0000)
  91 Co     5.438232    7.874079   16.093719    ( 0.0000,  0.0000,  2.1000)
  92 Ni     7.706995    7.934386   15.674433    ( 0.0000,  0.0000,  1.5000)
  93 Cr    10.693665    7.841632   16.293956    ( 0.0000,  0.0000,  0.0000)
  94 Ni    13.001005    7.654299   16.438103    ( 0.0000,  0.0000,  1.5000)
  95 Ni    16.685563    9.896280   16.603218    ( 0.0000,  0.0000,  1.5000)
  96 Cr     6.447497   10.237857   16.615059    ( 0.0000,  0.0000,  0.0000)
  97 Cr     9.231903   10.306560   16.614936    ( 0.0000,  0.0000,  0.0000)
  98 Co    11.588813   10.232156   16.437715    ( 0.0000,  0.0000,  2.1000)
  99 Co    13.892622    9.907111   16.414957    ( 0.0000,  0.0000,  2.1000)
 100 Co     5.237122   10.808105   18.665234    ( 0.0000,  0.0000,  2.1000)
 101 Cr     1.692696   -0.366127   18.765148    ( 0.0000,  0.0000,  0.0000)
 102 Fe    10.401380   10.756995   19.002360    ( 0.0000,  0.0000,  2.0000)
 103 Ni    12.983842   10.627278   19.005872    ( 0.0000,  0.0000,  1.5000)
 104 Fe    15.228692   10.643787   19.622086    ( 0.0000,  0.0000,  2.0000)
 105 Cr     0.111941    2.200466   18.701336    ( 0.0000,  0.0000,  0.0000)
 106 Fe     2.935595    1.935739   19.079863    ( 0.0000,  0.0000,  2.0000)
 107 Ni     5.357002    2.080604   19.287746    ( 0.0000,  0.0000,  1.5000)
 108 Ni     7.786494    2.021488   19.053129    ( 0.0000,  0.0000,  1.5000)
 109 Cr    10.579249    2.123526   19.499553    ( 0.0000,  0.0000,  0.0000)
 110 Al    13.457017    2.226661   20.940738    ( 0.0000,  0.0000,  0.0000)
 111 Al     4.308792    4.647674   19.156472    ( 0.0000,  0.0000,  0.0000)
 112 Cr     6.774710    4.515363   19.307284    ( 0.0000,  0.0000,  0.0000)
 113 Al     9.480540    4.357895   19.621623    ( 0.0000,  0.0000,  0.0000)
 114 Co    12.048669    4.368993   19.825853    ( 0.0000,  0.0000,  2.1000)
 115 Cr    15.209981    6.806878   19.960676    ( 0.0000,  0.0000,  0.0000)
 116 Co     5.431442    6.545916   20.016120    ( 0.0000,  0.0000,  2.1000)
 117 Fe     8.301645    6.919427   20.113746    ( 0.0000,  0.0000,  2.0000)
 118 Ni    10.712519    6.904669   19.814231    ( 0.0000,  0.0000,  1.5000)
 119 Co    14.518180    4.515772   19.722456    ( 0.0000,  0.0000,  2.1000)
 120 Ni    16.981512    8.575086   18.896574    ( 0.0000,  0.0000,  1.5000)
 121 Cr     6.703085    8.394164   18.159239    ( 0.0000,  0.0000,  0.0000)
 122 Co     9.270113    8.335580   18.237399    ( 0.0000,  0.0000,  2.1000)
 123 Fe    11.729159    8.738851   18.321578    ( 0.0000,  0.0000,  2.0000)
 124 Ni    14.525924    8.620992   18.309418    ( 0.0000,  0.0000,  1.5000)

Unit cell:
           periodic     x           y           z      points  spacing
  1. axis:    yes   12.614700    0.000000    0.000000    56     0.1951
  2. axis:    yes    6.308550   10.926700    0.000000    56     0.1951
  3. axis:    no     0.000000    0.000000   29.353100   128     0.2293

  Lengths:  12.614700  12.617075  29.353100
  Angles:   90.000000  90.000000  59.999934

Effective grid spacing dv^(1/3) = 0.2160

     iter     time        total  log10-change:  magmom
                         energy  eigst   dens
iter:   1 18:43:04 -1154.160101                  +149.4303
iter:   2 18:46:14 -1586.469919  +0.44  -1.08    +80.4548
iter:   3 18:49:24 -3503.227432  +1.57  -0.83    +55.3239
iter:   4 18:52:34 -1014.054362  +0.40  -0.50    +31.2437
iter:   5 18:55:44  -955.585870  -0.08  -1.13    +27.3208
iter:   6 18:58:55  -956.386476  -0.61  -1.20    +26.8705
iter:   7 19:02:06  -934.491229  -0.99  -1.21    +28.0511
iter:   8 19:05:16 -1012.454475  -0.53  -1.23    +28.5588
iter:   9 19:08:26 -1623.801193  -0.12  -1.09    +28.0971
iter:  10 19:11:37  -932.011386  -0.85  -0.81    +24.3038
iter:  11 19:14:47  -914.643697  -1.47  -1.27    +24.8468
iter:  12 19:17:58  -912.417404  -1.73  -1.32    +29.0052
iter:  13 19:21:08  -905.534148  -1.77  -1.34    +30.1564
iter:  14 19:24:19  -920.366273  -1.69  -1.36    +34.6912
iter:  15 19:27:30  -907.365194  -1.44  -1.33    +37.0187
iter:  16 19:30:40  -954.042303  -1.18  -1.42    +40.3314
iter:  17 19:33:51  -945.564156  -1.25  -1.24    +40.6534
iter:  18 19:37:01  -906.211138  -1.53  -1.30    +38.7647
iter:  19 19:40:11  -910.860659  -1.44  -1.50    +41.7936
iter:  20 19:43:22  -898.821995  -1.91  -1.46    +43.4118
iter:  21 19:46:33  -890.173592  -2.39  -1.53    +47.4206
iter:  22 19:49:44  -894.199926  -2.59  -1.67    +51.7867
iter:  23 19:52:55  -949.616454  -1.60  -1.61    +53.5767
iter:  24 19:56:06  -899.711228  -1.84  -1.29    +54.7688
iter:  25 19:59:17  -899.201409  -2.28  -1.57    +56.0828
iter:  26 20:02:29  -894.974007  -2.24  -1.63    +59.3660
iter:  27 20:05:39  -902.251002  -2.40  -1.70    +61.6165
iter:  28 20:08:50  -897.532004  -2.10  -1.62    +64.8477
iter:  29 20:12:00  -898.935998  -2.13  -1.74    +64.9260
iter:  30 20:15:10  -895.878517  -2.21  -1.79    +64.4540
iter:  31 20:18:20  -898.885250  -2.43  -1.90    +64.9271
iter:  32 20:21:31  -897.660769  -2.38  -1.85    +67.1756
iter:  33 20:24:42  -897.025427  -2.76  -1.98    +67.0914
iter:  34 20:27:52  -899.488057  -2.57  -2.06    +66.7665
iter:  35 20:31:03  -898.164659  -2.65  -1.90    +67.9105
iter:  36 20:34:13  -898.011976  -2.86  -2.06    +68.0864
iter:  37 20:37:24  -899.112087  -3.03  -2.08    +68.3744
iter:  38 20:40:34  -898.206934  -3.02  -2.03    +69.4344
iter:  39 20:43:45  -898.222033  -3.21  -2.20    +69.6140
iter:  40 20:46:55  -899.821749  -2.86  -2.29    +69.2842
iter:  41 20:50:03  -898.620719  -3.31  -2.11    +69.1724
iter:  42 20:53:14  -899.246920  -3.09  -2.33    +69.2787
iter:  43 20:56:24  -898.801882  -3.42  -2.29    +69.4235
iter:  44 20:59:34  -899.056649  -3.29  -2.51    +69.2875
iter:  45 21:02:45  -899.401004  -3.46  -2.51    +69.4818
iter:  46 21:05:55  -899.194000  -3.84  -2.37    +69.5004
iter:  47 21:09:06  -899.560299  -3.56  -2.55    +69.9640
iter:  48 21:12:17  -899.563132  -4.29  -2.40    +69.7598
iter:  49 21:15:27  -899.816914  -3.62  -2.40    +69.4387
iter:  50 21:18:32  -899.917145  -2.73  -2.34    +68.7853
iter:  51 21:21:44  -900.249087  -3.77  -2.28    +69.1612
iter:  52 21:24:55  -899.946121  -3.22  -2.25    +68.8867
iter:  53 21:28:06  -899.904934  -3.88  -2.23    +68.9979
iter:  54 21:31:18  -899.955215c -3.05  -2.31    +68.9873
iter:  55 21:34:29  -900.124713  -2.87  -2.27    +68.9803
iter:  56 21:37:42  -899.647314  -3.20  -2.25    +69.2256
iter:  57 21:40:53  -901.227570  -2.91  -2.43    +69.1506
iter:  58 21:44:06  -899.637531  -3.38  -2.09    +69.0862
iter:  59 21:47:18  -900.063847  -3.43  -2.45    +69.2361
iter:  60 21:50:26  -899.756500  -3.97  -2.28    +69.0684
iter:  61 21:53:38  -899.801759  -3.86  -2.43    +69.0803
iter:  62 21:56:49  -899.648030  -3.81  -2.40    +68.8540
iter:  63 22:00:01  -899.994735  -3.30  -2.55    +68.7307
iter:  64 22:03:12  -900.187203  -3.39  -2.40    +68.6919
iter:  65 22:06:24  -899.824488  -3.41  -2.29    +68.7014
iter:  66 22:09:36  -899.597904  -3.78  -2.48    +68.7015
iter:  67 22:12:48  -899.604992  -4.16  -2.71    +68.4928
iter:  68 22:15:58  -899.613034c -4.51  -2.75    +68.5495
iter:  69 22:19:07  -899.556024c -4.45  -2.71    +68.5376
iter:  70 22:22:19  -899.565038c -4.55  -3.04    +68.5347
iter:  71 22:25:31  -899.590735c -4.46  -3.01    +68.6433
iter:  72 22:28:43  -899.596631c -4.61  -3.00    +68.6737
iter:  73 22:31:54  -899.605249c -4.58  -3.06    +68.6151
iter:  74 22:35:06  -899.598210c -5.14  -3.06    +68.6089
iter:  75 22:38:17  -899.603911c -4.73  -3.11    +68.6623
iter:  76 22:41:28  -899.610022c -4.95  -3.18    +68.5876
iter:  77 22:44:40  -899.609950c -5.23  -3.19    +68.5833
iter:  78 22:47:51  -899.644047c -4.62  -3.23    +68.5089
iter:  79 22:51:03  -899.638863c -4.61  -2.93    +68.5342
iter:  80 22:54:15  -899.619704c -4.72  -3.02    +68.4701
iter:  81 22:57:26  -899.618984c -5.17  -3.18    +68.4578
iter:  82 23:00:38  -899.640718c -5.07  -3.27    +68.4018
iter:  83 23:03:50  -899.633985c -5.79  -2.98    +68.3839
iter:  84 23:07:02  -899.629354c -4.66  -3.03    +68.3885
iter:  85 23:10:14  -899.627174c -4.89  -3.17    +68.3719
iter:  86 23:13:22  -899.623113c -5.28  -3.32    +68.3435
iter:  87 23:16:34  -899.623730c -5.68  -3.37    +68.3117
iter:  88 23:19:45  -899.645189c -4.75  -3.42    +68.2746
iter:  89 23:22:57  -899.627783c -4.95  -3.05    +68.2539
iter:  90 23:26:08  -899.626407c -5.33  -3.25    +68.2073
iter:  91 23:29:19  -899.626388c -5.50  -3.46    +68.1803
iter:  92 23:32:31  -899.626547c -5.29  -3.45    +68.1388
iter:  93 23:35:42  -899.625360c -5.63  -3.50    +68.1245
iter:  94 23:38:53  -899.626802c -5.53  -3.73    +68.0828
iter:  95 23:42:05  -899.626647c -5.89  -3.64    +68.0980
iter:  96 23:45:16  -899.626703c -5.89  -3.73    +68.0805
iter:  97 23:48:27  -899.628609c -5.81  -3.55    +68.0642
iter:  98 23:51:38  -899.627249c -6.28  -3.55    +68.0579
iter:  99 23:54:50  -899.627529c -6.38  -3.85    +68.0301
iter: 100 23:58:02  -899.628945c -5.92  -3.85    +67.9787
iter: 101 00:01:14  -899.627962c -6.41  -3.65    +67.9915
iter: 102 00:04:25  -899.627336c -5.69  -3.87    +67.9800
iter: 103 00:07:36  -899.628073c -6.08  -3.66    +67.9929
iter: 104 00:10:44  -899.630038c -6.08  -3.95    +67.9729
iter: 105 00:13:56  -899.627850c -6.51  -3.56    +67.9676
iter: 106 00:17:07  -899.627838c -6.19  -3.95    +67.9508
iter: 107 00:20:18  -899.628291c -6.72  -3.92    +67.9556
iter: 108 00:23:30  -899.627869c -6.79  -3.93    +67.9468
iter: 109 00:26:41  -899.628534c -6.91  -4.08c   +67.9387
iter: 110 00:29:52  -899.628582c -6.93  -3.90    +67.9305
iter: 111 00:33:03  -899.628280c -6.57  -3.99    +67.9226
iter: 112 00:36:14  -899.628244c -6.48  -4.09c   +67.9182
iter: 113 00:39:25  -899.628663c -6.38  -4.15c   +67.9168
iter: 114 00:42:37  -899.628071c -6.49  -3.95    +67.9123
iter: 115 00:45:48  -899.628541c -7.03  -4.14c   +67.9087
iter: 116 00:48:55  -899.628238c -7.14  -4.25c   +67.9054
iter: 117 00:52:07  -899.628319c -7.63c -4.49c   +67.9070

Converged after 117 iterations.

Dipole moment: (75.343017, 57.759836, 0.023388) |e|*Ang

Total magnetic moment: (0.000000, 0.000000, 67.907002)
Local magnetic moments:
   0 Cr ( 0.000000,  0.000000, -2.495457)
   1 Cr ( 0.000000,  0.000000, -2.559955)
   2 Al ( 0.000000,  0.000000, -0.008852)
   3 Fe ( 0.000000,  0.000000,  2.919892)
   4 Cr ( 0.000000,  0.000000,  0.042184)
   5 Co ( 0.000000,  0.000000,  0.867201)
   6 Co ( 0.000000,  0.000000,  1.266997)
   7 Ni ( 0.000000,  0.000000,  0.142195)
   8 Fe ( 0.000000,  0.000000,  2.393300)
   9 Ni ( 0.000000,  0.000000,  0.155746)
  10 Ni ( 0.000000,  0.000000,  0.367297)
  11 Ni ( 0.000000,  0.000000,  0.459619)
  12 Al ( 0.000000,  0.000000,  0.001892)
  13 Cr ( 0.000000,  0.000000, -2.848617)
  14 Cr ( 0.000000,  0.000000, -3.500578)
  15 Fe ( 0.000000,  0.000000,  2.319786)
  16 Fe ( 0.000000,  0.000000,  2.237022)
  17 Fe ( 0.000000,  0.000000,  2.733093)
  18 Co ( 0.000000,  0.000000,  1.582606)
  19 Fe ( 0.000000,  0.000000,  2.257866)
  20 Al ( 0.000000,  0.000000,  0.000561)
  21 Ni ( 0.000000,  0.000000,  0.367049)
  22 Co ( 0.000000,  0.000000,  1.163268)
  23 Co ( 0.000000,  0.000000,  1.643015)
  24 Al ( 0.000000,  0.000000, -0.032942)
  25 Al ( 0.000000,  0.000000, -0.015167)
  26 Fe ( 0.000000,  0.000000,  2.524425)
  27 Al ( 0.000000,  0.000000, -0.017440)
  28 Ni ( 0.000000,  0.000000,  0.124323)
  29 Cr ( 0.000000,  0.000000,  1.853677)
  30 Al ( 0.000000,  0.000000, -0.027902)
  31 Co ( 0.000000,  0.000000,  1.100068)
  32 Cr ( 0.000000,  0.000000, -1.617570)
  33 Cr ( 0.000000,  0.000000,  1.596260)
  34 Al ( 0.000000,  0.000000, -0.022478)
  35 Ni ( 0.000000,  0.000000,  0.152252)
  36 Co ( 0.000000,  0.000000,  1.295838)
  37 Fe ( 0.000000,  0.000000,  2.117852)
  38 Fe ( 0.000000,  0.000000,  2.504038)
  39 Fe ( 0.000000,  0.000000,  1.901802)
  40 Cr ( 0.000000,  0.000000,  1.381104)
  41 Cr ( 0.000000,  0.000000, -1.806650)
  42 Fe ( 0.000000,  0.000000,  2.325101)
  43 Fe ( 0.000000,  0.000000,  2.375787)
  44 Al ( 0.000000,  0.000000, -0.022739)
  45 Cr ( 0.000000,  0.000000, -1.156739)
  46 Ni ( 0.000000,  0.000000,  0.251931)
  47 Ni ( 0.000000,  0.000000,  0.565464)
  48 Co ( 0.000000,  0.000000,  1.307297)
  49 Cr ( 0.000000,  0.000000, -1.145043)
  50 Co ( 0.000000,  0.000000,  0.703998)
  51 Fe ( 0.000000,  0.000000,  2.139289)
  52 Fe ( 0.000000,  0.000000,  2.524137)
  53 Ni ( 0.000000,  0.000000,  0.555460)
  54 Co ( 0.000000,  0.000000,  1.076962)
  55 Cr ( 0.000000,  0.000000, -1.366893)
  56 Fe ( 0.000000,  0.000000,  2.456525)
  57 Co ( 0.000000,  0.000000,  1.760387)
  58 Co ( 0.000000,  0.000000,  1.259592)
  59 Fe ( 0.000000,  0.000000,  2.062345)
  60 Fe ( 0.000000,  0.000000,  2.423183)
  61 Al ( 0.000000,  0.000000, -0.053015)
  62 Ni ( 0.000000,  0.000000,  0.300756)
  63 Cr ( 0.000000,  0.000000, -2.305349)
  64 Co ( 0.000000,  0.000000,  0.827037)
  65 Fe ( 0.000000,  0.000000,  2.019426)
  66 Al ( 0.000000,  0.000000, -0.023206)
  67 Ni ( 0.000000,  0.000000,  0.204687)
  68 Al ( 0.000000,  0.000000, -0.027962)
  69 Cr ( 0.000000,  0.000000, -1.260179)
  70 Cr ( 0.000000,  0.000000, -2.403782)
  71 Fe ( 0.000000,  0.000000,  2.270189)
  72 Al ( 0.000000,  0.000000, -0.044864)
  73 Fe ( 0.000000,  0.000000,  2.155374)
  74 Ni ( 0.000000,  0.000000,  0.121173)
  75 Cr ( 0.000000,  0.000000, -1.760786)
  76 Co ( 0.000000,  0.000000,  0.582726)
  77 Co ( 0.000000,  0.000000,  1.445486)
  78 Ni ( 0.000000,  0.000000,  0.672932)
  79 Co ( 0.000000,  0.000000,  1.569439)
  80 Al ( 0.000000,  0.000000, -0.027664)
  81 Co ( 0.000000,  0.000000,  1.313349)
  82 Fe ( 0.000000,  0.000000,  2.233468)
  83 Ni ( 0.000000,  0.000000,  0.308204)
  84 Cr ( 0.000000,  0.000000,  1.931363)
  85 Ni ( 0.000000,  0.000000,  0.255431)
  86 Fe ( 0.000000,  0.000000,  2.274294)
  87 Ni ( 0.000000,  0.000000,  0.416404)
  88 Co ( 0.000000,  0.000000,  1.187986)
  89 Ni ( 0.000000,  0.000000,  0.336181)
  90 Al ( 0.000000,  0.000000, -0.026908)
  91 Co ( 0.000000,  0.000000,  1.097047)
  92 Ni ( 0.000000,  0.000000,  0.237403)
  93 Cr ( 0.000000,  0.000000, -2.551440)
  94 Ni ( 0.000000,  0.000000,  0.157531)
  95 Ni ( 0.000000,  0.000000,  0.273311)
  96 Cr ( 0.000000,  0.000000,  1.965807)
  97 Cr ( 0.000000,  0.000000, -1.844100)
  98 Co ( 0.000000,  0.000000,  1.181264)
  99 Co ( 0.000000,  0.000000,  1.724160)
 100 Co ( 0.000000,  0.000000,  1.406249)
 101 Cr ( 0.000000,  0.000000, -2.859434)
 102 Fe ( 0.000000,  0.000000,  2.687356)
 103 Ni ( 0.000000,  0.000000,  0.686703)
 104 Fe ( 0.000000,  0.000000,  3.169909)
 105 Cr ( 0.000000,  0.000000,  1.944755)
 106 Fe ( 0.000000,  0.000000,  2.646968)
 107 Ni ( 0.000000,  0.000000,  0.590681)
 108 Ni ( 0.000000,  0.000000,  0.461933)
 109 Cr ( 0.000000,  0.000000, -2.756018)
 110 Al ( 0.000000,  0.000000,  0.018864)
 111 Al ( 0.000000,  0.000000, -0.026470)
 112 Cr ( 0.000000,  0.000000, -2.889660)
 113 Al ( 0.000000,  0.000000, -0.013822)
 114 Co ( 0.000000,  0.000000,  1.507365)
 115 Cr ( 0.000000,  0.000000, -3.302488)
 116 Co ( 0.000000,  0.000000,  1.482698)
 117 Fe ( 0.000000,  0.000000,  3.061214)
 118 Ni ( 0.000000,  0.000000,  0.656135)
 119 Co ( 0.000000,  0.000000,  1.270674)
 120 Ni ( 0.000000,  0.000000,  0.421843)
 121 Cr ( 0.000000,  0.000000, -2.485717)
 122 Co ( 0.000000,  0.000000,  1.149018)
 123 Fe ( 0.000000,  0.000000,  2.639027)
 124 Ni ( 0.000000,  0.000000,  0.491069)

Energy contributions relative to reference atoms: (reference = -3927717.499734)

Kinetic:       +257.100683
Potential:     -272.942492
External:        +0.000000
XC:            -918.004505
Entropy (-ST):   -5.146525
Local:          +36.791258
--------------------------
Free energy:   -902.201581
Extrapolated:  -899.628319

Dipole-layer corrected work functions: 4.355005, 4.324302 eV

Spin contamination: 54.307194 electrons
Showing all kpts
                      Up                     Down
 Kpt  Band  Eigenvalues  Occupancy  Eigenvalues  Occupancy
  0   547      0.23414    0.99809      1.16292    0.04624
  0   548      0.24407    0.99790      1.17236    0.04225
  0   549      0.26082    0.99751      1.17631    0.04068
  0   550      0.27569    0.99712      1.19551    0.03381

  1   547      0.23292    0.99812      1.17190    0.04244
  1   548      0.24790    0.99781      1.18268    0.03826
  1   549      0.26245    0.99747      1.19091    0.03535
  1   550      0.27244    0.99721      1.19668    0.03343


Fermi level: 0.86026

No gap

Forces in eV/Ang:
  0 Cr    0.87294   -1.11626   -0.21002
  1 Cr   -0.61885   -0.46383   -0.03452
  2 Al    0.89332   -0.18971    0.49290
  3 Fe   -0.13271    0.43034    1.30671
  4 Cr   -0.29784   -0.41622   -0.61985
  5 Co   -0.46421    0.90836    0.08561
  6 Co    0.96528    0.28363   -0.92245
  7 Ni   -0.87311    0.56483   -1.10733
  8 Fe   -0.07488    0.52493   -0.09432
  9 Ni   -0.94234    0.44130   -0.16759
 10 Ni   -0.41983    0.35860    1.90458
 11 Ni    0.99176    0.45285    1.05002
 12 Al   -1.32693   -0.42873   -0.45121
 13 Cr    0.33943    0.01211    0.39202
 14 Cr    0.01204   -0.18827    1.03327
 15 Fe   -0.43957   -0.77776   -0.20243
 16 Fe    0.74551   -0.09515    0.06619
 17 Fe    0.68260   -1.48911   -0.30343
 18 Co    0.39553   -0.03977   -1.22930
 19 Fe   -0.48772    0.35000   -1.84179
 20 Al    0.40444    0.11813    0.47669
 21 Ni    2.23697    0.74333    0.97394
 22 Co   -0.56170   -0.39578   -0.47968
 23 Co   -0.10437    0.56501    0.57210
 24 Al   -0.94453    0.17259    0.65413
 25 Al   -1.68740   -0.05046    0.28240
 26 Fe    0.27943   -0.73701   -0.36070
 27 Al   -1.03037   -0.44817   -0.94284
 28 Ni    0.15624   -1.07825   -0.30962
 29 Cr    0.22848   -0.11358    0.55028
 30 Al    1.29750   -1.21802   -0.77280
 31 Co    0.18465   -0.33632   -0.07559
 32 Cr    0.03124   -0.46386    1.58115
 33 Cr   -0.56427    1.32719    0.49762
 34 Al    0.72682   -0.37649    0.18603
 35 Ni   -2.25656   -0.26752    0.80811
 36 Co    1.88912    0.17351   -0.05355
 37 Fe    0.13786   -0.95204    0.47682
 38 Fe    0.03964    1.14368    0.55085
 39 Fe    0.32700    0.18852    0.03755
 40 Cr    0.45835    0.54156   -0.65071
 41 Cr   -0.72048    0.24976    0.35871
 42 Fe    0.26692   -0.17098    0.04633
 43 Fe   -0.20914   -0.75531   -0.33100
 44 Al   -0.47027   -1.20694   -1.52482
 45 Cr    0.28526   -0.35066   -0.63680
 46 Ni   -0.94733    0.01962    0.85232
 47 Ni   -1.32291    1.55759    0.38837
 48 Co    0.54837    0.48741    0.20521
 49 Cr    0.95922   -1.45428    0.26708
 50 Co   -1.53799   -0.63720   -0.39960
 51 Fe    1.36815   -0.22415   -0.48044
 52 Fe   -0.42005    1.73403   -0.90153
 53 Ni   -0.26305    1.07975   -1.25006
 54 Co   -0.33000    0.12976   -0.04856
 55 Cr    1.06100    1.37416    0.01719
 56 Fe    0.51618   -0.71277   -1.75161
 57 Co   -0.04101   -0.65700   -0.25134
 58 Co   -1.02373   -0.00832    0.11636
 59 Fe    0.20713   -0.43459    1.29829
 60 Fe   -1.37026    0.21822   -0.05226
 61 Al    2.30742   -0.09530   -0.84893
 62 Ni    0.09976   -0.05104    0.94763
 63 Cr   -1.55963    0.73549   -0.54541
 64 Co    0.00993    0.66857   -0.62285
 65 Fe    0.32896    0.25553   -1.16893
 66 Al    1.17858    2.47703    0.54725
 67 Ni   -0.28748   -0.97340    0.91679
 68 Al    0.60503    1.93502    1.24539
 69 Cr    1.33727    0.90549    0.90647
 70 Cr    0.23070   -0.61356   -0.04501
 71 Fe   -1.45958    0.08667    0.14944
 72 Al    0.92775   -0.64743    0.29180
 73 Fe   -0.36535   -0.12788    0.11763
 74 Ni   -0.75300   -0.37150    0.18473
 75 Cr    0.08730    0.50550    0.00065
 76 Co    0.47621   -0.64426    0.39553
 77 Co   -0.41664   -0.55260   -0.19429
 78 Ni    0.01984    0.97395   -0.03881
 79 Co    0.29142   -0.59837    0.02831
 80 Al    0.22451   -0.01928    0.34240
 81 Co   -0.05152    0.63221   -0.41999
 82 Fe   -0.50494   -0.79385    0.80988
 83 Ni    0.08749    0.83625   -0.47429
 84 Cr   -0.16129   -0.16372   -0.17881
 85 Ni   -0.88897    0.15733    0.48646
 86 Fe   -0.10695    0.03790    0.98520
 87 Ni    0.01548   -0.17475   -0.74308
 88 Co    0.04986    0.18959   -0.28922
 89 Ni    0.01238   -0.51157    0.14201
 90 Al   -0.47122   -0.23521    1.22765
 91 Co   -0.63053    0.32487    0.38997
 92 Ni    1.11336   -0.00771    0.67055
 93 Cr   -1.61622   -0.49123   -0.72022
 94 Ni    0.81147   -0.85542   -0.33767
 95 Ni   -0.32878   -0.36049    1.50362
 96 Cr    1.28444   -0.11509   -0.57856
 97 Cr   -0.54329   -0.41292   -0.50452
 98 Co   -0.12918    0.10095    0.69448
 99 Co    1.34831   -0.13108    0.69197
100 Co   -0.19112   -0.20080   -0.01468
101 Cr   -0.84389    1.11430    0.64521
102 Fe    0.53760   -0.38485   -0.78972
103 Ni   -0.15951    0.72331   -0.76132
104 Fe    0.84009    0.08869   -1.31063
105 Cr    0.09791   -0.29715   -0.84191
106 Fe   -0.83384    0.67989    0.42707
107 Ni    0.17976   -0.08181   -0.59969
108 Ni    0.17072   -0.15286    0.95120
109 Cr    0.11695   -0.97811   -0.50727
110 Al    0.27994    0.66300    0.02119
111 Al   -1.26403   -0.96151    0.78907
112 Cr    1.34014    0.36842    0.50068
113 Al   -0.21686    1.38969   -0.28415
114 Co    0.13633    0.13801   -1.03964
115 Cr    0.74721    0.10205   -0.19647
116 Co    0.41236    0.81231   -0.68483
117 Fe   -0.25020   -0.07077   -0.91758
118 Ni   -0.20922   -0.28921   -0.30602
119 Co   -0.77707   -0.65590   -0.51421
120 Ni   -0.53292   -0.46466   -0.57490
121 Cr    0.26985   -0.79602    0.07000
122 Co   -0.12037    0.22398    0.41524
123 Fe    0.01713   -0.58219    0.29411
124 Ni    0.06506   -0.15998    0.18961

Timing:                              incl.     excl.
-----------------------------------------------------------
Forces:                             42.500    42.500   0.2% |
Hamiltonian:                         1.781     0.019   0.0% |
 Atomic:                             0.400     0.002   0.0% |
  XC Correction:                     0.398     0.398   0.0% |
 Calculate atomic Hamiltonians:      0.613     0.613   0.0% |
 Communicate:                        0.104     0.104   0.0% |
 Initialize Hamiltonian:             0.001     0.001   0.0% |
 Poisson:                            0.132     0.132   0.0% |
 XC 3D grid:                         0.511     0.511   0.0% |
LCAO initialization:               327.486     0.627   0.0% |
 LCAO eigensolver:                  20.067     0.023   0.0% |
  Calculate projections:             0.000     0.000   0.0% |
  DenseAtomicCorrection:             0.000     0.000   0.0% |
  Distribute overlap matrix:         8.667     8.667   0.0% |
  Orbital Layouts:                  11.198    11.198   0.0% |
  Potential matrix:                  0.004     0.004   0.0% |
  Sum over cells:                    0.175     0.175   0.0% |
 LCAO to grid:                     304.013   304.013   1.3% ||
 Set positions (LCAO WFS):           2.779     2.417   0.0% |
  Basic WFS set positions:           0.004     0.004   0.0% |
  Basis functions set positions:     0.001     0.001   0.0% |
  P tci:                             0.001     0.001   0.0% |
  ST tci:                            0.133     0.133   0.0% |
  mktci:                             0.223     0.223   0.0% |
PWDescriptor:                        0.120     0.120   0.0% |
SCF-cycle:                       22348.729     1.351   0.0% |
 Davidson:                       21746.153  5770.916  25.4% |---------|
  Apply H:                         431.699   423.744   1.9% ||
   HMM T:                            7.955     7.955   0.0% |
  Subspace diag:                  2038.032     0.075   0.0% |
   calc_h_matrix:                  909.073   506.436   2.2% ||
    Apply H:                       402.638   394.314   1.7% ||
     HMM T:                          8.324     8.324   0.0% |
   diagonalize:                    186.192   186.192   0.8% |
   rotate_psi:                     942.692   942.692   4.1% |-|
  calc. matrices:                 4747.634  3972.382  17.5% |------|
   Apply H:                        775.252   759.237   3.3% ||
    HMM T:                          16.015    16.015   0.1% |
  diagonalize:                    6744.995  6744.995  29.7% |-----------|
  rotate_psi:                     2012.876  2012.876   8.9% |---|
 Density:                          348.704     0.006   0.0% |
  Atomic density matrices:           4.127     4.127   0.0% |
  Mix:                             148.540   148.540   0.7% |
  Multipole moments:                 0.124     0.124   0.0% |
  Pseudo density:                  195.907   195.899   0.9% |
   Symmetrize density:               0.007     0.007   0.0% |
 Hamiltonian:                      233.108     1.904   0.0% |
  Atomic:                           48.624     0.225   0.0% |
   XC Correction:                   48.398    48.398   0.2% |
  Calculate atomic Hamiltonians:   109.814   109.814   0.5% |
  Communicate:                      10.822    10.822   0.0% |
  Poisson:                           5.629     5.629   0.0% |
  XC 3D grid:                       56.316    56.316   0.2% |
 Orthonormalize:                    19.413     0.001   0.0% |
  calc_s_matrix:                     2.388     2.388   0.0% |
  inverse-cholesky:                  0.986     0.986   0.0% |
  projections:                      11.974    11.974   0.1% |
  rotate_psi_s:                      4.063     4.063   0.0% |
Set symmetry:                        0.001     0.001   0.0% |
Other:                               7.958     7.958   0.0% |
-----------------------------------------------------------
Total:                                     22728.575 100.0%

Date: Tue Apr 18 00:52:53 2023
