
  ___ ___ ___ _ _ _  
 |   |   |_  | | | | 
 | | | | | . | | | | 
 |__ |  _|___|_____|  22.8.0
 |___|_|             

User:   c.zeng@d0072
Date:   Thu Apr 20 03:54:01 2023
Arch:   x86_64
Pid:    240560
CWD:    /home/c.zeng/projects/hea-corrosion/hea-mlp/data-curation/surface-mcmc/dft-jobs/44
Python: 3.8.1
gpaw:   /home/c.zeng/usr/installs/gpaw/source/gpaw-22.8.0/gpaw
_gpaw:  /home/c.zeng/usr/installs/gpaw/source/gpaw-22.8.0/
        _gpaw.cpython-38-x86_64-linux-gnu.so
ase:    /home/c.zeng/.local/lib/python3.8/site-packages/ase-3.22.1-py3.8.egg/ase (version 3.22.1)
numpy:  /home/c.zeng/.local/lib/python3.8/site-packages/numpy (version 1.24.2)
scipy:  /home/c.zeng/.local/lib/python3.8/site-packages/scipy (version 1.10.1)
libxc:  4.2.3
units:  Angstrom and eV
cores: 30
OpenMP: False
OMP_NUM_THREADS: 1

Input parameters:
  convergence: {energy: 0.0001}
  kpts: [2 2 1]
  maxiter: 666
  mode: {ecut: 350.0,
         name: pw}
  occupations: {fixmagmom: False,
                name: fermi-dirac,
                width: 0.1}
  poissonsolver: {dipolelayer: xy}
  spinpol: True
  symmetry: {point_group: False}
  xc: PBE

System changes: positions, numbers, cell, pbc, initial_charges, initial_magmoms 

Initialize ...

species:
  Cr:
    name: Chromium
    id: 33f258bda2ca9f93018e70263a35547b
    Z: 24.0
    valence: 6
    core: 18
    charge: 0.0
    file: /home/c.zeng/usr/data/gpaw-setups-0.9.20000/Cr.PBE.gz
    compensation charges: {type: gauss,
                           rc: 0.35,
                           lmax: 2}
    cutoffs: {filter: 2.14,
              core: 3.04}
    valence states:
      #              energy  rcut
      - 4s(1.00)    -4.007   1.164
      - 4p(0.00)    -0.989   1.217
      - 3d(5.00)    -2.913   1.111
      -  s          23.205   1.164
      -  p          26.223   1.217
      -  d          24.299   1.111
  
    # Using partial waves for Cr as LCAO basis

  Co:
    name: Cobalt
    id: 339d20d5b0b93d2de9531a1bee871d91
    Z: 27.0
    valence: 9
    core: 18
    charge: 0.0
    file: /home/c.zeng/usr/data/gpaw-setups-0.9.20000/Co.PBE.gz
    compensation charges: {type: gauss,
                           rc: 0.32,
                           lmax: 2}
    cutoffs: {filter: 1.87,
              core: 2.55}
    valence states:
      #              energy  rcut
      - 4s(2.00)    -5.469   1.005
      - 4p(0.00)    -1.277   1.058
      - 3d(7.00)    -8.205   1.005
      -  s          21.742   1.005
      -  p          25.934   1.058
      -  d          19.007   1.005
  
    # Using partial waves for Co as LCAO basis

  Ni:
    name: Nickel
    id: 0d9f38a9d6e76a2886f07bb4381f212b
    Z: 28.0
    valence: 16
    core: 12
    charge: 0.0
    file: /home/c.zeng/usr/data/gpaw-setups-0.9.20000/Ni.PBE.gz
    compensation charges: {type: gauss,
                           rc: 0.36,
                           lmax: 2}
    cutoffs: {filter: 2.14,
              core: 1.98}
    valence states:
      #              energy  rcut
      - 4s(2.00)    -5.642   1.164
      - 3p(6.00)   -71.394   1.207
      - 4p(0.00)    -1.226   1.207
      - 3d(8.00)    -8.875   1.138
      -  s          21.570   1.164
      -  d          18.337   1.138
  
    # Using partial waves for Ni as LCAO basis

  Fe:
    name: Iron
    id: 37abbd8d6c3c35915a9b583b742da910
    Z: 26.0
    valence: 8
    core: 18
    charge: 0.0
    file: /home/c.zeng/usr/data/gpaw-setups-0.9.20000/Fe.PBE.gz
    compensation charges: {type: gauss,
                           rc: 0.33,
                           lmax: 2}
    cutoffs: {filter: 2.06,
              core: 2.67}
    valence states:
      #              energy  rcut
      - 4s(2.00)    -5.291   1.164
      - 4p(0.00)    -1.326   1.058
      - 3d(6.00)    -7.505   1.058
      -  s          21.920   1.164
      -  p          25.885   1.058
      -  d          19.706   1.058
  
    # Using partial waves for Fe as LCAO basis

Reference energy: -4451268.207082  # eV

Spin-polarized calculation.
Magnetic moment: 175.600000

Convergence criteria:
 Maximum [total energy] change in last 3 cyles: 0.0001 eV / electron
 Maximum integral of absolute [dens]ity change: 0.0001 electrons / valence electron
 Maximum integral of absolute [eigenst]ate change: 4e-08 eV^2 / valence electron
 Maximum number of scf [iter]ations: 666
 (Square brackets indicate name in SCF output, whereas a 'c' in
 the SCF output indicates the quantity has converged.)

Symmetries present (total): 1

  ( 1  0  0)
  ( 0  1  0)
  ( 0  0  1)

4 k-points: 2 x 2 x 1 Monkhorst-Pack grid
2 k-points in the irreducible part of the Brillouin zone
       k-points in crystal coordinates                weights
   0:     0.25000000   -0.25000000    0.00000000          2/4
   1:     0.25000000    0.25000000    0.00000000          2/4

Wave functions: Plane wave expansion
  Cutoff energy: 350.000 eV
  Number of coefficients (min, max): 58495, 58567
  Pulay-stress correction: 0.000000 eV/Ang^3 (de/decut=0.000000)
  Using FFTW library
  ScaLapack parameters: grid=1x1, blocksize=None
  Wavefunction extrapolation:
    Improved wavefunction reuse through dual PAW basis 

Occupation numbers: Fermi-Dirac:
  width: 0.1000  # eV
 

Eigensolver
   Davidson(niter=2) 

Densities:
  Coarse grid: 54*54*128 grid
  Fine grid: 108*108*256 grid
  Total Charge: 0.000000 

Density mixing:
  Method: difference
  Backend: pulay
  Linear mixing parameter: 0.05
  old densities: 5
  Damping of long wavelength oscillations: 50 

Hamiltonian:
  XC and Coulomb potentials evaluated on a 108*108*256 grid
  Using the PBE Exchange-Correlation functional
  External potential:
    NoExternalPotential
 

XC parameters: PBE with 2 nearest neighbor stencil

Memory estimate:
  Process memory now: 357.98 MiB
  Calculator: 2405.48 MiB
    Density: 16.73 MiB
      Arrays: 6.75 MiB
      Localized functions: 7.29 MiB
      Mixer: 2.70 MiB
    Hamiltonian: 5.22 MiB
      Arrays: 5.01 MiB
      XC: 0.00 MiB
      Poisson: 0.00 MiB
      vbar: 0.21 MiB
    Wavefunctions: 2383.52 MiB
      Arrays psit_nG: 1501.35 MiB
      Eigensolver: 862.84 MiB
      Projections: 3.85 MiB
      Projectors: 0.98 MiB
      PW-descriptor: 14.51 MiB

Total number of cores used: 30
Parallelization over k-points: 2
Domain decomposition: 1 x 3 x 5

Number of atoms: 125
Number of atomic orbitals: 1218
Number of bands in calculation: 840
Number of valence electrons: 1217
Bands to converge: occupied

... initialized

Initializing position-dependent things.

Density initialized from atomic densities
Creating initial wave functions:
  840 bands from LCAO basis set

                                                                  
                                                                  
                                                                  
                                                                  
                                   Fe    Co           Ni          
                         Ni    Ni    Co    Co    Cr               
                    Fe    Cr     Cr    Ni    Co                   
                                Co    Ni    Ni    Cr    Co        
                Cr    Ni   NCr   FCo    NCo   Fe    Fe            
            Co    Ni   FCo   NCo   FNi   Fe     Ni                
       Ni                 CoCr    Cr     Cr    Co    Fe           
                   Fe   CFe   FFe   FNi   CFe   Cr    Cr          
              Ni   FCo    CNi   FFe   CFe   Ni                    
                               Ni    Ni    Cr    Co    Cr         
               Cr   CFe   FCr   NCNi  FFNi  CFe   Fe    Cr        
           Cr   CNi   FFe  CNCr   NCo   CFe         Co            
            Fe    Fe          Fe    Cr        Ni                  
                       CNi   Co    Cr    Ni     Cr                
             Co    Cr    CFe   Co    CCo   Ni                     
              Co    Co    Cr     Ni    Cr                         
                                                                  
                                                                  
                                                                  
                                                                  
                                                                  

Positions:
   0 Cr    12.462288    1.423821   10.629080    ( 0.0000,  0.0000,  0.0000)
   1 Co     2.499576    1.440301   10.626527    ( 0.0000,  0.0000,  2.0000)
   2 Co     4.968611    1.438835   10.615079    ( 0.0000,  0.0000,  1.5000)
   3 Cr     7.462726    1.421460   10.639178    ( 0.0000,  0.0000,  2.1000)
   4 Ni     9.958813    1.440808   10.614286    ( 0.0000,  0.0000,  1.5000)
   5 Ni    13.701699    3.595687   10.631928    ( 0.0000,  0.0000,  0.0000)
   6 Co     3.731720    3.588498   10.658463    ( 0.0000,  0.0000,  2.0000)
   7 Cr     6.206181    3.578862   10.616048    ( 0.0000,  0.0000,  0.0000)
   8 Co     8.708678    3.588487   10.610441    ( 0.0000,  0.0000,  0.0000)
   9 Co    11.213254    3.596560   10.610265    ( 0.0000,  0.0000,  0.0000)
  10 Cr    14.928341    5.748260   10.633307    ( 0.0000,  0.0000,  1.5000)
  11 Co     4.975718    5.742741   10.620568    ( 0.0000,  0.0000,  0.0000)
  12 Co     7.478433    5.755029   10.612261    ( 0.0000,  0.0000,  0.0000)
  13 Cr     9.958968    5.766540   10.606596    ( 0.0000,  0.0000,  0.0000)
  14 Ni    12.428955    5.759114   10.623679    ( 0.0000,  0.0000,  2.0000)
  15 Co    16.172575    7.907763   10.614962    ( 0.0000,  0.0000,  0.0000)
  16 Co     6.230875    7.897556   10.631399    ( 0.0000,  0.0000,  1.5000)
  17 Co     8.712063    7.918800   10.624912    ( 0.0000,  0.0000,  1.5000)
  18 Cr    11.196407    7.900649   10.627583    ( 0.0000,  0.0000,  2.0000)
  19 Ni    13.685743    7.894915   10.608768    ( 0.0000,  0.0000,  0.0000)
  20 Cr    17.413095   10.061737   10.609531    ( 0.0000,  0.0000,  0.0000)
  21 Ni     7.473454   10.060875   10.626761    ( 0.0000,  0.0000,  1.5000)
  22 Fe     9.959304   10.058201   10.606068    ( 0.0000,  0.0000,  0.0000)
  23 Co    12.452485   10.052985   10.619834    ( 0.0000,  0.0000,  1.5000)
  24 Fe    14.933506   10.061047   10.614433    ( 0.0000,  0.0000,  2.0000)
  25 Co    12.449050   -0.000629   12.627234    ( 0.0000,  0.0000,  2.1000)
  26 Co     2.492433    0.000558   12.634954    ( 0.0000,  0.0000,  2.1000)
  27 Cr     4.974333    0.000141   12.611941    ( 0.0000,  0.0000,  2.1000)
  28 Fe     7.468637   -0.006559   12.638564    ( 0.0000,  0.0000,  0.0000)
  29 Cr    16.167928   10.788301   12.619514    ( 0.0000,  0.0000,  2.0000)
  30 Fe     1.266555    2.151225   12.633662    ( 0.0000,  0.0000,  2.0000)
  31 Fe     3.735748    2.148121   12.651127    ( 0.0000,  0.0000,  2.1000)
  32 Ni     6.204229    2.151322   12.625297    ( 0.0000,  0.0000,  2.0000)
  33 Fe     8.713864    2.159169   12.632341    ( 0.0000,  0.0000,  0.0000)
  34 Cr    11.209280    2.157261   12.630668    ( 0.0000,  0.0000,  2.0000)
  35 Cr     2.491537    4.311041   12.649513    ( 0.0000,  0.0000,  1.5000)
  36 Fe     4.975141    4.309004   12.661988    ( 0.0000,  0.0000,  1.5000)
  37 Ni     7.471546    4.302515   12.629612    ( 0.0000,  0.0000,  0.0000)
  38 Ni     9.959331    4.321389   12.624211    ( 0.0000,  0.0000,  2.0000)
  39 Fe    12.447216    4.322736   12.648779    ( 0.0000,  0.0000,  0.0000)
  40 Cr     3.727002    6.455713   12.638564    ( 0.0000,  0.0000,  2.0000)
  41 Fe     6.230130    6.458548   12.645726    ( 0.0000,  0.0000,  1.5000)
  42 Co     8.722502    6.475815   12.624504    ( 0.0000,  0.0000,  2.1000)
  43 Fe    11.197735    6.469758   12.643995    ( 0.0000,  0.0000,  1.5000)
  44 Fe    13.683348    6.470059   12.640003    ( 0.0000,  0.0000,  2.1000)
  45 Cr    17.413993    8.621565   12.620189    ( 0.0000,  0.0000,  0.0000)
  46 Ni     7.471608    8.621834   12.638564    ( 0.0000,  0.0000,  1.5000)
  47 Ni     9.955597    8.628593   12.628115    ( 0.0000,  0.0000,  2.1000)
  48 Cr    12.449432    8.615173   12.619279    ( 0.0000,  0.0000,  1.5000)
  49 Co    14.929575    8.617340   12.626089    ( 0.0000,  0.0000,  2.0000)
  50 Cr     1.254097    0.717223   14.680102    ( 0.0000,  0.0000,  2.1000)
  51 Ni     3.731090    0.711950   14.670063    ( 0.0000,  0.0000,  2.0000)
  52 Fe     6.214925    0.718289   14.674818    ( 0.0000,  0.0000,  0.0000)
  53 Cr     8.714063    0.718519   14.689084    ( 0.0000,  0.0000,  2.0000)
  54 Co    11.204771    0.717512   14.682421    ( 0.0000,  0.0000,  0.0000)
  55 Cr     2.496837    2.862958   14.687264    ( 0.0000,  0.0000,  2.0000)
  56 Fe     4.979214    2.867151   14.683800    ( 0.0000,  0.0000,  2.1000)
  57 Cr     7.478991    2.885690   14.679133    ( 0.0000,  0.0000,  2.1000)
  58 Ni     9.958294    2.881486   14.688056    ( 0.0000,  0.0000,  2.1000)
  59 Ni    12.441997    2.882424   14.688409    ( 0.0000,  0.0000,  0.0000)
  60 Fe     3.731806    5.017201   14.686589    ( 0.0000,  0.0000,  2.1000)
  61 Cr     6.225452    5.035536   14.687205    ( 0.0000,  0.0000,  0.0000)
  62 Fe     8.715945    5.032324   14.674525    ( 0.0000,  0.0000,  2.1000)
  63 Cr    11.195745    5.039006   14.696011    ( 0.0000,  0.0000,  2.0000)
  64 Ni    13.700079    5.031203   14.681012    ( 0.0000,  0.0000,  2.1000)
  65 Co     4.981869    7.184260   14.692048    ( 0.0000,  0.0000,  2.0000)
  66 Fe     7.477161    7.188130   14.678135    ( 0.0000,  0.0000,  1.5000)
  67 Fe     9.952805    7.179334   14.674554    ( 0.0000,  0.0000,  0.0000)
  68 Cr    12.443073    7.188992   14.681100    ( 0.0000,  0.0000,  2.0000)
  69 Cr    14.930068    7.191493   14.686618    ( 0.0000,  0.0000,  0.0000)
  70 Cr     6.231394    9.346900   14.677343    ( 0.0000,  0.0000,  0.0000)
  71 Cr     8.712453    9.336671   14.666629    ( 0.0000,  0.0000,  1.5000)
  72 Cr    11.193692    9.342761   14.657881    ( 0.0000,  0.0000,  1.5000)
  73 Co    13.688080    9.336294   14.678986    ( 0.0000,  0.0000,  2.1000)
  74 Fe    16.181709    9.338601   14.679603    ( 0.0000,  0.0000,  2.0000)
  75 Fe    12.451515    1.431333   16.739956    ( 0.0000,  0.0000,  2.0000)
  76 Ni     2.493173    1.440441   16.729476    ( 0.0000,  0.0000,  1.5000)
  77 Co     4.973378    1.437348   16.717295    ( 0.0000,  0.0000,  1.5000)
  78 Ni     7.475017    1.438609   16.711571    ( 0.0000,  0.0000,  2.0000)
  79 Fe     9.955789    1.433845   16.723048    ( 0.0000,  0.0000,  2.1000)
  80 Fe    13.696559    3.594351   16.715270    ( 0.0000,  0.0000,  2.1000)
  81 Fe     3.730077    3.579487   16.736903    ( 0.0000,  0.0000,  2.0000)
  82 Fe     6.225541    3.599416   16.704614    ( 0.0000,  0.0000,  1.5000)
  83 Fe     8.709257    3.594792   16.716150    ( 0.0000,  0.0000,  2.1000)
  84 Ni    11.199463    3.603674   16.739691    ( 0.0000,  0.0000,  2.0000)
  85 Ni    14.943900    5.737718   16.712745    ( 0.0000,  0.0000,  1.5000)
  86 Fe     4.972339    5.736543   16.726893    ( 0.0000,  0.0000,  1.5000)
  87 Ni     7.458804    5.749316   16.714624    ( 0.0000,  0.0000,  2.1000)
  88 Fe     9.954095    5.748637   16.721228    ( 0.0000,  0.0000,  2.0000)
  89 Fe    12.462014    5.747344   16.728743    ( 0.0000,  0.0000,  2.0000)
  90 Fe    16.183410    7.912818   16.742715    ( 0.0000,  0.0000,  2.0000)
  91 Ni     6.219087    7.908313   16.727040    ( 0.0000,  0.0000,  2.1000)
  92 Fe     8.705037    7.899237   16.717853    ( 0.0000,  0.0000,  1.5000)
  93 Ni    11.200247    7.900293   16.707726    ( 0.0000,  0.0000,  2.0000)
  94 Fe    13.685904    7.915049   16.733058    ( 0.0000,  0.0000,  2.0000)
  95 Co    17.435836   10.053955   16.714183    ( 0.0000,  0.0000,  2.1000)
  96 Co     7.479895   10.064335   16.723694    ( 0.0000,  0.0000,  2.1000)
  97 Ni     9.948438   10.062297   16.717999    ( 0.0000,  0.0000,  2.0000)
  98 Ni    12.430846   10.066016   16.706229    ( 0.0000,  0.0000,  2.1000)
  99 Cr    14.931465   10.060206   16.719819    ( 0.0000,  0.0000,  2.0000)
 100 Ni     0.001393   -0.001477   18.721348    ( 0.0000,  0.0000,  2.1000)
 101 Fe     8.706806   10.779893   18.727160    ( 0.0000,  0.0000,  2.1000)
 102 Co    11.204107   10.781618   18.717855    ( 0.0000,  0.0000,  1.5000)
 103 Co     7.469960    0.013195   18.707875    ( 0.0000,  0.0000,  2.0000)
 104 Ni    16.181919   10.775754   18.709108    ( 0.0000,  0.0000,  2.1000)
 105 Co     1.248004    2.161303   18.718354    ( 0.0000,  0.0000,  2.1000)
 106 Ni     3.733315    2.155634   18.745800    ( 0.0000,  0.0000,  1.5000)
 107 Co     6.228574    2.157186   18.698042    ( 0.0000,  0.0000,  2.0000)
 108 Co     8.707430    2.146688   18.721378    ( 0.0000,  0.0000,  1.5000)
 109 Ni    11.204420    2.145825   18.737698    ( 0.0000,  0.0000,  0.0000)
 110 Cr     2.490030    4.312410   18.723374    ( 0.0000,  0.0000,  2.1000)
 111 Ni     4.985099    4.302214   18.737992    ( 0.0000,  0.0000,  1.5000)
 112 Cr     7.468273    4.307150   18.718736    ( 0.0000,  0.0000,  1.5000)
 113 Co     9.951365    4.318112   18.731387    ( 0.0000,  0.0000,  1.5000)
 114 Co    12.445275    4.305296   18.744537    ( 0.0000,  0.0000,  0.0000)
 115 Fe     3.740863    6.459076   18.741044    ( 0.0000,  0.0000,  0.0000)
 116 Cr     6.217689    6.472786   18.736054    ( 0.0000,  0.0000,  1.5000)
 117 Cr     8.709004    6.465931   18.718354    ( 0.0000,  0.0000,  0.0000)
 118 Ni    11.207929    6.465576   18.705468    ( 0.0000,  0.0000,  2.1000)
 119 Co    13.697451    6.465489   18.739900    ( 0.0000,  0.0000,  0.0000)
 120 Ni     4.983428    8.632721   18.739518    ( 0.0000,  0.0000,  1.5000)
 121 Ni     7.469224    8.629196   18.723022    ( 0.0000,  0.0000,  1.5000)
 122 Co     9.951770    8.622740   18.693815    ( 0.0000,  0.0000,  2.1000)
 123 Co    12.435945    8.632257   18.713130    ( 0.0000,  0.0000,  0.0000)
 124 Cr    14.940770    8.642831   18.751406    ( 0.0000,  0.0000,  0.0000)

Unit cell:
           periodic     x           y           z      points  spacing
  1. axis:    yes   12.446800    0.000000    0.000000    54     0.1996
  2. axis:    yes    6.223010   10.778600    0.000000    54     0.1996
  3. axis:    no     0.000000    0.000000   29.353100   128     0.2293

  Lengths:  12.446800  12.446046  29.353100
  Angles:   90.000000  90.000000  60.000070

Effective grid spacing dv^(1/3) = 0.2193

     iter     time        total  log10-change:  magmom
                         energy  eigst   dens
iter:   1 04:05:06 -1141.450889                  +175.5309
iter:   2 04:08:58 -2056.508605  +0.52  -1.17    +140.6630
iter:   3 04:12:51 -2025.098748  +0.98  -0.86    +113.7780
iter:   4 04:16:44 -1174.969279  -0.36  -0.84    +78.8251
iter:   5 04:20:37 -1048.943300  -1.26  -1.21    +60.3509
iter:   6 04:24:29 -1034.102943  -1.79  -1.33    +43.8474
iter:   7 04:28:22 -1017.124781  -1.72  -1.35    +39.6642
iter:   8 04:32:14 -1146.182999  -1.02  -1.38    +40.7429
iter:   9 04:36:06 -1165.366724  -0.99  -1.15    +39.1377
iter:  10 04:39:59 -1006.961693  -1.60  -1.12    +32.9086
iter:  11 04:43:51  -998.417153  -1.97  -1.44    +32.8652
iter:  12 04:47:44 -1001.172898  -1.65  -1.47    +33.6943
iter:  13 04:51:37 -1014.753079  -1.60  -1.53    +34.4655
iter:  14 04:55:26  -999.622170  -1.65  -1.44    +34.8906
iter:  15 04:59:19 -1486.046570  -0.66  -1.62    +37.3222
iter:  16 05:03:12  -998.533822  -1.21  -0.97    +34.3941
iter:  17 05:07:05  -991.376501  -1.86  -1.62    +34.2344
iter:  18 05:10:57  -992.371684  -2.11  -1.74    +37.3648
iter:  19 05:14:49  -993.758842  -2.10  -1.72    +40.0717
iter:  20 05:18:41  -990.702315  -2.26  -1.73    +41.4913
iter:  21 05:22:34 -1305.794674  -1.26  -1.77    +45.1617
iter:  22 05:26:27  -989.899178  -1.46  -1.02    +42.5155
iter:  23 05:30:19  -989.195650  -2.49  -1.82    +43.2576
iter:  24 05:34:12  -994.681595  -2.61  -1.85    +46.8901
iter:  25 05:38:04  -989.818388  -2.88  -1.73    +48.1358
iter:  26 05:41:56  -993.651291  -2.53  -1.89    +51.9738
iter:  27 05:45:48 -1083.775803  -1.65  -1.80    +52.8801
iter:  28 05:49:41  -990.816352  -1.88  -1.26    +53.1278
iter:  29 05:53:30  -998.108392  -2.60  -1.88    +54.0146
iter:  30 05:57:22  -989.919807  -2.83  -1.73    +56.9203
iter:  31 06:01:14  -991.408084  -3.21  -1.97    +59.3012
iter:  32 06:05:07  -990.897316  -3.27  -1.93    +60.4666
iter:  33 06:08:59  -993.215029  -2.31  -1.98    +62.8082
iter:  34 06:12:51  -992.662915  -2.40  -2.02    +62.9077
iter:  35 06:16:44  -991.389233  -2.78  -2.03    +64.4790
iter:  36 06:20:36 -1006.610565  -2.45  -2.17    +65.4346
iter:  37 06:24:28  -993.654090  -2.47  -1.68    +66.2632
iter:  38 06:28:16  -991.103678  -3.03  -2.03    +67.0411
iter:  39 06:32:08  -991.340212  -3.43  -2.36    +68.1687
iter:  40 06:36:01  -992.069836  -3.09  -2.44    +70.3838
iter:  41 06:39:53  -991.631540  -3.61  -2.35    +70.1122
iter:  42 06:43:46  -992.053167  -3.48  -2.52    +71.7715
iter:  43 06:47:38  -992.424993  -3.46  -2.48    +71.9145
iter:  44 06:51:31  -992.215445  -3.48  -2.38    +72.9840
iter:  45 06:55:23  -992.256854  -3.75  -2.55    +73.8074
iter:  46 06:59:16  -992.332052c -3.88  -2.62    +73.9829
iter:  47 07:03:08  -992.554344  -3.64  -2.63    +74.4666
iter:  48 07:07:01  -992.849793  -3.62  -2.59    +74.8446
iter:  49 07:10:53  -997.637210  -2.92  -2.50    +74.7214
iter:  50 07:14:45  -992.931007  -3.11  -1.93    +75.3879
iter:  51 07:18:37  -993.001231  -3.88  -2.49    +75.6890
iter:  52 07:22:28  -993.066714  -4.15  -2.49    +75.4428
iter:  53 07:26:20  -993.265518  -3.27  -2.47    +75.0981
iter:  54 07:30:11  -993.692100  -3.62  -2.38    +75.3489
iter:  55 07:34:01 -1007.751249  -2.45  -2.29    +74.9452
iter:  56 07:37:51  -993.329325  -2.70  -1.69    +74.6185
iter:  57 07:41:42  -993.160641  -3.36  -2.37    +74.9906
iter:  58 07:45:35  -993.622494  -3.45  -2.48    +74.7906
iter:  59 07:49:27  -993.286792  -3.96  -2.33    +74.6431
iter:  60 07:53:20  -993.111732  -4.31  -2.42    +74.3244
iter:  61 07:57:13  -993.814827  -3.24  -2.50    +74.5045
iter:  62 08:01:05  -993.456040  -3.36  -2.26    +74.5488
iter:  63 08:04:53  -993.167600  -4.07  -2.37    +74.3346
iter:  64 08:08:46  -992.863173  -3.87  -2.50    +74.2191
iter:  65 08:12:38  -992.889262  -3.93  -2.82    +74.2871
iter:  66 08:16:30  -993.049710  -3.84  -2.80    +74.6460
iter:  67 08:20:23  -992.874698  -4.32  -2.64    +74.2642
iter:  68 08:24:15  -992.907298  -4.42  -3.04    +74.2878
iter:  69 08:28:08  -992.886832c -4.86  -2.96    +74.4634
iter:  70 08:32:00  -992.890447c -4.74  -3.08    +74.6316
iter:  71 08:35:52  -992.898495c -4.79  -3.11    +74.4262
iter:  72 08:39:44  -992.987241c -4.32  -3.09    +74.2461
iter:  73 08:43:36  -992.896007c -4.65  -2.78    +74.3396
iter:  74 08:47:27  -992.916760c -4.68  -3.20    +74.2590
iter:  75 08:51:19  -992.920752c -4.80  -3.11    +74.4726
iter:  76 08:55:11  -992.917444c -5.82  -3.24    +74.4614
iter:  77 08:59:01  -992.920614c -5.27  -3.26    +74.4524
iter:  78 09:02:50  -992.938897c -5.09  -3.28    +74.5217
iter:  79 09:06:42  -992.920515c -4.91  -3.17    +74.3610
iter:  80 09:10:34  -992.982393c -3.71  -3.19    +74.9014
iter:  81 09:14:27  -992.993165c -4.48  -3.02    +74.8984
iter:  82 09:18:19  -993.002914c -4.58  -2.98    +74.8409
iter:  83 09:22:11  -993.113090c -4.29  -2.95    +74.7307
iter:  84 09:26:02  -993.014778c -4.58  -2.64    +74.7001
iter:  85 09:29:54  -993.043700c -4.03  -2.94    +74.5416
iter:  86 09:33:46  -992.974962c -4.37  -2.82    +74.6168
iter:  87 09:37:38  -993.038253c -3.93  -2.95    +74.4740
iter:  88 09:41:31  -992.981989c -4.23  -2.84    +74.3805
iter:  89 09:45:23  -992.970412c -4.66  -3.06    +74.3833
iter:  90 09:49:13  -993.070613c -4.51  -3.20    +74.3585
iter:  91 09:53:04  -992.970244c -4.60  -2.77    +74.3353
iter:  92 09:56:56  -992.964104c -5.10  -3.22    +74.4655
iter:  93 10:00:47  -992.968620c -5.20  -3.43    +74.4085
iter:  94 10:04:39  -992.966273c -5.36  -3.37    +74.4031
iter:  95 10:08:31  -992.966576c -5.57  -3.43    +74.3491
iter:  96 10:12:21  -993.001981c -5.02  -3.50    +74.3414
iter:  97 10:16:00  -992.968117c -5.26  -2.98    +74.3962
iter:  98 10:19:41  -992.966262c -5.44  -3.50    +74.3595
iter:  99 10:23:53  -992.969303c -5.60  -3.54    +74.3481
iter: 100 10:27:50  -992.968181c -5.48  -3.42    +74.3630
iter: 101 10:31:30  -992.967873c -5.58  -3.53    +74.3839
iter: 102 10:35:09  -992.998936c -5.11  -3.47    +74.4071
iter: 103 10:38:48  -992.966446c -5.37  -3.06    +74.3729
iter: 104 10:42:27  -992.967025c -5.82  -3.62    +74.4122
iter: 105 10:46:05  -992.966352c -6.46  -3.66    +74.3984
iter: 106 10:49:47  -992.967120c -6.13  -3.76    +74.3892
iter: 107 10:53:28  -992.968226c -5.89  -3.68    +74.3665
iter: 108 10:57:08  -992.974607c -5.64  -3.70    +74.3561
iter: 109 11:01:03  -992.968010c -5.75  -3.27    +74.3987
iter: 110 11:05:15  -992.967739c -5.75  -3.76    +74.3803
iter: 111 11:08:55  -992.967078c -6.07  -3.70    +74.3624
iter: 112 11:12:36  -992.966787c -6.44  -3.86    +74.3485
iter: 113 11:16:16  -992.966608c -6.68  -3.94    +74.3563
iter: 114 11:19:56  -992.968404c -6.56  -3.93    +74.3581
iter: 115 11:23:36  -992.966611c -6.63  -3.76    +74.3495
iter: 116 11:27:16  -992.966997c -6.80  -3.91    +74.3561
iter: 117 11:31:45  -992.966683c -6.63  -3.94    +74.3582
iter: 118 11:35:25  -992.966964c -6.61  -3.99    +74.3617
iter: 119 11:39:05  -992.967493c -6.46  -3.99    +74.3558
iter: 120 11:42:44  -992.967766c -6.30  -3.97    +74.3464
iter: 121 11:46:24  -992.967289c -6.39  -3.62    +74.3698
iter: 122 11:50:05  -992.966918c -7.10  -4.03c   +74.3581
iter: 123 11:53:45  -992.967146c -6.95  -4.12c   +74.3504
iter: 124 11:57:24  -992.966961c -7.06  -4.12c   +74.3373
iter: 125 12:01:03  -992.966936c -7.04  -4.16c   +74.3389
iter: 126 12:04:43  -992.970436c -6.30  -4.16c   +74.3375
iter: 127 12:08:22  -992.967034c -6.23  -3.61    +74.3279
iter: 128 12:12:01  -992.967120c -6.79  -3.90    +74.3381
iter: 129 12:15:56  -992.966859c -6.80  -4.22c   +74.3364
iter: 130 12:20:08  -992.967101c -6.98  -4.18c   +74.3426
iter: 131 12:23:48  -992.967139c -7.65c -4.30c   +74.3382

Converged after 131 iterations.

Dipole moment: (52.374661, 28.869972, -0.013486) |e|*Ang

Total magnetic moment: (0.000000, 0.000000, 74.338190)
Local magnetic moments:
   0 Cr ( 0.000000,  0.000000, -2.124723)
   1 Co ( 0.000000,  0.000000,  1.498861)
   2 Co ( 0.000000,  0.000000,  1.165772)
   3 Cr ( 0.000000,  0.000000, -2.233313)
   4 Ni ( 0.000000,  0.000000,  0.090841)
   5 Ni ( 0.000000,  0.000000,  0.354498)
   6 Co ( 0.000000,  0.000000,  1.240184)
   7 Cr ( 0.000000,  0.000000, -2.303043)
   8 Co ( 0.000000,  0.000000,  1.315318)
   9 Co ( 0.000000,  0.000000,  1.245270)
  10 Cr ( 0.000000,  0.000000, -2.014606)
  11 Co ( 0.000000,  0.000000,  1.208974)
  12 Co ( 0.000000,  0.000000,  1.524937)
  13 Cr ( 0.000000,  0.000000, -2.399270)
  14 Ni ( 0.000000,  0.000000,  0.249631)
  15 Co ( 0.000000,  0.000000,  1.063288)
  16 Co ( 0.000000,  0.000000,  1.401084)
  17 Co ( 0.000000,  0.000000,  1.432303)
  18 Cr ( 0.000000,  0.000000,  1.561230)
  19 Ni ( 0.000000,  0.000000,  0.278580)
  20 Cr ( 0.000000,  0.000000, -1.869949)
  21 Ni ( 0.000000,  0.000000,  0.275188)
  22 Fe ( 0.000000,  0.000000,  2.469219)
  23 Co ( 0.000000,  0.000000,  0.974001)
  24 Fe ( 0.000000,  0.000000,  2.271519)
  25 Co ( 0.000000,  0.000000, -0.010554)
  26 Co ( 0.000000,  0.000000,  1.120635)
  27 Cr ( 0.000000,  0.000000, -1.199018)
  28 Fe ( 0.000000,  0.000000,  1.772553)
  29 Cr ( 0.000000,  0.000000,  0.120581)
  30 Fe ( 0.000000,  0.000000,  1.737664)
  31 Fe ( 0.000000,  0.000000,  2.017660)
  32 Ni ( 0.000000,  0.000000,  0.211851)
  33 Fe ( 0.000000,  0.000000,  2.001690)
  34 Cr ( 0.000000,  0.000000, -0.580327)
  35 Cr ( 0.000000,  0.000000, -0.413936)
  36 Fe ( 0.000000,  0.000000,  1.764323)
  37 Ni ( 0.000000,  0.000000,  0.348832)
  38 Ni ( 0.000000,  0.000000,  0.308316)
  39 Fe ( 0.000000,  0.000000,  1.923243)
  40 Cr ( 0.000000,  0.000000, -0.083076)
  41 Fe ( 0.000000,  0.000000,  2.120162)
  42 Co ( 0.000000,  0.000000,  1.341170)
  43 Fe ( 0.000000,  0.000000,  1.639014)
  44 Fe ( 0.000000,  0.000000,  1.515938)
  45 Cr ( 0.000000,  0.000000, -0.017112)
  46 Ni ( 0.000000,  0.000000,  0.279110)
  47 Ni ( 0.000000,  0.000000,  0.156052)
  48 Cr ( 0.000000,  0.000000, -0.619983)
  49 Co ( 0.000000,  0.000000,  0.444224)
  50 Cr ( 0.000000,  0.000000, -0.153456)
  51 Ni ( 0.000000,  0.000000,  0.183768)
  52 Fe ( 0.000000,  0.000000,  1.929912)
  53 Cr ( 0.000000,  0.000000, -1.087603)
  54 Co ( 0.000000,  0.000000,  0.693838)
  55 Cr ( 0.000000,  0.000000, -1.336715)
  56 Fe ( 0.000000,  0.000000,  1.845099)
  57 Cr ( 0.000000,  0.000000, -1.154060)
  58 Ni ( 0.000000,  0.000000,  0.180137)
  59 Ni ( 0.000000,  0.000000,  0.211772)
  60 Fe ( 0.000000,  0.000000,  1.770094)
  61 Cr ( 0.000000,  0.000000, -1.555746)
  62 Fe ( 0.000000,  0.000000,  1.964296)
  63 Cr ( 0.000000,  0.000000, -1.328689)
  64 Ni ( 0.000000,  0.000000,  0.137527)
  65 Co ( 0.000000,  0.000000,  0.434459)
  66 Fe ( 0.000000,  0.000000,  1.854345)
  67 Fe ( 0.000000,  0.000000, -1.214627)
  68 Cr ( 0.000000,  0.000000, -0.844290)
  69 Cr ( 0.000000,  0.000000, -1.071167)
  70 Cr ( 0.000000,  0.000000, -0.135227)
  71 Cr ( 0.000000,  0.000000, -1.061134)
  72 Cr ( 0.000000,  0.000000,  0.657076)
  73 Co ( 0.000000,  0.000000,  0.394953)
  74 Fe ( 0.000000,  0.000000,  1.445969)
  75 Fe ( 0.000000,  0.000000,  2.360472)
  76 Ni ( 0.000000,  0.000000,  0.420559)
  77 Co ( 0.000000,  0.000000,  1.570407)
  78 Ni ( 0.000000,  0.000000,  0.386027)
  79 Fe ( 0.000000,  0.000000,  2.205243)
  80 Fe ( 0.000000,  0.000000,  2.255364)
  81 Fe ( 0.000000,  0.000000,  2.081132)
  82 Fe ( 0.000000,  0.000000,  2.124659)
  83 Fe ( 0.000000,  0.000000,  2.135157)
  84 Ni ( 0.000000,  0.000000,  0.520994)
  85 Ni ( 0.000000,  0.000000,  0.344718)
  86 Fe ( 0.000000,  0.000000,  1.912720)
  87 Ni ( 0.000000,  0.000000,  0.228808)
  88 Fe ( 0.000000,  0.000000,  2.048414)
  89 Fe ( 0.000000,  0.000000,  2.172064)
  90 Fe ( 0.000000,  0.000000,  2.034538)
  91 Ni ( 0.000000,  0.000000,  0.362481)
  92 Fe ( 0.000000,  0.000000,  2.225237)
  93 Ni ( 0.000000,  0.000000,  0.370679)
  94 Fe ( 0.000000,  0.000000,  1.953104)
  95 Co ( 0.000000,  0.000000,  1.236526)
  96 Co ( 0.000000,  0.000000,  1.242322)
  97 Ni ( 0.000000,  0.000000,  0.488921)
  98 Ni ( 0.000000,  0.000000,  0.386958)
  99 Cr ( 0.000000,  0.000000, -0.326948)
 100 Ni ( 0.000000,  0.000000,  0.621237)
 101 Fe ( 0.000000,  0.000000,  2.827464)
 102 Co ( 0.000000,  0.000000,  1.740814)
 103 Co ( 0.000000,  0.000000,  1.471500)
 104 Ni ( 0.000000,  0.000000,  0.407228)
 105 Co ( 0.000000,  0.000000,  1.592494)
 106 Ni ( 0.000000,  0.000000,  0.568063)
 107 Co ( 0.000000,  0.000000,  1.604086)
 108 Co ( 0.000000,  0.000000,  1.590196)
 109 Ni ( 0.000000,  0.000000,  0.684509)
 110 Cr ( 0.000000,  0.000000, -2.595605)
 111 Ni ( 0.000000,  0.000000,  0.412725)
 112 Cr ( 0.000000,  0.000000, -2.304779)
 113 Co ( 0.000000,  0.000000,  1.373350)
 114 Co ( 0.000000,  0.000000,  1.641709)
 115 Fe ( 0.000000,  0.000000,  2.437899)
 116 Cr ( 0.000000,  0.000000,  2.091642)
 117 Cr ( 0.000000,  0.000000, -2.413551)
 118 Ni ( 0.000000,  0.000000,  0.557233)
 119 Co ( 0.000000,  0.000000,  1.490291)
 120 Ni ( 0.000000,  0.000000,  0.420042)
 121 Ni ( 0.000000,  0.000000,  0.425144)
 122 Co ( 0.000000,  0.000000,  1.608276)
 123 Co ( 0.000000,  0.000000,  1.617960)
 124 Cr ( 0.000000,  0.000000, -2.422416)

Energy contributions relative to reference atoms: (reference = -4451268.207082)

Kinetic:       +244.391394
Potential:     -298.933618
External:        +0.000000
XC:            -981.223375
Entropy (-ST):   -5.666069
Local:          +45.631495
--------------------------
Free energy:   -995.800173
Extrapolated:  -992.967139

Dipole-layer corrected work functions: 4.936084, 4.954274 eV

Spin contamination: 44.424921 electrons
Showing all kpts
                      Up                     Down
 Kpt  Band  Eigenvalues  Occupancy  Eigenvalues  Occupancy
  0   606     -0.04737    0.99609      0.84654    0.03230
  0   607     -0.03500    0.99557      0.85389    0.03008
  0   608     -0.01928    0.99482      0.85797    0.02891
  0   609     -0.00087    0.99378      0.87049    0.02559

  1   606     -0.02882    0.99529      0.84643    0.03233
  1   607     -0.01156    0.99441      0.85394    0.03006
  1   608     -0.00348    0.99394      0.86964    0.02581
  1   609      0.01285    0.99287      0.88275    0.02271


Fermi level: 0.50654

No gap

Forces in eV/Ang:
  0 Cr    0.30871    0.42660   -0.22782
  1 Co    0.03212    0.11907    0.11547
  2 Co    0.03390   -0.10719    0.12629
  3 Cr    0.35733   -0.70734   -0.13632
  4 Ni    0.15068    0.26337   -0.24559
  5 Ni   -0.17920   -0.00271   -0.22457
  6 Co   -0.16561   -0.11822    0.07596
  7 Cr   -0.51242    0.97396   -0.18902
  8 Co    0.15376   -0.06955    0.17003
  9 Co    0.11097   -0.09823    0.37115
 10 Cr    0.15673    0.06320   -0.21748
 11 Co    0.03470    0.15289    0.45440
 12 Co   -0.18390    0.15269    0.17521
 13 Cr   -0.18626   -0.03211   -0.11389
 14 Ni    0.21745   -0.29682   -0.11524
 15 Co    0.06290   -0.03333    0.32551
 16 Co   -0.10859   -0.10206   -0.08114
 17 Co   -0.30162   -0.09488    0.06339
 18 Cr    0.40646    0.01656   -0.36522
 19 Ni    0.13930    0.09648    0.07079
 20 Cr   -0.28860   -0.51026    0.01940
 21 Ni    0.00636   -0.07774    0.03387
 22 Fe   -0.08522    0.29056   -0.23773
 23 Co   -0.34943    0.02143    0.02560
 24 Fe   -0.05730   -0.30951   -0.04689
 25 Co   -0.35216    0.17209    0.18785
 26 Co    0.03680    0.17164    0.06164
 27 Cr   -0.09577    0.11211   -0.15503
 28 Fe   -0.14732    0.03328    0.08070
 29 Cr    0.46041   -0.38341   -0.22586
 30 Fe   -0.22857   -0.04065   -0.22159
 31 Fe    0.08750   -0.15043   -0.21081
 32 Ni    0.10463   -0.03432    0.04284
 33 Fe   -0.01435    0.11987   -0.09031
 34 Cr    0.16303   -0.03267    0.07962
 35 Cr    0.19888    0.16654   -0.53900
 36 Fe    0.18976   -0.02258   -0.49521
 37 Ni    0.13664    0.18679   -0.20500
 38 Ni   -0.16607   -0.14483   -0.02360
 39 Fe   -0.25266   -0.17124   -0.29964
 40 Cr    0.39365    0.01500   -0.05976
 41 Fe    0.04034    0.06352   -0.31396
 42 Co   -0.10035   -0.02686   -0.15349
 43 Fe   -0.16412   -0.01788    0.30499
 44 Fe   -0.08132    0.21071   -0.11498
 45 Cr    0.07540   -0.01777   -0.08769
 46 Ni   -0.06465   -0.13882   -0.12598
 47 Ni    0.01124   -0.28522    0.06461
 48 Cr    0.17470    0.09467   -0.24855
 49 Co    0.10800    0.04876    0.25346
 50 Cr   -0.28524   -0.18430   -0.11850
 51 Ni    0.02270   -0.01177   -0.01632
 52 Fe    0.22710    0.16670    0.01615
 53 Cr    0.05156   -0.25770   -0.10506
 54 Co    0.21572    0.03985   -0.30505
 55 Cr   -0.03404    0.15673    0.11919
 56 Fe   -0.00834   -0.18754   -0.22734
 57 Cr   -0.03137   -0.26276   -0.10273
 58 Ni    0.18434   -0.12451   -0.17375
 59 Ni   -0.04312   -0.22923   -0.14466
 60 Fe    0.03981    0.26102    0.15129
 61 Cr   -0.30783    0.30306   -0.15520
 62 Fe   -0.04359   -0.04135   -0.24359
 63 Cr   -0.01032    0.02907   -0.15087
 64 Ni   -0.14344    0.05193   -0.09749
 65 Co   -0.00769    0.08964   -0.15049
 66 Fe   -0.16389    0.05910    0.02293
 67 Fe    0.37197    0.15909   -0.21450
 68 Cr   -0.29274   -0.02431    0.15243
 69 Cr    0.35789    0.22438   -0.19430
 70 Cr   -0.34226    0.25148    0.16136
 71 Cr   -0.08361    0.04479   -0.01514
 72 Cr    0.27059   -0.45845    0.15225
 73 Co    0.09251   -0.05181   -0.09990
 74 Fe   -0.18315   -0.08343   -0.05654
 75 Fe    0.10205   -0.23706   -0.06472
 76 Ni   -0.01859   -0.09188   -0.06977
 77 Co    0.07164    0.12310    0.11935
 78 Ni   -0.16887    0.02267    0.15287
 79 Fe   -0.00461   -0.12050   -0.09643
 80 Fe   -0.03745   -0.15507    0.23319
 81 Fe    0.24237   -0.05086    0.33131
 82 Fe   -0.21104   -0.17962    0.30314
 83 Fe   -0.02268   -0.01729    0.31976
 84 Ni    0.07804   -0.09798    0.05521
 85 Ni   -0.06145    0.20890    0.20736
 86 Fe   -0.01262    0.11977   -0.42249
 87 Ni    0.06537    0.06580   -0.11805
 88 Fe    0.08799    0.02018    0.18081
 89 Fe   -0.07215    0.11733    0.22644
 90 Fe    0.22500    0.08862   -0.22403
 91 Ni    0.01924    0.02688   -0.30621
 92 Fe   -0.18340    0.36571    0.09188
 93 Ni   -0.06528    0.12684   -0.04620
 94 Fe   -0.03743    0.09817    0.00646
 95 Co   -0.07929   -0.08622    0.00130
 96 Co   -0.05755   -0.09764   -0.14143
 97 Ni   -0.02439   -0.03544   -0.00584
 98 Ni    0.22291   -0.00439    0.15545
 99 Cr   -0.12553   -0.00320   -0.09628
100 Ni   -0.02354    0.09513    0.17262
101 Fe    0.00020   -0.06389    0.31989
102 Co    0.22677   -0.00343   -0.11413
103 Co   -0.12952   -0.07696    0.05307
104 Ni   -0.08166    0.12712    0.32012
105 Co   -0.23894    0.05515    0.02669
106 Ni    0.16134   -0.06928    0.10870
107 Co   -0.18612   -0.10821    0.08553
108 Co    0.15035    0.00059   -0.03101
109 Ni    0.04425    0.13990    0.17754
110 Cr    0.02811   -0.18429    0.41153
111 Ni   -0.11575   -0.16431    0.26888
112 Cr   -0.28462   -0.86169    0.24556
113 Co    0.04969   -0.09206   -0.18568
114 Co   -0.14342    0.03448   -0.19268
115 Fe   -0.45424    0.05598    0.06265
116 Cr    0.46839   -0.01636    0.43416
117 Cr    0.59071    0.70308    0.43818
118 Ni    0.13388    0.00801    0.35946
119 Co   -0.36509    0.05903   -0.29270
120 Ni    0.00211    0.16323    0.15090
121 Ni    0.06542    0.16137    0.18588
122 Co    0.07833    0.05232    0.16848
123 Co   -0.02223    0.00692    0.03000
124 Cr   -0.00204   -0.09596    0.40688

Timing:                              incl.     excl.
-----------------------------------------------------------
Forces:                             50.892    50.892   0.2% |
Hamiltonian:                         2.092     0.018   0.0% |
 Atomic:                             0.443     0.002   0.0% |
  XC Correction:                     0.441     0.441   0.0% |
 Calculate atomic Hamiltonians:      0.959     0.959   0.0% |
 Communicate:                        0.071     0.071   0.0% |
 Initialize Hamiltonian:             0.001     0.001   0.0% |
 Poisson:                            0.141     0.141   0.0% |
 XC 3D grid:                         0.459     0.459   0.0% |
LCAO initialization:               407.955     0.497   0.0% |
 LCAO eigensolver:                  29.903     0.032   0.0% |
  Calculate projections:             0.000     0.000   0.0% |
  DenseAtomicCorrection:             0.000     0.000   0.0% |
  Distribute overlap matrix:        14.468    14.468   0.0% |
  Orbital Layouts:                  15.331    15.331   0.1% |
  Potential matrix:                  0.007     0.007   0.0% |
  Sum over cells:                    0.064     0.064   0.0% |
 LCAO to grid:                     374.526   374.526   1.2% |
 Set positions (LCAO WFS):           3.029     2.625   0.0% |
  Basic WFS set positions:           0.004     0.004   0.0% |
  Basis functions set positions:     0.001     0.001   0.0% |
  P tci:                             0.000     0.000   0.0% |
  ST tci:                            0.162     0.162   0.0% |
  mktci:                             0.236     0.236   0.0% |
PWDescriptor:                        0.146     0.146   0.0% |
SCF-cycle:                       30172.755     1.344   0.0% |
 Davidson:                       29437.603  7318.310  23.9% |---------|
  Apply H:                         505.280   495.854   1.6% ||
   HMM T:                            9.426     9.426   0.0% |
  Subspace diag:                  2705.008     0.084   0.0% |
   calc_h_matrix:                 1156.476   694.938   2.3% ||
    Apply H:                       461.538   451.299   1.5% ||
     HMM T:                         10.239    10.239   0.0% |
   diagonalize:                    292.060   292.060   1.0% |
   rotate_psi:                    1256.387  1256.387   4.1% |-|
  calc. matrices:                 6091.004  5209.999  17.0% |------|
   Apply H:                        881.005   861.163   2.8% ||
    HMM T:                          19.842    19.842   0.1% |
  diagonalize:                   10133.878 10133.878  33.1% |------------|
  rotate_psi:                     2684.124  2684.124   8.8% |---|
 Density:                          423.609     0.006   0.0% |
  Atomic density matrices:           4.905     4.905   0.0% |
  Mix:                             193.597   193.597   0.6% |
  Multipole moments:                 0.119     0.119   0.0% |
  Pseudo density:                  224.981   224.972   0.7% |
   Symmetrize density:               0.009     0.009   0.0% |
 Hamiltonian:                      287.492     2.187   0.0% |
  Atomic:                           58.070     0.258   0.0% |
   XC Correction:                   57.812    57.812   0.2% |
  Calculate atomic Hamiltonians:   149.638   149.638   0.5% |
  Communicate:                       8.856     8.856   0.0% |
  Poisson:                           6.852     6.852   0.0% |
  XC 3D grid:                       61.890    61.890   0.2% |
 Orthonormalize:                    22.706     0.001   0.0% |
  calc_s_matrix:                     2.986     2.986   0.0% |
  inverse-cholesky:                  1.203     1.203   0.0% |
  projections:                      13.643    13.643   0.0% |
  rotate_psi_s:                      4.873     4.873   0.0% |
Set symmetry:                        0.002     0.002   0.0% |
Other:                               8.864     8.864   0.0% |
-----------------------------------------------------------
Total:                                     30642.706 100.0%

Date: Thu Apr 20 12:24:44 2023
