
  ___ ___ ___ _ _ _  
 |   |   |_  | | | | 
 | | | | | . | | | | 
 |__ |  _|___|_____|  22.8.0
 |___|_|             

User:   c.zeng@d0007
Date:   Thu Apr 20 09:46:21 2023
Arch:   x86_64
Pid:    192646
CWD:    /home/c.zeng/projects/hea-corrosion/hea-mlp/data-curation/surface-mcmc/dft-jobs/63
Python: 3.8.1
gpaw:   /home/c.zeng/usr/installs/gpaw/source/gpaw-22.8.0/gpaw
_gpaw:  /home/c.zeng/usr/installs/gpaw/source/gpaw-22.8.0/
        _gpaw.cpython-38-x86_64-linux-gnu.so
ase:    /home/c.zeng/.local/lib/python3.8/site-packages/ase-3.22.1-py3.8.egg/ase (version 3.22.1)
numpy:  /home/c.zeng/.local/lib/python3.8/site-packages/numpy (version 1.24.2)
scipy:  /home/c.zeng/.local/lib/python3.8/site-packages/scipy (version 1.10.1)
libxc:  4.2.3
units:  Angstrom and eV
cores: 30
OpenMP: False
OMP_NUM_THREADS: 1

Input parameters:
  convergence: {energy: 0.0001}
  kpts: [2 2 1]
  maxiter: 666
  mode: {ecut: 350.0,
         name: pw}
  occupations: {fixmagmom: False,
                name: fermi-dirac,
                width: 0.1}
  poissonsolver: {dipolelayer: xy}
  spinpol: True
  symmetry: {point_group: False}
  xc: PBE

System changes: positions, numbers, cell, pbc, initial_charges, initial_magmoms 

Initialize ...

species:
  Co:
    name: Cobalt
    id: 339d20d5b0b93d2de9531a1bee871d91
    Z: 27.0
    valence: 9
    core: 18
    charge: 0.0
    file: /home/c.zeng/usr/data/gpaw-setups-0.9.20000/Co.PBE.gz
    compensation charges: {type: gauss,
                           rc: 0.32,
                           lmax: 2}
    cutoffs: {filter: 1.87,
              core: 2.55}
    valence states:
      #              energy  rcut
      - 4s(2.00)    -5.469   1.005
      - 4p(0.00)    -1.277   1.058
      - 3d(7.00)    -8.205   1.005
      -  s          21.742   1.005
      -  p          25.934   1.058
      -  d          19.007   1.005
  
    # Using partial waves for Co as LCAO basis

  Cr:
    name: Chromium
    id: 33f258bda2ca9f93018e70263a35547b
    Z: 24.0
    valence: 6
    core: 18
    charge: 0.0
    file: /home/c.zeng/usr/data/gpaw-setups-0.9.20000/Cr.PBE.gz
    compensation charges: {type: gauss,
                           rc: 0.35,
                           lmax: 2}
    cutoffs: {filter: 2.14,
              core: 3.04}
    valence states:
      #              energy  rcut
      - 4s(1.00)    -4.007   1.164
      - 4p(0.00)    -0.989   1.217
      - 3d(5.00)    -2.913   1.111
      -  s          23.205   1.164
      -  p          26.223   1.217
      -  d          24.299   1.111
  
    # Using partial waves for Cr as LCAO basis

  Ni:
    name: Nickel
    id: 0d9f38a9d6e76a2886f07bb4381f212b
    Z: 28.0
    valence: 16
    core: 12
    charge: 0.0
    file: /home/c.zeng/usr/data/gpaw-setups-0.9.20000/Ni.PBE.gz
    compensation charges: {type: gauss,
                           rc: 0.36,
                           lmax: 2}
    cutoffs: {filter: 2.14,
              core: 1.98}
    valence states:
      #              energy  rcut
      - 4s(2.00)    -5.642   1.164
      - 3p(6.00)   -71.394   1.207
      - 4p(0.00)    -1.226   1.207
      - 3d(8.00)    -8.875   1.138
      -  s          21.570   1.164
      -  d          18.337   1.138
  
    # Using partial waves for Ni as LCAO basis

  Al:
    name: Aluminium
    id: 0292cae29f5d6237e50f6abdd43a7bdd
    Z: 13.0
    valence: 3
    core: 10
    charge: 0.0
    file: /home/c.zeng/usr/data/gpaw-setups-0.9.20000/Al.PBE.gz
    compensation charges: {type: gauss,
                           rc: 0.34,
                           lmax: 2}
    cutoffs: {filter: 1.91,
              core: 2.36}
    valence states:
      #              energy  rcut
      - 3s(2.00)    -7.753   1.085
      - 3p(1.00)    -2.712   1.085
      -  s          19.459   1.085
      -  p          24.499   1.085
      -  d           0.000   1.085
  
    # Using partial waves for Al as LCAO basis

  Fe:
    name: Iron
    id: 37abbd8d6c3c35915a9b583b742da910
    Z: 26.0
    valence: 8
    core: 18
    charge: 0.0
    file: /home/c.zeng/usr/data/gpaw-setups-0.9.20000/Fe.PBE.gz
    compensation charges: {type: gauss,
                           rc: 0.33,
                           lmax: 2}
    cutoffs: {filter: 2.06,
              core: 2.67}
    valence states:
      #              energy  rcut
      - 4s(2.00)    -5.291   1.164
      - 4p(0.00)    -1.326   1.058
      - 3d(6.00)    -7.505   1.058
      -  s          21.920   1.164
      -  p          25.885   1.058
      -  d          19.706   1.058
  
    # Using partial waves for Fe as LCAO basis

Reference energy: -4275894.041763  # eV

Spin-polarized calculation.
Magnetic moment: 165.900000

Convergence criteria:
 Maximum [total energy] change in last 3 cyles: 0.0001 eV / electron
 Maximum integral of absolute [dens]ity change: 0.0001 electrons / valence electron
 Maximum integral of absolute [eigenst]ate change: 4e-08 eV^2 / valence electron
 Maximum number of scf [iter]ations: 666
 (Square brackets indicate name in SCF output, whereas a 'c' in
 the SCF output indicates the quantity has converged.)

Symmetries present (total): 1

  ( 1  0  0)
  ( 0  1  0)
  ( 0  0  1)

4 k-points: 2 x 2 x 1 Monkhorst-Pack grid
2 k-points in the irreducible part of the Brillouin zone
       k-points in crystal coordinates                weights
   0:     0.25000000   -0.25000000    0.00000000          2/4
   1:     0.25000000    0.25000000    0.00000000          2/4

Wave functions: Plane wave expansion
  Cutoff energy: 350.000 eV
  Number of coefficients (min, max): 58901, 58943
  Pulay-stress correction: 0.000000 eV/Ang^3 (de/decut=0.000000)
  Using FFTW library
  ScaLapack parameters: grid=1x1, blocksize=None
  Wavefunction extrapolation:
    Improved wavefunction reuse through dual PAW basis 

Occupation numbers: Fermi-Dirac:
  width: 0.1000  # eV
 

Eigensolver
   Davidson(niter=2) 

Densities:
  Coarse grid: 54*54*128 grid
  Fine grid: 108*108*256 grid
  Total Charge: 0.000000 

Density mixing:
  Method: difference
  Backend: pulay
  Linear mixing parameter: 0.05
  old densities: 5
  Damping of long wavelength oscillations: 50 

Hamiltonian:
  XC and Coulomb potentials evaluated on a 108*108*256 grid
  Using the PBE Exchange-Correlation functional
  External potential:
    NoExternalPotential
 

XC parameters: PBE with 2 nearest neighbor stencil

Memory estimate:
  Process memory now: 368.97 MiB
  Calculator: 2335.53 MiB
    Density: 17.84 MiB
      Arrays: 6.75 MiB
      Localized functions: 8.39 MiB
      Mixer: 2.70 MiB
    Hamiltonian: 5.27 MiB
      Arrays: 5.01 MiB
      XC: 0.00 MiB
      Poisson: 0.00 MiB
      vbar: 0.25 MiB
    Wavefunctions: 2312.43 MiB
      Arrays psit_nG: 1458.82 MiB
      Eigensolver: 834.29 MiB
      Projections: 3.66 MiB
      Projectors: 1.14 MiB
      PW-descriptor: 14.51 MiB

Total number of cores used: 30
Parallelization over k-points: 2
Domain decomposition: 1 x 3 x 5

Number of atoms: 125
Number of atomic orbitals: 1185
Number of bands in calculation: 811
Number of valence electrons: 1179
Bands to converge: occupied

... initialized

Initializing position-dependent things.

Density initialized from atomic densities
Creating initial wave functions:
  811 bands from LCAO basis set

                                                                  
                                                                  
                                                                  
                                                                  
                             Cr                       Cr          
                               Ni    Co    Ni    Cr    Ni         
                          Co     Ni    Cr    Cr    Co             
                                Fe    Fe    Fe    Al    Cr        
                Co    Cr   NCr   CCo    FAl   Cr    Ni            
           Ni     Fe   FCo   CCo   FCo   Cr     Ni   Ni           
             Cr    Co     CoFe    Ni    Fe     Co                 
                  Co    NNi   FCr   FFe   CNi   ANi               
              Co   NNi   FNi   CCFe  FNCr  NNi   Fe               
               Fe    Fe    Cr    Ni     Fe                        
                          Fe    NCo   CCo   FNi   CNi   Al        
           Fe    Cr   ACr  CCFe   CCr   CFe   CFe   Ni            
            Ni    Fe    Fe    Fe    Ni                            
                       Co    Cr    Al    Cr    Cr                 
       Ni    Cr   CCr    Co    NFe   Co    Ni                     
              Cr    Co    Cr     Cr    Co                         
                                                                  
                                                                  
                                                                  
                                                                  
                                                                  

Positions:
   0 Co    12.486468    1.462777   10.528605    ( 0.0000,  0.0000,  1.5000)
   1 Cr     2.491286    1.427324   10.624355    ( 0.0000,  0.0000,  2.0000)
   2 Co     4.996443    1.433664   10.615695    ( 0.0000,  0.0000,  2.1000)
   3 Cr     7.497692    1.450585   10.618513    ( 0.0000,  0.0000,  2.0000)
   4 Cr     9.980354    1.438381   10.617016    ( 0.0000,  0.0000,  2.1000)
   5 Ni    13.725570    3.599047   10.613993    ( 0.0000,  0.0000,  2.1000)
   6 Co     3.721032    3.570702   10.596763    ( 0.0000,  0.0000,  1.5000)
   7 Co     6.265421    3.568181   10.621801    ( 0.0000,  0.0000,  2.0000)
   8 Ni     8.741341    3.586865   10.615549    ( 0.0000,  0.0000,  2.0000)
   9 Co    11.233064    3.610428   10.573163    ( 0.0000,  0.0000,  0.0000)
  10 Cr    14.927431    5.761281   10.554435    ( 0.0000,  0.0000,  1.5000)
  11 Co     5.002416    5.751707   10.362584    ( 0.0000,  0.0000,  0.0000)
  12 Cr     7.528897    5.754942   10.601782    ( 0.0000,  0.0000,  1.5000)
  13 Al     9.984614    5.751426   10.596909    ( 0.0000,  0.0000,  2.1000)
  14 Cr    12.467830    5.774643   10.569993    ( 0.0000,  0.0000,  0.0000)
  15 Ni    16.185528    7.952943   10.517715    ( 0.0000,  0.0000,  0.0000)
  16 Co     6.281890    7.953062   10.585785    ( 0.0000,  0.0000,  2.0000)
  17 Cr     8.751632    7.929564   10.589659    ( 0.0000,  0.0000,  2.0000)
  18 Co    11.232798    7.933199   10.565472    ( 0.0000,  0.0000,  0.0000)
  19 Co    13.711755    7.928211   10.595530    ( 0.0000,  0.0000,  2.0000)
  20 Al    17.465073   10.103493   10.559367    ( 0.0000,  0.0000,  2.1000)
  21 Ni     7.524528   10.087482   10.585491    ( 0.0000,  0.0000,  2.1000)
  22 Cr     9.999339   10.092837   10.628699    ( 0.0000,  0.0000,  2.1000)
  23 Fe    12.492524   10.103136   10.590364    ( 0.0000,  0.0000,  1.5000)
  24 Co    14.967562   10.103591   10.598553    ( 0.0000,  0.0000,  1.5000)
  25 Ni     0.039549    0.061487   12.592509    ( 0.0000,  0.0000,  0.0000)
  26 Cr     2.543839    0.004196   12.633574    ( 0.0000,  0.0000,  2.1000)
  27 Cr     5.007959    0.016292   12.619485    ( 0.0000,  0.0000,  1.5000)
  28 Al    13.725047   10.821613   12.614847    ( 0.0000,  0.0000,  1.5000)
  29 Fe     9.941746    0.020015   12.634836    ( 0.0000,  0.0000,  2.1000)
  30 Ni     1.280557    2.197634   12.622449    ( 0.0000,  0.0000,  2.0000)
  31 Fe     3.757003    2.159238   12.617870    ( 0.0000,  0.0000,  0.0000)
  32 Fe     6.259391    2.150539   12.632283    ( 0.0000,  0.0000,  0.0000)
  33 Fe     8.729061    2.160536   12.640942    ( 0.0000,  0.0000,  1.5000)
  34 Ni    11.206426    2.199527   12.600112    ( 0.0000,  0.0000,  0.0000)
  35 Fe    14.980028    4.321894   12.623066    ( 0.0000,  0.0000,  1.5000)
  36 Al     5.000637    4.306532   12.605865    ( 0.0000,  0.0000,  0.0000)
  37 Cr     7.511972    4.316766   12.613115    ( 0.0000,  0.0000,  2.0000)
  38 Co     9.977581    4.334444   12.603575    ( 0.0000,  0.0000,  2.0000)
  39 Fe    12.466237    4.352219   12.609857    ( 0.0000,  0.0000,  0.0000)
  40 Ni    16.217374    6.438246   12.562775    ( 0.0000,  0.0000,  2.1000)
  41 Fe     6.249088    6.441384   12.586551    ( 0.0000,  0.0000,  2.1000)
  42 Co     8.734867    6.480104   12.598380    ( 0.0000,  0.0000,  2.1000)
  43 Co    11.217541    6.497393   12.580210    ( 0.0000,  0.0000,  1.5000)
  44 Ni    13.747589    6.470530   12.591629    ( 0.0000,  0.0000,  0.0000)
  45 Fe     4.965631    8.600697   12.619661    ( 0.0000,  0.0000,  0.0000)
  46 Cr     7.527050    8.647229   12.603517    ( 0.0000,  0.0000,  2.0000)
  47 Fe     9.992787    8.639093   12.602137    ( 0.0000,  0.0000,  0.0000)
  48 Ni    12.461146    8.678950   12.599202    ( 0.0000,  0.0000,  2.1000)
  49 Fe    14.923147    8.662851   12.605102    ( 0.0000,  0.0000,  0.0000)
  50 Fe     1.264555    0.726556   14.701676    ( 0.0000,  0.0000,  2.1000)
  51 Cr     3.750060    0.743838   14.683888    ( 0.0000,  0.0000,  1.5000)
  52 Cr     6.237655    0.730758   14.677812    ( 0.0000,  0.0000,  2.1000)
  53 Fe     8.726659    0.737641   14.712772    ( 0.0000,  0.0000,  2.0000)
  54 Cr    11.216460    0.725550   14.709367    ( 0.0000,  0.0000,  2.1000)
  55 Fe     2.513395    2.883675   14.691579    ( 0.0000,  0.0000,  1.5000)
  56 Fe     4.990849    2.893120   14.684241    ( 0.0000,  0.0000,  2.0000)
  57 Cr     7.488486    2.893629   14.696334    ( 0.0000,  0.0000,  0.0000)
  58 Ni     9.972278    2.890664   14.692489    ( 0.0000,  0.0000,  2.0000)
  59 Fe    12.467576    2.877141   14.691667    ( 0.0000,  0.0000,  0.0000)
  60 Ni     3.758526    5.050346   14.670151    ( 0.0000,  0.0000,  2.0000)
  61 Fe     6.246120    5.038056   14.669564    ( 0.0000,  0.0000,  1.5000)
  62 Co     8.732126    5.049902   14.667773    ( 0.0000,  0.0000,  1.5000)
  63 Ni    11.205583    5.023028   14.695277    ( 0.0000,  0.0000,  1.5000)
  64 Ni    13.756582    5.017781   14.684505    ( 0.0000,  0.0000,  2.0000)
  65 Ni     5.010694    7.182699   14.702674    ( 0.0000,  0.0000,  1.5000)
  66 Fe     7.485228    7.189460   14.657588    ( 0.0000,  0.0000,  0.0000)
  67 Fe     9.946463    7.198159   14.653068    ( 0.0000,  0.0000,  2.1000)
  68 Co    12.473405    7.201264   14.677166    ( 0.0000,  0.0000,  0.0000)
  69 Ni    15.017763    7.213900   14.645054    ( 0.0000,  0.0000,  2.1000)
  70 Fe     6.251064    9.372532   14.712302    ( 0.0000,  0.0000,  2.1000)
  71 Ni     8.729758    9.372705   14.658410    ( 0.0000,  0.0000,  0.0000)
  72 Fe    11.200962    9.406124   14.647901    ( 0.0000,  0.0000,  1.5000)
  73 Co    13.749704    9.394894   14.665366    ( 0.0000,  0.0000,  2.0000)
  74 Ni    16.223386    9.399309   14.720785    ( 0.0000,  0.0000,  1.5000)
  75 Cr    12.479408    1.425961   16.738106    ( 0.0000,  0.0000,  1.5000)
  76 Co     2.490684    1.454436   16.739222    ( 0.0000,  0.0000,  1.5000)
  77 Ni     4.964072    1.458060   16.748615    ( 0.0000,  0.0000,  2.0000)
  78 Ni     7.493576    1.474137   16.738664    ( 0.0000,  0.0000,  1.5000)
  79 Fe     9.990724    1.450314   16.751932    ( 0.0000,  0.0000,  2.0000)
  80 Ni    13.736871    3.597619   16.749671    ( 0.0000,  0.0000,  2.1000)
  81 Co     3.731782    3.620695   16.737637    ( 0.0000,  0.0000,  2.0000)
  82 Ni     6.217757    3.600962   16.741893    ( 0.0000,  0.0000,  0.0000)
  83 Cr     8.739843    3.608427   16.720025    ( 0.0000,  0.0000,  2.1000)
  84 Fe    11.236517    3.591755   16.778291    ( 0.0000,  0.0000,  2.0000)
  85 Ni    14.987780    5.779273   16.714506    ( 0.0000,  0.0000,  0.0000)
  86 Fe     4.996827    5.757928   16.729565    ( 0.0000,  0.0000,  1.5000)
  87 Co     7.493878    5.760427   16.738488    ( 0.0000,  0.0000,  2.0000)
  88 Fe     9.975457    5.766269   16.736932    ( 0.0000,  0.0000,  2.0000)
  89 Cr    12.478104    5.731140   16.775473    ( 0.0000,  0.0000,  1.5000)
  90 Ni    16.238159    7.937775   16.730328    ( 0.0000,  0.0000,  2.0000)
  91 Ni     6.231444    7.940404   16.765522    ( 0.0000,  0.0000,  0.0000)
  92 Cr     8.728840    7.936931   16.735611    ( 0.0000,  0.0000,  0.0000)
  93 Fe    11.192557    7.913866   16.746149    ( 0.0000,  0.0000,  0.0000)
  94 Cr    13.768802    7.904897   16.753722    ( 0.0000,  0.0000,  1.5000)
  95 Cr    17.466742   10.100767   16.763996    ( 0.0000,  0.0000,  2.0000)
  96 Fe     7.483726   10.114128   16.752695    ( 0.0000,  0.0000,  0.0000)
  97 Fe     9.946168   10.127316   16.729242    ( 0.0000,  0.0000,  0.0000)
  98 Fe    12.492406   10.089342   16.764671    ( 0.0000,  0.0000,  0.0000)
  99 Al    15.005292   10.118575   16.753076    ( 0.0000,  0.0000,  2.0000)
 100 Cr     6.250979   10.817826   18.755486    ( 0.0000,  0.0000,  2.1000)
 101 Cr     2.491992    0.007607   18.757365    ( 0.0000,  0.0000,  2.0000)
 102 Co     4.959039    0.011376   18.813253    ( 0.0000,  0.0000,  1.5000)
 103 Co     7.505721    0.033872   18.830425    ( 0.0000,  0.0000,  0.0000)
 104 Cr    16.226478   10.816744   18.766934    ( 0.0000,  0.0000,  1.5000)
 105 Ni     1.262456    2.149912   18.735438    ( 0.0000,  0.0000,  2.1000)
 106 Fe     3.733330    2.172036   18.731769    ( 0.0000,  0.0000,  2.1000)
 107 Co     6.235561    2.176310   18.762208    ( 0.0000,  0.0000,  0.0000)
 108 Co     8.740232    2.176277   18.742160    ( 0.0000,  0.0000,  2.0000)
 109 Co    11.216255    2.130427   18.758333    ( 0.0000,  0.0000,  1.5000)
 110 Co     2.521812    4.343315   18.747649    ( 0.0000,  0.0000,  2.1000)
 111 Cr     4.991012    4.329273   18.757688    ( 0.0000,  0.0000,  0.0000)
 112 Cr     7.490880    4.334898   18.725399    ( 0.0000,  0.0000,  2.1000)
 113 Co     9.943770    4.322230   18.730184    ( 0.0000,  0.0000,  2.0000)
 114 Al    12.464525    4.326265   18.943816    ( 0.0000,  0.0000,  0.0000)
 115 Co    16.224051    6.495359   18.723022    ( 0.0000,  0.0000,  2.0000)
 116 Co     6.226814    6.495348   18.761650    ( 0.0000,  0.0000,  0.0000)
 117 Ni     8.730619    6.495759   18.735203    ( 0.0000,  0.0000,  1.5000)
 118 Cr    11.207915    6.503819   18.742835    ( 0.0000,  0.0000,  2.1000)
 119 Cr    13.765796    6.524169   18.782109    ( 0.0000,  0.0000,  0.0000)
 120 Ni    17.450702    8.660601   18.763558    ( 0.0000,  0.0000,  0.0000)
 121 Ni     7.490686    8.670024   18.761621    ( 0.0000,  0.0000,  1.5000)
 122 Co     9.981419    8.673010   18.727630    ( 0.0000,  0.0000,  2.1000)
 123 Ni    12.489241    8.635804   18.838438    ( 0.0000,  0.0000,  0.0000)
 124 Cr    14.988874    8.667774   18.729832    ( 0.0000,  0.0000,  2.1000)

Unit cell:
           periodic     x           y           z      points  spacing
  1. axis:    yes   12.474800    0.000000    0.000000    54     0.2001
  2. axis:    yes    6.246240   10.818800    0.000000    54     0.2003
  3. axis:    no     0.000000    0.000000   29.353100   128     0.2293

  Lengths:  12.474800  12.492476  29.353100
  Angles:   90.000000  90.000000  59.999988

Effective grid spacing dv^(1/3) = 0.2198

     iter     time        total  log10-change:  magmom
                         energy  eigst   dens
iter:   1 09:55:50 -1056.439811                  +165.5127
iter:   2 09:59:28 -2052.395036  +0.36  -1.21    +130.0589
iter:   3 10:02:57 -1426.734548  +0.44  -0.81    +102.6068
iter:   4 10:06:39 -1081.167587  -0.69  -0.98    +68.8503
iter:   5 10:10:14 -1007.781052  -1.33  -1.22    +54.6823
iter:   6 10:13:54  -996.435861  -1.78  -1.33    +47.3883
iter:   7 10:17:39  -992.788679  -1.85  -1.36    +44.1455
iter:   8 10:21:22 -1671.496938  -0.58  -1.37    +44.2859
iter:   9 10:25:08 -1001.821104  -0.71  -0.87    +41.7447
iter:  10 10:28:54  -979.073539  -1.61  -1.35    +39.6753
iter:  11 10:32:37  -966.999621  -1.77  -1.44    +40.5421
iter:  12 10:36:23 -1012.941291  -1.53  -1.57    +40.9568
iter:  13 10:40:11  -998.748334  -1.52  -1.35    +41.6823
iter:  14 10:43:58  -971.900471  -1.61  -1.42    +40.4843
iter:  15 10:47:48  -971.108914  -1.79  -1.67    +39.4916
iter:  16 10:51:37  -985.202416  -1.84  -1.62    +40.6339
iter:  17 10:55:25  -968.512562  -2.02  -1.53    +41.6341
iter:  18 10:59:16  -966.245812  -2.42  -1.68    +42.6900
iter:  19 11:03:03  -967.900250  -2.42  -1.74    +44.0255
iter:  20 11:06:48  -973.176438  -2.22  -1.72    +45.9423
iter:  21 11:10:29  -966.213686  -2.28  -1.66    +46.2330
iter:  22 11:14:11  -965.134764  -2.58  -1.78    +47.6106
iter:  23 11:17:52  -963.841036  -2.85  -1.83    +50.1619
iter:  24 11:21:36  -970.399092  -2.47  -1.89    +52.2508
iter:  25 11:25:18  -964.938987  -2.55  -1.75    +53.4738
iter:  26 11:28:57  -966.266699  -2.84  -1.87    +55.3000
iter:  27 11:32:38  -982.706870  -2.16  -1.90    +57.0161
iter:  28 11:36:19  -967.197837  -2.32  -1.59    +57.1449
iter:  29 11:39:57  -966.647299  -2.62  -1.89    +57.8760
iter:  30 11:43:36  -969.059414  -2.72  -1.97    +59.4436
iter:  31 11:47:17  -972.099756  -2.34  -1.88    +60.0868
iter:  32 11:50:58  -966.046169  -2.75  -1.79    +61.0761
iter:  33 11:54:39  -966.116947  -3.11  -2.07    +62.7764
iter:  34 11:58:18  -967.224495  -2.75  -2.15    +63.9603
iter:  35 12:01:57  -968.251203  -2.86  -2.06    +64.8101
iter:  36 12:05:35  -967.867925  -2.89  -2.01    +65.5075
iter:  37 12:09:15  -969.349456  -2.87  -2.06    +66.8772
iter:  38 12:12:54  -966.850400  -2.98  -1.96    +67.2748
iter:  39 12:16:36  -966.868865  -3.35  -2.22    +68.1309
iter:  40 12:20:15  -967.376758  -3.15  -2.29    +69.1904
iter:  41 12:23:54  -967.095346  -3.52  -2.21    +69.8150
iter:  42 12:27:34  -967.872029  -3.49  -2.30    +70.6625
iter:  43 12:31:13  -969.330913  -3.05  -2.20    +70.9767
iter:  44 12:34:53  -967.794544  -3.09  -2.04    +71.5138
iter:  45 12:38:33  -967.677249  -3.48  -2.25    +72.0067
iter:  46 12:42:11  -968.060272  -3.19  -2.34    +72.3396
iter:  47 12:45:50  -967.835431  -3.33  -2.30    +72.4612
iter:  48 12:49:29  -967.662972  -3.72  -2.33    +72.8797
iter:  49 12:53:08  -968.369912  -3.62  -2.42    +73.3697
iter:  50 12:56:48  -967.832009  -3.56  -2.23    +73.4305
iter:  51 13:00:27  -967.782617  -3.84  -2.41    +73.7857
iter:  52 13:04:05  -968.066005  -3.58  -2.48    +74.0861
iter:  53 13:07:43  -968.414574  -3.30  -2.42    +74.1609
iter:  54 13:11:24  -968.264104  -3.46  -2.33    +74.1339
iter:  55 13:15:05  -969.237362  -3.32  -2.41    +74.1474
iter:  56 13:18:46  -968.142683  -3.39  -2.17    +74.2850
iter:  57 13:22:26  -968.008963  -3.76  -2.48    +74.2047
iter:  58 13:26:06  -968.029788  -4.37  -2.59    +74.2458
iter:  59 13:29:45  -968.266364  -3.80  -2.64    +74.2334
iter:  60 13:33:26  -968.184574  -3.87  -2.49    +74.2974
iter:  61 13:37:07  -968.779502  -3.61  -2.60    +74.3053
iter:  62 13:40:47  -968.256946  -3.67  -2.32    +74.2051
iter:  63 13:44:27  -968.309137  -3.60  -2.71    +74.3003
iter:  64 13:48:06  -968.275634c -3.78  -2.68    +74.2414
iter:  65 13:51:49  -968.249262c -4.12  -2.68    +74.2315
iter:  66 13:55:27  -968.257452c -4.36  -2.88    +74.1606
iter:  67 13:59:07  -968.240048c -4.67  -2.85    +74.2058
iter:  68 14:02:47  -968.272917c -4.60  -3.00    +74.2877
iter:  69 14:06:28  -968.285095c -4.59  -2.97    +74.3387
iter:  70 14:10:08  -968.297299c -4.62  -2.97    +74.3780
iter:  71 14:13:49  -968.342626c -4.44  -2.97    +74.4326
iter:  72 14:17:30  -968.325456c -4.69  -2.88    +74.4241
iter:  73 14:21:10  -968.333105c -4.80  -2.99    +74.4668
iter:  74 14:24:51  -968.345714c -5.20  -2.99    +74.5141
iter:  75 14:28:31  -968.382728c -4.32  -2.96    +74.6962
iter:  76 14:32:10  -968.409669c -5.08  -2.93    +74.7128
iter:  77 14:35:49  -968.396318c -5.15  -2.85    +74.7712
iter:  78 14:39:28  -968.419353c -4.89  -2.89    +74.9452
iter:  79 14:43:08  -968.415615c -5.04  -2.85    +74.9455
iter:  80 14:46:48  -968.476332c -4.73  -2.89    +75.0262
iter:  81 14:50:28  -968.761705  -3.82  -2.76    +75.0741
iter:  82 14:54:08  -968.653181  -3.71  -2.45    +75.1501
iter:  83 14:57:48  -968.415862  -3.94  -2.56    +74.9398
iter:  84 15:01:28  -968.447413  -4.36  -2.86    +74.9252
iter:  85 15:05:09  -968.439905c -4.42  -2.83    +74.9478
iter:  86 15:08:49  -968.392696c -4.60  -2.84    +74.9259
iter:  87 15:12:28  -968.387008c -4.67  -3.05    +74.8921
iter:  88 15:16:08  -968.420971c -4.39  -3.16    +74.9375
iter:  89 15:19:47  -968.452579c -4.46  -2.96    +74.9771
iter:  90 15:23:26  -968.398817c -4.73  -2.85    +74.9015
iter:  91 15:26:50  -968.410936c -4.71  -3.16    +74.8748
iter:  92 15:30:15  -968.413850c -4.86  -3.11    +74.9012
iter:  93 15:33:30  -968.407223c -5.39  -3.08    +74.9290
iter:  94 15:36:42  -968.419171c -5.20  -3.20    +74.9097
iter:  95 15:39:54  -968.508964c -4.33  -3.08    +74.9245
iter:  96 15:43:02  -968.408103c -4.64  -2.71    +74.9502
iter:  97 15:46:09  -968.404765c -5.18  -3.26    +74.9565
iter:  98 15:49:17  -968.408316c -5.09  -3.40    +74.9613
iter:  99 15:52:24  -968.407197c -5.30  -3.39    +74.9465
iter: 100 15:55:30  -968.409123c -5.50  -3.51    +74.9726
iter: 101 15:58:37  -968.412033c -5.67  -3.53    +74.9709
iter: 102 16:01:44  -968.428538c -5.14  -3.29    +74.9672
iter: 103 16:04:50  -968.421596c -5.01  -3.14    +74.9460
iter: 104 16:07:56  -968.418922c -5.08  -3.28    +74.9270
iter: 105 16:11:02  -968.421661c -4.94  -3.43    +74.9243
iter: 106 16:14:07  -968.418050c -5.76  -3.31    +74.9414
iter: 107 16:17:13  -968.425270c -5.57  -3.49    +74.9263
iter: 108 16:20:20  -968.429779c -5.05  -3.31    +74.9283
iter: 109 16:23:25  -968.420376c -5.34  -3.12    +74.9386
iter: 110 16:26:30  -968.418318c -5.52  -3.53    +74.9579
iter: 111 16:29:35  -968.418005c -6.00  -3.63    +74.9584
iter: 112 16:32:39  -968.419017c -5.84  -3.67    +74.9572
iter: 113 16:35:43  -968.420097c -5.96  -3.61    +74.9485
iter: 114 16:38:46  -968.423882c -5.61  -3.60    +74.9531
iter: 115 16:41:49  -968.425465c -6.07  -3.52    +74.9413
iter: 116 16:44:51  -968.424543c -6.32  -3.46    +74.9323
iter: 117 16:47:54  -968.425313c -5.82  -3.54    +74.9099
iter: 118 16:50:57  -968.425428c -5.64  -3.52    +74.9191
iter: 119 16:54:01  -968.446681c -4.97  -3.51    +74.9073
iter: 120 16:57:03  -968.424931c -5.26  -3.01    +74.8998
iter: 121 17:00:06  -968.424657c -5.56  -3.60    +74.9201
iter: 122 17:03:09  -968.422657c -5.82  -3.53    +74.9077
iter: 123 17:06:12  -968.422516c -6.35  -3.76    +74.9168
iter: 124 17:09:15  -968.422719c -6.62  -3.84    +74.9151
iter: 125 17:12:18  -968.423015c -6.99  -3.86    +74.9179
iter: 126 17:15:21  -968.427610c -6.08  -3.87    +74.9215
iter: 127 17:18:25  -968.423904c -6.06  -3.52    +74.9207
iter: 128 17:21:29  -968.423559c -6.17  -3.76    +74.9117
iter: 129 17:24:33  -968.424389c -5.84  -3.81    +74.9281
iter: 130 17:27:37  -968.423659c -5.98  -3.65    +74.9266
iter: 131 17:30:40  -968.424910c -6.37  -3.82    +74.9224
iter: 132 17:33:44  -968.424176c -7.07  -3.80    +74.9218
iter: 133 17:36:48  -968.424603c -6.45  -3.97    +74.9205
iter: 134 17:39:52  -968.424933c -6.35  -3.83    +74.9191
iter: 135 17:42:57  -968.425432c -6.23  -3.95    +74.9047
iter: 136 17:46:00  -968.424055c -6.09  -3.87    +74.9057
iter: 137 17:49:03  -968.424054c -6.29  -3.85    +74.9135
iter: 138 17:52:07  -968.425433c -6.21  -3.78    +74.9137
iter: 139 17:55:17  -968.424505c -6.66  -3.89    +74.9124
iter: 140 17:58:22  -968.424320c -7.18  -4.22c   +74.9047
iter: 141 18:01:27  -968.424452c -7.80c -4.43c   +74.9074

Converged after 141 iterations.

Dipole moment: (45.823004, 23.003600, -0.002668) |e|*Ang

Total magnetic moment: (0.000000, 0.000000, 74.907433)
Local magnetic moments:
   0 Co ( 0.000000,  0.000000,  1.265374)
   1 Cr ( 0.000000,  0.000000,  1.110384)
   2 Co ( 0.000000,  0.000000,  0.942850)
   3 Cr ( 0.000000,  0.000000, -2.141055)
   4 Cr ( 0.000000,  0.000000, -2.407186)
   5 Ni ( 0.000000,  0.000000,  0.332207)
   6 Co ( 0.000000,  0.000000,  1.307953)
   7 Co ( 0.000000,  0.000000,  1.041983)
   8 Ni ( 0.000000,  0.000000,  0.139644)
   9 Co ( 0.000000,  0.000000,  1.236730)
  10 Cr ( 0.000000,  0.000000,  2.098659)
  11 Co ( 0.000000,  0.000000,  1.607856)
  12 Cr ( 0.000000,  0.000000, -2.140266)
  13 Al ( 0.000000,  0.000000, -0.018069)
  14 Cr ( 0.000000,  0.000000, -2.419587)
  15 Ni ( 0.000000,  0.000000,  0.477420)
  16 Co ( 0.000000,  0.000000,  1.050119)
  17 Cr ( 0.000000,  0.000000,  1.702541)
  18 Co ( 0.000000,  0.000000,  1.171484)
  19 Co ( 0.000000,  0.000000,  1.387946)
  20 Al ( 0.000000,  0.000000, -0.034680)
  21 Ni ( 0.000000,  0.000000,  0.107671)
  22 Cr ( 0.000000,  0.000000, -1.782379)
  23 Fe ( 0.000000,  0.000000,  2.272497)
  24 Co ( 0.000000,  0.000000,  0.974645)
  25 Ni ( 0.000000,  0.000000,  0.315733)
  26 Cr ( 0.000000,  0.000000, -0.022534)
  27 Cr ( 0.000000,  0.000000, -0.383808)
  28 Al ( 0.000000,  0.000000, -0.041586)
  29 Fe ( 0.000000,  0.000000,  2.069601)
  30 Ni ( 0.000000,  0.000000,  0.334570)
  31 Fe ( 0.000000,  0.000000,  1.469006)
  32 Fe ( 0.000000,  0.000000,  1.450889)
  33 Fe ( 0.000000,  0.000000,  1.710730)
  34 Ni ( 0.000000,  0.000000,  0.279429)
  35 Fe ( 0.000000,  0.000000,  2.310659)
  36 Al ( 0.000000,  0.000000, -0.051735)
  37 Cr ( 0.000000,  0.000000,  0.074990)
  38 Co ( 0.000000,  0.000000,  1.357301)
  39 Fe ( 0.000000,  0.000000,  2.482383)
  40 Ni ( 0.000000,  0.000000,  0.495793)
  41 Fe ( 0.000000,  0.000000,  2.043894)
  42 Co ( 0.000000,  0.000000,  0.706491)
  43 Co ( 0.000000,  0.000000,  1.337178)
  44 Ni ( 0.000000,  0.000000,  0.477566)
  45 Fe ( 0.000000,  0.000000,  2.474539)
  46 Cr ( 0.000000,  0.000000, -1.404661)
  47 Fe ( 0.000000,  0.000000,  1.541955)
  48 Ni ( 0.000000,  0.000000,  0.463463)
  49 Fe ( 0.000000,  0.000000,  2.571489)
  50 Fe ( 0.000000,  0.000000,  1.445160)
  51 Cr ( 0.000000,  0.000000, -0.990868)
  52 Cr ( 0.000000,  0.000000, -0.858918)
  53 Fe ( 0.000000,  0.000000,  1.778448)
  54 Cr ( 0.000000,  0.000000, -1.120627)
  55 Fe ( 0.000000,  0.000000,  2.224782)
  56 Fe ( 0.000000,  0.000000,  1.933555)
  57 Cr ( 0.000000,  0.000000, -1.027200)
  58 Ni ( 0.000000,  0.000000,  0.168867)
  59 Fe ( 0.000000,  0.000000, -2.099487)
  60 Ni ( 0.000000,  0.000000,  0.451303)
  61 Fe ( 0.000000,  0.000000,  1.949915)
  62 Co ( 0.000000,  0.000000,  0.945865)
  63 Ni ( 0.000000,  0.000000,  0.314645)
  64 Ni ( 0.000000,  0.000000,  0.354848)
  65 Ni ( 0.000000,  0.000000,  0.543591)
  66 Fe ( 0.000000,  0.000000,  2.261438)
  67 Fe ( 0.000000,  0.000000,  2.176576)
  68 Co ( 0.000000,  0.000000,  1.442427)
  69 Ni ( 0.000000,  0.000000,  0.526790)
  70 Fe ( 0.000000,  0.000000,  2.148894)
  71 Ni ( 0.000000,  0.000000,  0.245109)
  72 Fe ( 0.000000,  0.000000,  2.016203)
  73 Co ( 0.000000,  0.000000,  0.954287)
  74 Ni ( 0.000000,  0.000000,  0.245582)
  75 Cr ( 0.000000,  0.000000, -0.185697)
  76 Co ( 0.000000,  0.000000,  1.114303)
  77 Ni ( 0.000000,  0.000000,  0.476438)
  78 Ni ( 0.000000,  0.000000,  0.287931)
  79 Fe ( 0.000000,  0.000000,  1.688402)
  80 Ni ( 0.000000,  0.000000,  0.352918)
  81 Co ( 0.000000,  0.000000,  1.397252)
  82 Ni ( 0.000000,  0.000000,  0.326990)
  83 Cr ( 0.000000,  0.000000, -1.273165)
  84 Fe ( 0.000000,  0.000000,  1.988141)
  85 Ni ( 0.000000,  0.000000,  0.361392)
  86 Fe ( 0.000000,  0.000000,  2.506182)
  87 Co ( 0.000000,  0.000000,  1.143869)
  88 Fe ( 0.000000,  0.000000,  2.062745)
  89 Cr ( 0.000000,  0.000000,  0.981719)
  90 Ni ( 0.000000,  0.000000,  0.299791)
  91 Ni ( 0.000000,  0.000000,  0.346578)
  92 Cr ( 0.000000,  0.000000, -1.740902)
  93 Fe ( 0.000000,  0.000000,  2.008442)
  94 Cr ( 0.000000,  0.000000, -1.465033)
  95 Cr ( 0.000000,  0.000000,  0.751424)
  96 Fe ( 0.000000,  0.000000,  1.650798)
  97 Fe ( 0.000000,  0.000000,  2.193157)
  98 Fe ( 0.000000,  0.000000,  2.401463)
  99 Al ( 0.000000,  0.000000, -0.031436)
 100 Cr ( 0.000000,  0.000000, -1.703835)
 101 Cr ( 0.000000,  0.000000, -2.287010)
 102 Co ( 0.000000,  0.000000,  1.544794)
 103 Co ( 0.000000,  0.000000,  1.296770)
 104 Cr ( 0.000000,  0.000000, -1.901657)
 105 Ni ( 0.000000,  0.000000,  0.211529)
 106 Fe ( 0.000000,  0.000000,  2.547673)
 107 Co ( 0.000000,  0.000000,  1.441104)
 108 Co ( 0.000000,  0.000000,  1.284495)
 109 Co ( 0.000000,  0.000000,  0.983252)
 110 Co ( 0.000000,  0.000000,  1.399580)
 111 Cr ( 0.000000,  0.000000, -2.483759)
 112 Cr ( 0.000000,  0.000000,  1.702628)
 113 Co ( 0.000000,  0.000000,  1.040749)
 114 Al ( 0.000000,  0.000000, -0.009558)
 115 Co ( 0.000000,  0.000000,  1.289037)
 116 Co ( 0.000000,  0.000000,  1.360768)
 117 Ni ( 0.000000,  0.000000,  0.283790)
 118 Cr ( 0.000000,  0.000000, -1.951061)
 119 Cr ( 0.000000,  0.000000, -1.738056)
 120 Ni ( 0.000000,  0.000000,  0.127190)
 121 Ni ( 0.000000,  0.000000,  0.208220)
 122 Co ( 0.000000,  0.000000,  1.389183)
 123 Ni ( 0.000000,  0.000000,  0.182932)
 124 Cr ( 0.000000,  0.000000,  1.818983)

Energy contributions relative to reference atoms: (reference = -4275894.041763)

Kinetic:       +291.414330
Potential:     -323.886825
External:        +0.000000
XC:            -975.904607
Entropy (-ST):   -5.539810
Local:          +42.722555
--------------------------
Free energy:   -971.194356
Extrapolated:  -968.424452

Dipole-layer corrected work functions: 4.921340, 4.924916 eV

Spin contamination: 42.408571 electrons
Showing all kpts
                      Up                     Down
 Kpt  Band  Eigenvalues  Occupancy  Eigenvalues  Occupancy
  0   587     -0.03819    0.99547      0.83874    0.03305
  0   588     -0.03222    0.99520      0.85100    0.02935
  0   589     -0.02365    0.99477      0.85567    0.02805
  0   590     -0.00880    0.99394      0.86832    0.02480

  1   587     -0.00589    0.99376      0.84555    0.03094
  1   588      0.00071    0.99333      0.85201    0.02906
  1   589      0.00445    0.99308      0.85921    0.02710
  1   590      0.00839    0.99281      0.86975    0.02445


Fermi level: 0.50112

No gap

Forces in eV/Ang:
  0 Co   -0.06276    0.32225    0.72300
  1 Cr    0.26533    0.05826    0.05313
  2 Co   -0.23617    0.26028    0.49606
  3 Cr   -0.85586    0.70725   -0.84011
  4 Cr    0.23061    0.51725   -0.22224
  5 Ni   -0.15053   -0.21028   -0.21451
  6 Co    0.39388    0.06442   -0.11277
  7 Co   -0.15586    0.22890   -0.14321
  8 Ni    0.01062   -0.05307   -0.15521
  9 Co    0.43295   -0.25840    0.34946
 10 Cr    0.19369    0.09505   -0.37688
 11 Co    0.21012    0.11960    0.92988
 12 Cr   -1.50984    0.24748   -0.24658
 13 Al    0.17755   -0.39362   -1.07631
 14 Cr    0.93757   -0.08306   -0.17410
 15 Ni    0.24012   -0.33527    0.31226
 16 Co   -0.46851   -0.43295    0.29797
 17 Cr   -0.66705    0.39336   -0.18009
 18 Co    0.36592    0.14960    0.47369
 19 Co    0.02298    0.55257    0.07598
 20 Al    0.71087   -0.67433   -0.77752
 21 Ni   -0.20530    0.06660   -0.11729
 22 Cr    0.06251    0.08251   -0.39611
 23 Fe   -0.02634   -0.50435   -0.43526
 24 Co   -0.06743   -0.05721    0.00268
 25 Ni   -0.31087   -0.23071    0.31450
 26 Cr   -0.19628    0.47377   -0.11994
 27 Cr   -0.84069    0.24287   -0.28576
 28 Al    0.53728   -0.49856    0.50381
 29 Fe    0.60664   -0.11386    0.17230
 30 Ni   -0.36193   -0.40007    0.16994
 31 Fe   -0.05442   -0.57123   -0.36179
 32 Fe   -0.14877   -0.02717   -0.26712
 33 Fe    0.13479    0.30501   -0.21923
 34 Ni    0.37607   -0.21842    0.09689
 35 Fe   -0.32295   -0.23118   -0.03616
 36 Al   -0.55918    0.35057   -0.40437
 37 Cr    0.91506    0.04464   -0.12389
 38 Co   -0.02932   -0.20589    0.52252
 39 Fe   -0.15724   -0.05093   -0.09187
 40 Ni    0.27235    0.38221   -0.06785
 41 Fe    0.06491    0.60287   -0.51225
 42 Co   -0.07913   -0.04208    0.65587
 43 Co    0.36341    0.23835    0.56995
 44 Ni   -0.30633    0.15257    0.42387
 45 Fe    0.34148    0.19019    0.19195
 46 Cr   -0.32657   -0.13663   -0.37224
 47 Fe    0.11408   -0.01092    0.16052
 48 Ni    0.01423   -0.47210    0.07934
 49 Fe    0.48645   -0.73785   -0.07586
 50 Fe   -0.16579    0.09763   -0.35358
 51 Cr   -0.23301    0.00872    0.25596
 52 Cr   -0.35918   -0.23750    0.73309
 53 Fe   -0.12358    0.13011   -0.28475
 54 Cr    0.29783    0.00386   -0.40580
 55 Fe   -0.32702   -0.03613   -0.09998
 56 Fe    0.06879   -0.21088    0.47966
 57 Cr   -0.20724    0.13628   -0.39231
 58 Ni    0.06944    0.07755   -0.06157
 59 Fe    0.19086   -0.18567    0.25761
 60 Ni   -0.05059    0.03759   -0.02622
 61 Fe    0.28151   -0.02675    0.21444
 62 Co    0.01303   -0.02804   -0.09399
 63 Ni    0.18876    0.26718   -0.26123
 64 Ni   -0.35881    0.41080   -0.12064
 65 Ni    0.05591    0.40612   -0.36045
 66 Fe   -0.03207   -0.09093    0.21280
 67 Fe    0.46965   -0.11979    0.10117
 68 Co   -0.13792    0.04061   -0.03486
 69 Ni   -0.45922    0.04991    0.07681
 70 Fe   -0.04292    0.27136   -0.60865
 71 Ni    0.12816    0.01658    0.17008
 72 Fe    0.45184   -0.35763   -0.08541
 73 Co   -0.40066   -0.33137    0.20169
 74 Ni    0.04630   -0.39580   -0.46316
 75 Cr    0.11430    0.37504    0.29316
 76 Co    0.04947   -0.23196   -0.08070
 77 Ni    0.27195   -0.07165   -0.02062
 78 Ni   -0.20884   -0.17554    0.33291
 79 Fe    0.04613    0.70537    0.24502
 80 Ni   -0.06097    0.30055   -0.11309
 81 Co    0.07861   -0.08497   -0.04123
 82 Ni   -0.05300    0.03121   -0.29418
 83 Cr    0.20599    0.24062    0.34147
 84 Fe   -0.29908   -0.29881   -0.32491
 85 Ni    0.12050   -0.21558    0.39558
 86 Fe    0.21524   -0.01308    0.36073
 87 Co   -0.18911    0.01046   -0.00695
 88 Fe   -0.40455   -0.04420    0.06717
 89 Cr    0.36683    0.75963   -0.23553
 90 Ni   -0.09621   -0.19186   -0.08935
 91 Ni    0.12507   -0.12369   -0.31634
 92 Cr   -0.04616   -0.06057    0.27569
 93 Fe    0.45513    0.29239    0.23516
 94 Cr   -0.74174    0.10050   -0.53246
 95 Cr    0.94462   -0.33273    0.57405
 96 Fe    0.12666   -0.02047   -0.06203
 97 Fe    0.30168    0.06468    0.24836
 98 Fe   -0.34249    0.04645    0.37878
 99 Al   -0.99432    0.42769   -1.04520
100 Cr   -0.37907    0.13539    0.06405
101 Cr    0.36429    0.04040   -0.02480
102 Co    0.58184   -0.08293   -0.39812
103 Co   -0.54749    0.11181   -0.31213
104 Cr    0.20788    0.73655    0.57187
105 Ni   -0.20520    0.19090    0.24106
106 Fe    0.08123   -0.13617    0.30571
107 Co    0.16612   -0.52493   -0.19496
108 Co   -0.09637    0.00320    0.00038
109 Co   -0.20308   -0.12725   -0.28091
110 Co    0.06117    0.09161   -0.37099
111 Cr   -0.27981    0.18378    0.38295
112 Cr    0.42715    0.01160    0.17927
113 Co    0.16055   -0.07913   -0.00294
114 Al    0.18182   -1.11298    0.70329
115 Co    0.17138   -0.12933   -0.10155
116 Co    0.03163    0.14736   -0.25028
117 Ni   -0.15221    0.13777    0.17784
118 Cr   -0.40170    0.51554   -0.04658
119 Cr    0.27981   -0.33647    0.02831
120 Ni    0.33102   -0.32100    0.03886
121 Ni    0.04899   -0.37267    0.13498
122 Co   -0.02798   -0.15032   -0.02105
123 Ni   -0.20030    0.28000   -0.42912
124 Cr   -0.33137   -0.54264    0.80180

Timing:                              incl.     excl.
-----------------------------------------------------------
Forces:                             48.882    48.882   0.2% |
Hamiltonian:                         2.223     0.018   0.0% |
 Atomic:                             0.409     0.001   0.0% |
  XC Correction:                     0.408     0.408   0.0% |
 Calculate atomic Hamiltonians:      1.123     1.123   0.0% |
 Communicate:                        0.097     0.097   0.0% |
 Initialize Hamiltonian:             0.001     0.001   0.0% |
 Poisson:                            0.137     0.137   0.0% |
 XC 3D grid:                         0.438     0.438   0.0% |
LCAO initialization:               344.050     0.568   0.0% |
 LCAO eigensolver:                  20.200     0.013   0.0% |
  Calculate projections:             0.000     0.000   0.0% |
  DenseAtomicCorrection:             0.000     0.000   0.0% |
  Distribute overlap matrix:        13.793    13.793   0.0% |
  Orbital Layouts:                   6.359     6.359   0.0% |
  Potential matrix:                  0.004     0.004   0.0% |
  Sum over cells:                    0.031     0.031   0.0% |
 LCAO to grid:                     320.338   320.338   1.1% |
 Set positions (LCAO WFS):           2.944     2.627   0.0% |
  Basic WFS set positions:           0.004     0.004   0.0% |
  Basis functions set positions:     0.001     0.001   0.0% |
  P tci:                             0.000     0.000   0.0% |
  ST tci:                            0.126     0.126   0.0% |
  mktci:                             0.186     0.186   0.0% |
PWDescriptor:                        0.110     0.110   0.0% |
SCF-cycle:                       29355.693    15.390   0.1% |
 Davidson:                       28089.229  8069.567  27.1% |----------|
  Apply H:                         547.300   540.278   1.8% ||
   HMM T:                            7.022     7.022   0.0% |
  Subspace diag:                  2727.675     0.061   0.0% |
   calc_h_matrix:                 1170.650   690.708   2.3% ||
    Apply H:                       479.942   472.950   1.6% ||
     HMM T:                          6.992     6.992   0.0% |
   diagonalize:                    243.100   243.100   0.8% |
   rotate_psi:                    1313.863  1313.863   4.4% |-|
  calc. matrices:                 6408.787  5501.596  18.5% |------|
   Apply H:                        907.191   892.881   3.0% ||
    HMM T:                          14.310    14.310   0.0% |
  diagonalize:                    7519.651  7519.651  25.3% |---------|
  rotate_psi:                     2816.249  2816.249   9.5% |---|
 Density:                          678.368     0.005   0.0% |
  Atomic density matrices:           5.048     5.048   0.0% |
  Mix:                             440.199   440.199   1.5% ||
  Multipole moments:                 0.138     0.138   0.0% |
  Pseudo density:                  232.978   232.971   0.8% |
   Symmetrize density:               0.007     0.007   0.0% |
 Hamiltonian:                      550.464     2.034   0.0% |
  Atomic:                           58.323     0.207   0.0% |
   XC Correction:                   58.116    58.116   0.2% |
  Calculate atomic Hamiltonians:   408.781   408.781   1.4% ||
  Communicate:                      17.837    17.837   0.1% |
  Poisson:                           7.527     7.527   0.0% |
  XC 3D grid:                       55.963    55.963   0.2% |
 Orthonormalize:                    22.240     0.001   0.0% |
  calc_s_matrix:                     2.705     2.705   0.0% |
  inverse-cholesky:                  1.168     1.168   0.0% |
  projections:                      13.694    13.694   0.0% |
  rotate_psi_s:                      4.672     4.672   0.0% |
Set symmetry:                        0.001     0.001   0.0% |
Other:                              10.165    10.165   0.0% |
-----------------------------------------------------------
Total:                                     29761.125 100.0%

Date: Thu Apr 20 18:02:22 2023
