
  ___ ___ ___ _ _ _  
 |   |   |_  | | | | 
 | | | | | . | | | | 
 |__ |  _|___|_____|  22.8.0
 |___|_|             

User:   c.zeng@d0035
Date:   Wed Apr 19 19:52:49 2023
Arch:   x86_64
Pid:    89308
CWD:    /home/c.zeng/projects/hea-corrosion/hea-mlp/data-curation/surface-mcmc/dft-jobs/228
Python: 3.8.1
gpaw:   /home/c.zeng/usr/installs/gpaw/source/gpaw-22.8.0/gpaw
_gpaw:  /home/c.zeng/usr/installs/gpaw/source/gpaw-22.8.0/
        _gpaw.cpython-38-x86_64-linux-gnu.so
ase:    /home/c.zeng/.local/lib/python3.8/site-packages/ase-3.22.1-py3.8.egg/ase (version 3.22.1)
numpy:  /home/c.zeng/.local/lib/python3.8/site-packages/numpy (version 1.24.2)
scipy:  /home/c.zeng/.local/lib/python3.8/site-packages/scipy (version 1.10.1)
libxc:  4.2.3
units:  Angstrom and eV
cores: 30
OpenMP: False
OMP_NUM_THREADS: 1

Input parameters:
  convergence: {energy: 0.0001}
  kpts: [2 2 1]
  maxiter: 666
  mode: {ecut: 350.0,
         name: pw}
  occupations: {fixmagmom: False,
                name: fermi-dirac,
                width: 0.1}
  poissonsolver: {dipolelayer: xy}
  spinpol: True
  symmetry: {point_group: False}
  xc: PBE

System changes: positions, numbers, cell, pbc, initial_charges, initial_magmoms 

Initialize ...

species:
  Co:
    name: Cobalt
    id: 339d20d5b0b93d2de9531a1bee871d91
    Z: 27.0
    valence: 9
    core: 18
    charge: 0.0
    file: /home/c.zeng/usr/data/gpaw-setups-0.9.20000/Co.PBE.gz
    compensation charges: {type: gauss,
                           rc: 0.32,
                           lmax: 2}
    cutoffs: {filter: 1.87,
              core: 2.55}
    valence states:
      #              energy  rcut
      - 4s(2.00)    -5.469   1.005
      - 4p(0.00)    -1.277   1.058
      - 3d(7.00)    -8.205   1.005
      -  s          21.742   1.005
      -  p          25.934   1.058
      -  d          19.007   1.005
  
    # Using partial waves for Co as LCAO basis

  Ni:
    name: Nickel
    id: 0d9f38a9d6e76a2886f07bb4381f212b
    Z: 28.0
    valence: 16
    core: 12
    charge: 0.0
    file: /home/c.zeng/usr/data/gpaw-setups-0.9.20000/Ni.PBE.gz
    compensation charges: {type: gauss,
                           rc: 0.36,
                           lmax: 2}
    cutoffs: {filter: 2.14,
              core: 1.98}
    valence states:
      #              energy  rcut
      - 4s(2.00)    -5.642   1.164
      - 3p(6.00)   -71.394   1.207
      - 4p(0.00)    -1.226   1.207
      - 3d(8.00)    -8.875   1.138
      -  s          21.570   1.164
      -  d          18.337   1.138
  
    # Using partial waves for Ni as LCAO basis

  Cr:
    name: Chromium
    id: 33f258bda2ca9f93018e70263a35547b
    Z: 24.0
    valence: 6
    core: 18
    charge: 0.0
    file: /home/c.zeng/usr/data/gpaw-setups-0.9.20000/Cr.PBE.gz
    compensation charges: {type: gauss,
                           rc: 0.35,
                           lmax: 2}
    cutoffs: {filter: 2.14,
              core: 3.04}
    valence states:
      #              energy  rcut
      - 4s(1.00)    -4.007   1.164
      - 4p(0.00)    -0.989   1.217
      - 3d(5.00)    -2.913   1.111
      -  s          23.205   1.164
      -  p          26.223   1.217
      -  d          24.299   1.111
  
    # Using partial waves for Cr as LCAO basis

  Al:
    name: Aluminium
    id: 0292cae29f5d6237e50f6abdd43a7bdd
    Z: 13.0
    valence: 3
    core: 10
    charge: 0.0
    file: /home/c.zeng/usr/data/gpaw-setups-0.9.20000/Al.PBE.gz
    compensation charges: {type: gauss,
                           rc: 0.34,
                           lmax: 2}
    cutoffs: {filter: 1.91,
              core: 2.36}
    valence states:
      #              energy  rcut
      - 3s(2.00)    -7.753   1.085
      - 3p(1.00)    -2.712   1.085
      -  s          19.459   1.085
      -  p          24.499   1.085
      -  d           0.000   1.085
  
    # Using partial waves for Al as LCAO basis

  Fe:
    name: Iron
    id: 37abbd8d6c3c35915a9b583b742da910
    Z: 26.0
    valence: 8
    core: 18
    charge: 0.0
    file: /home/c.zeng/usr/data/gpaw-setups-0.9.20000/Fe.PBE.gz
    compensation charges: {type: gauss,
                           rc: 0.33,
                           lmax: 2}
    cutoffs: {filter: 2.06,
              core: 2.67}
    valence states:
      #              energy  rcut
      - 4s(2.00)    -5.291   1.164
      - 4p(0.00)    -1.326   1.058
      - 3d(6.00)    -7.505   1.058
      -  s          21.920   1.164
      -  p          25.885   1.058
      -  d          19.706   1.058
  
    # Using partial waves for Fe as LCAO basis

Reference energy: -3726899.091688  # eV

Spin-polarized calculation.
Magnetic moment: 140.000000

Convergence criteria:
 Maximum [total energy] change in last 3 cyles: 0.0001 eV / electron
 Maximum integral of absolute [dens]ity change: 0.0001 electrons / valence electron
 Maximum integral of absolute [eigenst]ate change: 4e-08 eV^2 / valence electron
 Maximum number of scf [iter]ations: 666
 (Square brackets indicate name in SCF output, whereas a 'c' in
 the SCF output indicates the quantity has converged.)

Symmetries present (total): 1

  ( 1  0  0)
  ( 0  1  0)
  ( 0  0  1)

4 k-points: 2 x 2 x 1 Monkhorst-Pack grid
2 k-points in the irreducible part of the Brillouin zone
       k-points in crystal coordinates                weights
   0:     0.25000000   -0.25000000    0.00000000          2/4
   1:     0.25000000    0.25000000    0.00000000          2/4

Wave functions: Plane wave expansion
  Cutoff energy: 350.000 eV
  Number of coefficients (min, max): 60935, 60955
  Pulay-stress correction: 0.000000 eV/Ang^3 (de/decut=0.000000)
  Using FFTW library
  ScaLapack parameters: grid=1x1, blocksize=None
  Wavefunction extrapolation:
    Improved wavefunction reuse through dual PAW basis 

Occupation numbers: Fermi-Dirac:
  width: 0.1000  # eV
 

Eigensolver
   Davidson(niter=2) 

Densities:
  Coarse grid: 56*56*128 grid
  Fine grid: 112*112*256 grid
  Total Charge: 0.000000 

Density mixing:
  Method: difference
  Backend: pulay
  Linear mixing parameter: 0.05
  old densities: 5
  Damping of long wavelength oscillations: 50 

Hamiltonian:
  XC and Coulomb potentials evaluated on a 112*112*256 grid
  Using the PBE Exchange-Correlation functional
  External potential:
    NoExternalPotential
 

XC parameters: PBE with 2 nearest neighbor stencil

Memory estimate:
  Process memory now: 378.70 MiB
  Calculator: 2131.41 MiB
    Density: 19.02 MiB
      Arrays: 7.39 MiB
      Localized functions: 8.68 MiB
      Mixer: 2.95 MiB
    Hamiltonian: 5.75 MiB
      Arrays: 5.49 MiB
      XC: 0.00 MiB
      Poisson: 0.00 MiB
      vbar: 0.26 MiB
    Wavefunctions: 2106.64 MiB
      Arrays psit_nG: 1335.62 MiB
      Eigensolver: 751.15 MiB
      Projections: 3.10 MiB
      Projectors: 1.18 MiB
      PW-descriptor: 15.59 MiB

Total number of cores used: 30
Parallelization over k-points: 2
Domain decomposition: 1 x 3 x 5

Number of atoms: 125
Number of atomic orbitals: 1075
Number of bands in calculation: 718
Number of valence electrons: 1050
Bands to converge: occupied

... initialized

Initializing position-dependent things.

Density initialized from atomic densities
Creating initial wave functions:
  718 bands from LCAO basis set

                                                                  
                                                                  
                                                                  
                                                                  
                          Fe    Ni           Cr    Fe             
                                  Cr                              
                      Cr    Ni          Cr    Cr                  
                       Ni    NAl   CFe   AAl    Fe    Al          
                   Al   ACr   CrAl   CNi   NFe   Ni               
        Al                 Fe    Co                               
               Ni   CCo  NNi   CCr    ACr   FAl   Cr              
                Fe   NAl   CCr   CFe     Cr   Al                  
           Al    Co     Al    AlCo  Ni  Cr               Co       
                 Ni   CFe   FAl   NCo   CFe    Co                 
            Co   CFe    Fe    CCo   NAl                           
        Ni    Ni    Ni    Cr Fe Co Al    CCr    Co    Al          
             Al    Ni   FNi    Cr    FFe   Fe    Fe               
               Fe   AAl   CAl   FFe    Ni    Co                   
                 Fe          Ni        Cr                         
                Cr    CAl   Co    Ni    Co                        
           Ni    Cr     Cr    Ni    Co                            
                                                                  
                                                                  
                                                                  
                                                                  
                                                                  

Positions:
   0 Co    12.697578    1.490688   10.582791    ( 0.0000,  0.0000,  2.1000)
   1 Ni     2.542164    1.500437   10.627261    ( 0.0000,  0.0000,  2.0000)
   2 Cr     5.051596    1.499469   10.598054    ( 0.0000,  0.0000,  2.1000)
   3 Cr     7.634905    1.492702   10.546246    ( 0.0000,  0.0000,  2.0000)
   4 Ni    10.187798    1.493538   10.639090    ( 0.0000,  0.0000,  2.1000)
   5 Co    13.968644    3.696637   10.562654    ( 0.0000,  0.0000,  2.0000)
   6 Cr     3.815030    3.662669   10.568965    ( 0.0000,  0.0000,  2.1000)
   7 Cr     6.371550    3.676864   10.379256    ( 0.0000,  0.0000,  0.0000)
   8 Co     8.929883    3.680660   10.627114    ( 0.0000,  0.0000,  2.1000)
   9 Ni    11.419281    3.649344   10.658345    ( 0.0000,  0.0000,  2.1000)
  10 Co    15.274513    5.897370   10.548477    ( 0.0000,  0.0000,  2.0000)
  11 Al     5.059810    5.865944   10.632192    ( 0.0000,  0.0000,  2.0000)
  12 Co     7.645770    5.857944   10.631253    ( 0.0000,  0.0000,  2.1000)
  13 Fe    10.112359    5.849582   10.633748    ( 0.0000,  0.0000,  2.1000)
  14 Cr    12.664006    5.872612   10.350226    ( 0.0000,  0.0000,  0.0000)
  15 Fe    16.518089    8.029617   10.573985    ( 0.0000,  0.0000,  2.0000)
  16 Fe     6.372474    8.042931   10.433618    ( 0.0000,  0.0000,  0.0000)
  17 Co     8.899359    8.058149   10.655528    ( 0.0000,  0.0000,  2.1000)
  18 Fe    11.347730    8.053396   10.581235    ( 0.0000,  0.0000,  0.0000)
  19 Fe    13.974474    8.072476   10.508234    ( 0.0000,  0.0000,  1.5000)
  20 Al    17.786763   10.267487   10.540522    ( 0.0000,  0.0000,  1.5000)
  21 Fe     7.620185   10.288537   10.551618    ( 0.0000,  0.0000,  1.5000)
  22 Al    10.097013   10.262150   10.527196    ( 0.0000,  0.0000,  0.0000)
  23 Co    12.628341   10.288140   10.200907    ( 0.0000,  0.0000,  0.0000)
  24 Co    15.305799   10.302687   10.215701    ( 0.0000,  0.0000,  0.0000)
  25 Co    18.929799   10.964438   12.614348    ( 0.0000,  0.0000,  0.0000)
  26 Co     8.907314   10.932825   12.633339    ( 0.0000,  0.0000,  0.0000)
  27 Fe     5.161938    0.027744   12.591364    ( 0.0000,  0.0000,  0.0000)
  28 Al     7.639849   -0.017272   12.455019    ( 0.0000,  0.0000,  2.0000)
  29 Ni    10.112151   -0.034156   12.574340    ( 0.0000,  0.0000,  0.0000)
  30 Ni    13.898459    2.274577   12.629494    ( 0.0000,  0.0000,  0.0000)
  31 Fe     3.834283    2.207500   12.641705    ( 0.0000,  0.0000,  1.5000)
  32 Al     6.373751    2.258204   12.578625    ( 0.0000,  0.0000,  1.5000)
  33 Al     8.903971    2.228935   12.670354    ( 0.0000,  0.0000,  0.0000)
  34 Fe    11.398903    2.240324   12.667418    ( 0.0000,  0.0000,  2.1000)
  35 Al     2.693918    4.433332   12.569320    ( 0.0000,  0.0000,  0.0000)
  36 Ni     5.180997    4.392564   12.579271    ( 0.0000,  0.0000,  2.0000)
  37 Ni     7.640404    4.433761   12.623682    ( 0.0000,  0.0000,  1.5000)
  38 Cr    10.149737    4.418753   12.659728    ( 0.0000,  0.0000,  2.1000)
  39 Fe    12.642941    4.469149   12.588547    ( 0.0000,  0.0000,  0.0000)
  40 Co     3.879740    6.581821   12.636392    ( 0.0000,  0.0000,  2.0000)
  41 Al     6.395207    6.593022   12.619455    ( 0.0000,  0.0000,  0.0000)
  42 Cr     8.882544    6.578464   12.632987    ( 0.0000,  0.0000,  2.0000)
  43 Ni    11.378039    6.588192   12.568968    ( 0.0000,  0.0000,  1.5000)
  44 Cr    13.955999    6.597324   12.503922    ( 0.0000,  0.0000,  0.0000)
  45 Co     5.115939    8.711196   12.577128    ( 0.0000,  0.0000,  2.0000)
  46 Fe     7.617963    8.744371   12.628555    ( 0.0000,  0.0000,  1.5000)
  47 Ni    10.162962    8.726392   12.644406    ( 0.0000,  0.0000,  1.5000)
  48 Cr    12.676321    8.832597   12.504509    ( 0.0000,  0.0000,  1.5000)
  49 Co    15.240247    8.741951   12.606188    ( 0.0000,  0.0000,  0.0000)
  50 Ni     1.269616    0.713733   14.695512    ( 0.0000,  0.0000,  2.1000)
  51 Ni     3.799097    0.728240   14.717292    ( 0.0000,  0.0000,  0.0000)
  52 Ni     6.399959    0.810401   14.610329    ( 0.0000,  0.0000,  2.1000)
  53 Cr     8.880072    0.764388   14.691902    ( 0.0000,  0.0000,  1.5000)
  54 Co    11.370392    0.737436   14.704406    ( 0.0000,  0.0000,  1.5000)
  55 Co     2.596190    2.870472   14.732086    ( 0.0000,  0.0000,  0.0000)
  56 Fe     5.091424    2.954792   14.649428    ( 0.0000,  0.0000,  0.0000)
  57 Fe     7.608212    2.991224   14.707811    ( 0.0000,  0.0000,  2.1000)
  58 Co    10.154418    2.949686   14.778640    ( 0.0000,  0.0000,  2.1000)
  59 Al    12.643335    2.944834   14.730413    ( 0.0000,  0.0000,  0.0000)
  60 Ni     3.883223    5.134376   14.743182    ( 0.0000,  0.0000,  0.0000)
  61 Fe     6.365651    5.154303   14.674026    ( 0.0000,  0.0000,  2.1000)
  62 Al     8.874207    5.127400   14.687176    ( 0.0000,  0.0000,  2.1000)
  63 Co    11.381160    5.128401   14.701764    ( 0.0000,  0.0000,  1.5000)
  64 Fe    13.994437    5.150045   14.709073    ( 0.0000,  0.0000,  0.0000)
  65 Ni     5.105303    7.314819   14.691491    ( 0.0000,  0.0000,  0.0000)
  66 Co     7.621049    7.313641   14.679104    ( 0.0000,  0.0000,  2.0000)
  67 Co    10.101824    7.296971   14.657206    ( 0.0000,  0.0000,  0.0000)
  68 Cr    12.701036    7.418890   14.544344    ( 0.0000,  0.0000,  0.0000)
  69 Al    15.272539    7.347367   14.706285    ( 0.0000,  0.0000,  2.0000)
  70 Ni     6.372338    9.509071   14.708838    ( 0.0000,  0.0000,  0.0000)
  71 Co     8.874214    9.489484   14.713828    ( 0.0000,  0.0000,  1.5000)
  72 Al    11.385336    9.581859   14.631493    ( 0.0000,  0.0000,  2.1000)
  73 Fe    13.954574    9.609885   14.606455    ( 0.0000,  0.0000,  2.1000)
  74 Cr    16.558825    9.502579   14.642677    ( 0.0000,  0.0000,  0.0000)
  75 Ni    12.678535    1.403816   16.741746    ( 0.0000,  0.0000,  0.0000)
  76 Al     2.534863    1.419242   16.733997    ( 0.0000,  0.0000,  2.1000)
  77 Co     5.032024    1.508844   16.664371    ( 0.0000,  0.0000,  1.5000)
  78 Al     7.624501    1.526769   16.714506    ( 0.0000,  0.0000,  2.0000)
  79 Al    10.140089    1.502748   16.858366    ( 0.0000,  0.0000,  2.0000)
  80 Cr    14.024748    3.670735   16.858777    ( 0.0000,  0.0000,  0.0000)
  81 Cr     3.842392    3.667775   16.756276    ( 0.0000,  0.0000,  0.0000)
  82 Al     6.334927    3.681056   16.705378    ( 0.0000,  0.0000,  0.0000)
  83 Cr     8.882482    3.670933   16.761471    ( 0.0000,  0.0000,  2.1000)
  84 Fe    11.419526    3.695856   16.803945    ( 0.0000,  0.0000,  2.0000)
  85 Al    15.257368    5.911564   16.801303    ( 0.0000,  0.0000,  1.5000)
  86 Cr     5.087177    5.870422   16.771246    ( 0.0000,  0.0000,  0.0000)
  87 Ni     7.609371    5.857537   16.712716    ( 0.0000,  0.0000,  2.0000)
  88 Cr    10.109019    5.830149   16.764730    ( 0.0000,  0.0000,  1.5000)
  89 Cr    12.675452    5.872392   16.756129    ( 0.0000,  0.0000,  2.1000)
  90 Ni    16.524277    8.015940   16.738312    ( 0.0000,  0.0000,  2.1000)
  91 Al     6.365933    8.035031   16.712716    ( 0.0000,  0.0000,  2.1000)
  92 Cr     8.835843    8.056003   16.741658    ( 0.0000,  0.0000,  2.0000)
  93 Co    11.351160    8.059051   16.752372    ( 0.0000,  0.0000,  0.0000)
  94 Ni    13.956058    8.042161   16.704057    ( 0.0000,  0.0000,  1.5000)
  95 Al    17.805404   10.218279   16.745210    ( 0.0000,  0.0000,  0.0000)
  96 Ni     7.627525   10.221888   16.720318    ( 0.0000,  0.0000,  2.1000)
  97 Co    10.100033   10.295513   16.718880    ( 0.0000,  0.0000,  1.5000)
  98 Al    12.667792   10.363481   16.695163    ( 0.0000,  0.0000,  0.0000)
  99 Fe    15.313358   10.247516   16.718322    ( 0.0000,  0.0000,  0.0000)
 100 Fe     6.385878   10.951211   18.797109    ( 0.0000,  0.0000,  0.0000)
 101 Ni     8.871549   10.998570   18.734029    ( 0.0000,  0.0000,  0.0000)
 102 Fe     5.012222    0.026603   18.714245    ( 0.0000,  0.0000,  2.0000)
 103 Cr    13.906085   10.955272   18.815278    ( 0.0000,  0.0000,  0.0000)
 104 Fe    16.555065   10.890208   19.190793    ( 0.0000,  0.0000,  0.0000)
 105 Al     1.301962    2.175788   18.880296    ( 0.0000,  0.0000,  0.0000)
 106 Ni     3.763381    2.154408   18.701741    ( 0.0000,  0.0000,  2.0000)
 107 Co     6.282513    2.143955   18.673151    ( 0.0000,  0.0000,  1.5000)
 108 Fe     8.786510    2.178935   18.943933    ( 0.0000,  0.0000,  0.0000)
 109 Co    11.486117    2.202240   18.868055    ( 0.0000,  0.0000,  0.0000)
 110 Fe    15.251278    4.387183   18.855257    ( 0.0000,  0.0000,  1.5000)
 111 Al     5.107352    4.303073   18.990839    ( 0.0000,  0.0000,  0.0000)
 112 Cr     7.597350    4.408838   18.714597    ( 0.0000,  0.0000,  2.0000)
 113 Al    10.211555    4.416706   18.931135    ( 0.0000,  0.0000,  0.0000)
 114 Ni    12.733768    4.452313   18.836295    ( 0.0000,  0.0000,  1.5000)
 115 Fe    16.467351    6.659351   18.958316    ( 0.0000,  0.0000,  0.0000)
 116 Ni     6.329237    6.609791   18.727483    ( 0.0000,  0.0000,  1.5000)
 117 Al     8.815790    6.680885   18.889219    ( 0.0000,  0.0000,  0.0000)
 118 Fe    11.427553    6.639820   18.779556    ( 0.0000,  0.0000,  2.0000)
 119 Al    13.906938    6.631006   18.740193    ( 0.0000,  0.0000,  0.0000)
 120 Cr     5.095653    8.774950   18.707200    ( 0.0000,  0.0000,  2.0000)
 121 Ni     7.571098    8.829550   18.729127    ( 0.0000,  0.0000,  1.5000)
 122 Cr    10.146396    8.866884   18.778117    ( 0.0000,  0.0000,  1.5000)
 123 Cr    12.685104    8.811284   18.742072    ( 0.0000,  0.0000,  2.0000)
 124 Cr    15.188299    8.776017   18.730565    ( 0.0000,  0.0000,  2.0000)

Unit cell:
           periodic     x           y           z      points  spacing
  1. axis:    yes   12.688900    0.000000    0.000000    56     0.1962
  2. axis:    yes    6.352870   11.003500    0.000000    56     0.1965
  3. axis:    no     0.000000    0.000000   29.353100   128     0.2293

  Lengths:  12.688900  12.705746  29.353100
  Angles:   90.000000  90.000000  60.000014

Effective grid spacing dv^(1/3) = 0.2169

     iter     time        total  log10-change:  magmom
                         energy  eigst   dens
iter:   1 20:01:16 -1047.615911                  +139.2299
iter:   2 20:04:10 -3786.806146  +1.40  -1.08    +95.7901
iter:   3 20:07:04  -968.933364  +0.81  -0.51    +62.3462
iter:   4 20:09:58  -996.618288  +0.67  -1.10    +42.2824
iter:   5 20:12:52  -931.014210  -0.13  -1.12    +38.6285
iter:   6 20:15:46  -923.036538  -0.72  -1.26    +35.7821
iter:   7 20:18:39  -912.266305  -1.27  -1.27    +35.4776
iter:   8 20:21:34  -954.480679  -1.18  -1.31    +35.5903
iter:   9 20:24:28  -944.057430  -1.20  -1.20    +34.7531
iter:  10 20:27:22  -904.587242  -1.54  -1.22    +33.9404
iter:  11 20:30:16  -909.317857  -1.33  -1.38    +35.4091
iter:  12 20:33:10  -913.293696  -1.49  -1.43    +33.1390
iter:  13 20:36:03  -917.902866  -1.59  -1.37    +33.8391
iter:  14 20:38:58  -892.075373  -1.46  -1.33    +36.0706
iter:  15 20:41:52  -891.601128  -2.02  -1.57    +36.5340
iter:  16 20:44:45  -895.999718  -2.02  -1.58    +36.9399
iter:  17 20:47:39  -888.182658  -2.28  -1.53    +38.2569
iter:  18 20:50:33  -903.959094  -1.93  -1.66    +40.2648
iter:  19 20:53:27  -890.081777  -2.16  -1.49    +39.1177
iter:  20 20:56:21  -888.617279  -2.48  -1.67    +40.4359
iter:  21 20:59:15  -895.448527  -2.30  -1.73    +42.5065
iter:  22 21:02:09  -894.860717  -2.22  -1.60    +42.9276
iter:  23 21:04:58  -889.228934  -2.61  -1.63    +44.1144
iter:  24 21:07:52  -889.801858  -2.76  -1.77    +44.5454
iter:  25 21:10:45  -896.310185  -2.31  -1.81    +45.9914
iter:  26 21:13:38  -892.237063  -2.38  -1.67    +45.8491
iter:  27 21:16:32  -899.809651  -2.35  -1.78    +47.2365
iter:  28 21:19:26  -914.978805  -1.88  -1.64    +46.8293
iter:  29 21:22:20  -892.701839  -2.03  -1.47    +45.9558
iter:  30 21:25:14  -892.359377  -2.73  -1.82    +48.3087
iter:  31 21:28:07  -892.474225  -2.81  -1.88    +48.0156
iter:  32 21:31:01  -894.447859  -2.72  -1.92    +49.4831
iter:  33 21:33:55  -892.163795  -3.05  -1.83    +49.1588
iter:  34 21:36:49  -892.442237  -2.67  -1.99    +50.2840
iter:  35 21:39:43  -895.794578  -2.48  -2.15    +50.5639
iter:  36 21:42:36  -892.674345  -2.76  -1.87    +50.2690
iter:  37 21:45:30  -893.394203  -2.96  -2.21    +50.7651
iter:  38 21:48:24  -908.673882  -2.14  -2.14    +50.7573
iter:  39 21:51:18  -893.258329  -2.43  -1.58    +51.3531
iter:  40 21:54:12  -892.969963  -3.32  -2.16    +51.6980
iter:  41 21:57:05  -892.918620  -3.52  -2.27    +51.4048
iter:  42 21:59:59  -893.010385c -3.80  -2.32    +51.6557
iter:  43 22:02:53  -893.402161  -3.50  -2.33    +51.9285
iter:  44 22:05:43  -900.888980  -2.47  -2.26    +51.8054
iter:  45 22:08:38  -893.199416  -2.74  -1.74    +51.7736
iter:  46 22:11:34  -893.271069  -3.49  -2.38    +51.7212
iter:  47 22:14:30  -893.227797c -3.51  -2.43    +51.7543
iter:  48 22:17:25  -893.260832c -3.75  -2.59    +51.8600
iter:  49 22:20:21  -893.346272  -3.50  -2.60    +51.8727
iter:  50 22:23:17  -893.239118  -3.83  -2.61    +52.2094
iter:  51 22:26:12  -893.296606  -4.10  -2.88    +52.5800
iter:  52 22:29:08  -893.345873  -4.11  -2.86    +52.8401
iter:  53 22:32:04  -893.368697c -4.34  -2.83    +53.0018
iter:  54 22:35:00  -893.484710  -4.12  -2.82    +53.0332
iter:  55 22:37:54  -893.526261  -4.37  -2.63    +53.0450
iter:  56 22:40:43  -893.527312c -4.00  -2.59    +53.6543
iter:  57 22:43:31  -893.497562c -4.05  -2.61    +54.0605
iter:  58 22:46:18  -893.497293c -4.00  -2.66    +54.2416
iter:  59 22:49:05  -898.627936  -2.73  -2.65    +54.2863
iter:  60 22:51:52  -893.455464  -3.09  -1.83    +54.1551
iter:  61 22:54:40  -893.545392  -3.60  -2.74    +54.0512
iter:  62 22:57:28  -893.453484c -4.06  -2.65    +53.8455
iter:  63 23:00:15  -893.460467c -4.42  -2.79    +53.4847
iter:  64 23:03:03  -893.461173c -4.47  -2.84    +53.3381
iter:  65 23:05:50  -893.639082  -4.02  -2.87    +53.0385
iter:  66 23:08:58  -893.523599  -3.98  -2.53    +53.2033
iter:  67 23:12:07  -893.472357  -4.21  -2.73    +53.1350
iter:  68 23:14:54  -893.527050c -3.99  -2.96    +52.9540
iter:  69 23:17:43  -893.480294c -4.31  -2.82    +52.9523
iter:  70 23:20:29  -893.481272c -4.48  -2.99    +52.9068
iter:  71 23:23:17  -893.610076  -4.17  -3.08    +52.8562
iter:  72 23:26:04  -893.480659  -4.50  -2.63    +52.8730
iter:  73 23:28:52  -893.482363  -5.13  -3.11    +52.8477
iter:  74 23:31:38  -893.485245c -5.63  -3.21    +52.7430
iter:  75 23:34:26  -893.489582c -5.18  -3.20    +52.6012
iter:  76 23:37:13  -893.495307c -5.17  -3.19    +52.4152
iter:  77 23:40:01  -893.496673c -5.47  -3.17    +52.2851
iter:  78 23:42:49  -893.515211c -4.86  -3.18    +52.0289
iter:  79 23:45:36  -893.498414c -4.77  -3.06    +52.4204
iter:  80 23:48:23  -893.508793c -4.50  -3.13    +51.8515
iter:  81 23:51:10  -893.557064c -4.81  -3.15    +51.9000
iter:  82 23:53:58  -893.504737c -4.79  -2.84    +51.7921
iter:  83 23:56:44  -893.509457c -4.58  -3.25    +51.7526
iter:  84 23:59:32  -893.507483c -4.90  -3.12    +51.7663
iter:  85 00:02:19  -893.510555c -4.94  -3.25    +51.7129
iter:  86 00:05:07  -893.505733c -5.60  -3.13    +51.6852
iter:  87 00:08:11  -893.588199c -4.32  -3.24    +51.6625
iter:  88 00:11:26  -893.502989c -4.68  -2.72    +51.6744
iter:  89 00:14:14  -893.503823c -5.52  -3.42    +51.6653
iter:  90 00:17:01  -893.503687c -5.84  -3.41    +51.6818
iter:  91 00:19:48  -893.503227c -5.90  -3.54    +51.7065
iter:  92 00:22:36  -893.504056c -6.22  -3.72    +51.7111
iter:  93 00:25:23  -893.504639c -5.92  -3.66    +51.7538
iter:  94 00:28:09  -893.505491c -5.81  -3.80    +51.7866
iter:  95 00:30:56  -893.505805c -6.26  -3.91    +51.7911
iter:  96 00:33:43  -893.506399c -5.93  -3.90    +51.7860
iter:  97 00:36:30  -893.506868c -6.47  -3.93    +51.7867
iter:  98 00:39:18  -893.507123c -5.97  -3.85    +51.7720
iter:  99 00:42:05  -893.506972c -6.73  -3.78    +51.7771
iter: 100 00:44:53  -893.507763c -6.01  -3.92    +51.7922
iter: 101 00:47:41  -893.508788c -6.01  -3.96    +51.8357
iter: 102 00:50:28  -893.510256c -5.62  -3.96    +51.8837
iter: 103 00:53:14  -893.518775c -5.36  -3.87    +51.8814
iter: 104 00:56:01  -893.511297c -5.70  -3.27    +51.8584
iter: 105 00:58:48  -893.511910c -6.02  -3.76    +51.8373
iter: 106 01:01:35  -893.512241c -6.01  -3.84    +51.8310
iter: 107 01:04:22  -893.513008c -5.76  -3.87    +51.8178
iter: 108 01:07:18  -893.513637c -5.82  -3.80    +51.8142
iter: 109 01:10:37  -893.513748c -5.99  -3.78    +51.7952
iter: 110 01:13:24  -893.513428c -6.09  -3.81    +51.7518
iter: 111 01:16:12  -893.514560c -5.87  -3.93    +51.7292
iter: 112 01:18:59  -893.513976c -6.26  -3.75    +51.7304
iter: 113 01:21:46  -893.514306c -6.33  -4.07c   +51.7012
iter: 114 01:24:34  -893.514517c -6.52  -4.09c   +51.6850
iter: 115 01:27:22  -893.515020c -6.27  -4.05c   +51.6779
iter: 116 01:30:08  -893.514933c -6.68  -4.12c   +51.6598
iter: 117 01:32:56  -893.515374c -6.23  -4.17c   +51.6244
iter: 118 01:35:43  -893.515538c -6.58  -4.00    +51.6169
iter: 119 01:38:30  -893.515717c -6.48  -4.16c   +51.5842
iter: 120 01:41:18  -893.515987c -6.32  -4.17c   +51.5554
iter: 121 01:44:05  -893.516134c -6.74  -4.11c   +51.5552
iter: 122 01:46:52  -893.516429c -6.34  -4.16c   +51.5397
iter: 123 01:49:40  -893.516217c -6.84  -4.07c   +51.5553
iter: 124 01:52:28  -893.516729c -6.63  -4.16c   +51.5389
iter: 125 01:55:16  -893.516778c -6.32  -4.02c   +51.5225
iter: 126 01:58:05  -893.516795c -6.19  -3.91    +51.4823
iter: 127 02:00:53  -893.516991c -6.37  -3.81    +51.4888
iter: 128 02:03:42  -893.517150c -6.27  -4.09c   +51.4853
iter: 129 02:06:31  -893.517280c -6.45  -4.15c   +51.4681
iter: 130 02:09:20  -893.517234c -6.59  -4.06c   +51.4672
iter: 131 02:12:12  -893.517606c -6.61  -4.16c   +51.4636
iter: 132 02:15:41  -893.517686c -6.56  -4.13c   +51.4394
iter: 133 02:18:30  -893.517657c -6.72  -4.08c   +51.4217
iter: 134 02:21:19  -893.517637c -6.53  -4.20c   +51.4240
iter: 135 02:24:08  -893.517978c -6.46  -4.11c   +51.4255
iter: 136 02:26:56  -893.518317c -6.27  -4.27c   +51.4221
iter: 137 02:29:45  -893.517906c -6.84  -3.91    +51.4126
iter: 138 02:32:34  -893.518077c -6.55  -4.42c   +51.4088
iter: 139 02:35:23  -893.518186c -6.88  -4.07c   +51.4139
iter: 140 02:38:12  -893.518402c -6.85  -4.32c   +51.4030
iter: 141 02:41:01  -893.518453c -6.96  -4.20c   +51.3855
iter: 142 02:43:49  -893.518385c -6.61  -4.24c   +51.3607
iter: 143 02:46:38  -893.518339c -7.41c -4.41c   +51.3632

Converged after 143 iterations.

Dipole moment: (65.115251, 52.930217, 0.014124) |e|*Ang

Total magnetic moment: (0.000000, 0.000000, 51.363208)
Local magnetic moments:
   0 Co ( 0.000000,  0.000000,  1.678019)
   1 Ni ( 0.000000,  0.000000,  0.490267)
   2 Cr ( 0.000000,  0.000000,  1.603649)
   3 Cr ( 0.000000,  0.000000,  2.184862)
   4 Ni ( 0.000000,  0.000000,  0.470391)
   5 Co ( 0.000000,  0.000000,  1.453275)
   6 Cr ( 0.000000,  0.000000,  1.971412)
   7 Cr ( 0.000000,  0.000000, -2.678897)
   8 Co ( 0.000000,  0.000000,  1.134119)
   9 Ni ( 0.000000,  0.000000,  0.448207)
  10 Co ( 0.000000,  0.000000,  1.097791)
  11 Al ( 0.000000,  0.000000, -0.042651)
  12 Co ( 0.000000,  0.000000,  1.033814)
  13 Fe ( 0.000000,  0.000000,  2.470615)
  14 Cr ( 0.000000,  0.000000, -2.890935)
  15 Fe ( 0.000000,  0.000000,  2.514933)
  16 Fe ( 0.000000,  0.000000,  2.639375)
  17 Co ( 0.000000,  0.000000,  1.393852)
  18 Fe ( 0.000000,  0.000000,  2.531657)
  19 Fe ( 0.000000,  0.000000,  2.523141)
  20 Al ( 0.000000,  0.000000, -0.065875)
  21 Fe ( 0.000000,  0.000000,  2.638366)
  22 Al ( 0.000000,  0.000000, -0.059605)
  23 Co ( 0.000000,  0.000000,  1.445695)
  24 Co ( 0.000000,  0.000000,  1.584801)
  25 Co ( 0.000000,  0.000000,  1.660367)
  26 Co ( 0.000000,  0.000000,  1.602436)
  27 Fe ( 0.000000,  0.000000,  2.158758)
  28 Al ( 0.000000,  0.000000, -0.026134)
  29 Ni ( 0.000000,  0.000000,  0.312559)
  30 Ni ( 0.000000,  0.000000,  0.470196)
  31 Fe ( 0.000000,  0.000000,  1.893639)
  32 Al ( 0.000000,  0.000000, -0.016917)
  33 Al ( 0.000000,  0.000000, -0.033755)
  34 Fe ( 0.000000,  0.000000,  2.459882)
  35 Al ( 0.000000,  0.000000, -0.028964)
  36 Ni ( 0.000000,  0.000000,  0.135151)
  37 Ni ( 0.000000,  0.000000,  0.205839)
  38 Cr ( 0.000000,  0.000000, -1.587851)
  39 Fe ( 0.000000,  0.000000,  2.164806)
  40 Co ( 0.000000,  0.000000,  0.927790)
  41 Al ( 0.000000,  0.000000, -0.044982)
  42 Cr ( 0.000000,  0.000000,  0.960194)
  43 Ni ( 0.000000,  0.000000,  0.312398)
  44 Cr ( 0.000000,  0.000000,  1.324158)
  45 Co ( 0.000000,  0.000000,  1.375166)
  46 Fe ( 0.000000,  0.000000,  2.477778)
  47 Ni ( 0.000000,  0.000000,  0.307708)
  48 Cr ( 0.000000,  0.000000, -1.418845)
  49 Co ( 0.000000,  0.000000,  1.033612)
  50 Ni ( 0.000000,  0.000000,  0.251310)
  51 Ni ( 0.000000,  0.000000,  0.268619)
  52 Ni ( 0.000000,  0.000000,  0.252265)
  53 Cr ( 0.000000,  0.000000,  1.556797)
  54 Co ( 0.000000,  0.000000,  0.880956)
  55 Co ( 0.000000,  0.000000, -0.571592)
  56 Fe ( 0.000000,  0.000000, -1.971766)
  57 Fe ( 0.000000,  0.000000,  1.122213)
  58 Co ( 0.000000,  0.000000,  0.808655)
  59 Al ( 0.000000,  0.000000, -0.017009)
  60 Ni ( 0.000000,  0.000000,  0.001221)
  61 Fe ( 0.000000,  0.000000,  2.211705)
  62 Al ( 0.000000,  0.000000, -0.009702)
  63 Co ( 0.000000,  0.000000,  0.820023)
  64 Fe ( 0.000000,  0.000000, -1.855144)
  65 Ni ( 0.000000,  0.000000,  0.126787)
  66 Co ( 0.000000,  0.000000,  0.847414)
  67 Co ( 0.000000,  0.000000,  0.841277)
  68 Cr ( 0.000000,  0.000000, -0.959133)
  69 Al ( 0.000000,  0.000000, -0.003164)
  70 Ni ( 0.000000,  0.000000,  0.216067)
  71 Co ( 0.000000,  0.000000,  1.456984)
  72 Al ( 0.000000,  0.000000, -0.019772)
  73 Fe ( 0.000000,  0.000000,  1.852342)
  74 Cr ( 0.000000,  0.000000, -1.790919)
  75 Ni ( 0.000000,  0.000000, -0.109726)
  76 Al ( 0.000000,  0.000000, -0.006161)
  77 Co ( 0.000000,  0.000000,  0.853205)
  78 Al ( 0.000000,  0.000000,  0.016410)
  79 Al ( 0.000000,  0.000000,  0.013183)
  80 Cr ( 0.000000,  0.000000, -1.551968)
  81 Cr ( 0.000000,  0.000000,  1.430118)
  82 Al ( 0.000000,  0.000000, -0.022057)
  83 Cr ( 0.000000,  0.000000, -1.098956)
  84 Fe ( 0.000000,  0.000000,  1.678300)
  85 Al ( 0.000000,  0.000000,  0.002779)
  86 Cr ( 0.000000,  0.000000, -1.660433)
  87 Ni ( 0.000000,  0.000000,  0.055043)
  88 Cr ( 0.000000,  0.000000,  0.555721)
  89 Cr ( 0.000000,  0.000000,  1.281309)
  90 Ni ( 0.000000,  0.000000,  0.043081)
  91 Al ( 0.000000,  0.000000, -0.012849)
  92 Cr ( 0.000000,  0.000000, -1.373951)
  93 Co ( 0.000000,  0.000000,  0.388959)
  94 Ni ( 0.000000,  0.000000,  0.144973)
  95 Al ( 0.000000,  0.000000,  0.015663)
  96 Ni ( 0.000000,  0.000000, -0.028491)
  97 Co ( 0.000000,  0.000000,  0.976142)
  98 Al ( 0.000000,  0.000000, -0.010326)
  99 Fe ( 0.000000,  0.000000, -1.654139)
 100 Fe ( 0.000000,  0.000000, -2.580734)
 101 Ni ( 0.000000,  0.000000,  0.011622)
 102 Fe ( 0.000000,  0.000000,  2.412528)
 103 Cr ( 0.000000,  0.000000, -2.029762)
 104 Fe ( 0.000000,  0.000000, -2.704294)
 105 Al ( 0.000000,  0.000000,  0.013410)
 106 Ni ( 0.000000,  0.000000,  0.215165)
 107 Co ( 0.000000,  0.000000,  0.640283)
 108 Fe ( 0.000000,  0.000000, -2.349208)
 109 Co ( 0.000000,  0.000000, -1.223519)
 110 Fe ( 0.000000,  0.000000,  2.216247)
 111 Al ( 0.000000,  0.000000, -0.012132)
 112 Cr ( 0.000000,  0.000000,  2.346640)
 113 Al ( 0.000000,  0.000000, -0.006894)
 114 Ni ( 0.000000,  0.000000,  0.046586)
 115 Fe ( 0.000000,  0.000000, -2.211241)
 116 Ni ( 0.000000,  0.000000, -0.042046)
 117 Al ( 0.000000,  0.000000, -0.004929)
 118 Fe ( 0.000000,  0.000000,  1.966450)
 119 Al ( 0.000000,  0.000000, -0.023136)
 120 Cr ( 0.000000,  0.000000,  2.421670)
 121 Ni ( 0.000000,  0.000000, -0.160606)
 122 Cr ( 0.000000,  0.000000, -2.516105)
 123 Cr ( 0.000000,  0.000000,  1.942107)
 124 Cr ( 0.000000,  0.000000,  1.850529)

Energy contributions relative to reference atoms: (reference = -3726899.091688)

Kinetic:       +441.419537
Potential:     -400.023382
External:        +0.000000
XC:            -967.687287
Entropy (-ST):   -5.049208
Local:          +35.297397
--------------------------
Free energy:   -896.042943
Extrapolated:  -893.518339

Dipole-layer corrected work functions: 4.851457, 4.833151 eV

Spin contamination: 45.161285 electrons
Showing all kpts
                      Up                     Down
 Kpt  Band  Eigenvalues  Occupancy  Eigenvalues  Occupancy
  0   523      0.04823    0.97993      0.70228    0.06585
  0   524      0.05807    0.97790      0.72016    0.05567
  0   525      0.06791    0.97567      0.72690    0.05224
  0   526      0.08559    0.97110      0.73615    0.04784

  1   523      0.03003    0.98321      0.70510    0.06414
  1   524      0.05643    0.97825      0.71741    0.05714
  1   525      0.06582    0.97616      0.72944    0.05099
  1   526      0.07597    0.97369      0.74301    0.04481


Fermi level: 0.43706

No gap

Forces in eV/Ang:
  0 Co    0.19244    0.14625    0.64865
  1 Ni   -0.31526   -0.11757    0.33382
  2 Cr   -0.04934   -0.10811   -0.59915
  3 Cr    0.24855    0.04169   -1.48158
  4 Ni   -0.11446    0.08563   -0.43740
  5 Co   -0.23995   -0.00400    0.57706
  6 Cr    0.04491   -0.60118   -1.05328
  7 Cr    0.23513   -0.27791    0.17072
  8 Co    0.21375    0.03486    0.14770
  9 Ni   -0.00921   -0.07093   -0.37909
 10 Co   -0.48696   -0.16042    0.10105
 11 Al   -0.13907    0.22812   -1.66796
 12 Co    0.12936    0.20062   -0.16653
 13 Fe   -0.26727   -0.45715   -0.59673
 14 Cr    0.13889   -0.04725    0.56995
 15 Fe   -0.65784    0.41633    0.18496
 16 Fe    0.39059    0.04772    0.35794
 17 Co   -0.37623   -0.10143   -0.21310
 18 Fe    0.36595    0.21493   -0.17662
 19 Fe   -0.03254    0.74490   -0.08718
 20 Al   -0.33064    0.17786   -0.59450
 21 Fe   -0.16138    0.23220    0.37275
 22 Al    0.36287   -0.05923   -0.43797
 23 Co    0.36803   -0.14819    1.10928
 24 Co   -0.50250   -0.41905    1.01651
 25 Co    0.99601    0.23454    0.37766
 26 Co   -0.31849    0.44268    0.17187
 27 Fe   -0.60176   -0.19547   -0.37936
 28 Al    0.52192   -1.24365   -0.04833
 29 Ni   -0.02473   -0.04454    0.32517
 30 Ni    0.35404   -0.48412   -0.20221
 31 Fe   -0.23148   -0.63142    0.08389
 32 Al   -0.63267    0.59219    0.65136
 33 Al    0.62826    0.32760   -0.31661
 34 Fe    0.36398   -0.58637   -0.21792
 35 Al   -0.93146   -0.27636    1.18224
 36 Ni   -0.38088   -0.09480    0.45889
 37 Ni   -0.00405   -0.45873   -0.30840
 38 Cr    0.85138    0.56911   -0.76202
 39 Fe    0.21302   -0.27825   -0.22248
 40 Co   -0.43160    0.50731    0.06334
 41 Al   -0.46813    0.01405    0.69960
 42 Cr    1.02216    0.26957   -0.32076
 43 Ni    0.41035    0.17362    0.48626
 44 Cr    0.04950    0.46539    0.23251
 45 Co   -0.13629    0.61800    0.23583
 46 Fe   -0.03986    1.06053    0.23753
 47 Ni   -0.07412    0.65297    0.08785
 48 Cr   -0.20666   -1.08420   -0.63757
 49 Co    0.16356    0.20268   -0.12796
 50 Ni   -0.11426   -0.11460   -0.47911
 51 Ni    0.18451   -0.09211   -0.79808
 52 Ni   -0.54822   -0.16366    0.25064
 53 Cr    0.80931   -0.41398    0.23012
 54 Co   -0.03965   -0.50954   -0.39742
 55 Co   -0.30221    0.85135   -0.23782
 56 Fe   -0.61668   -0.08811    0.08472
 57 Fe    0.07975   -0.24314    0.15823
 58 Co   -0.09218   -0.22425   -0.35368
 59 Al    0.68881   -0.13435   -0.00040
 60 Ni   -0.44375   -0.01312   -0.49978
 61 Fe   -0.48599   -0.11254    0.14569
 62 Al   -0.24401    0.34776    0.14680
 63 Co    0.44567    0.58937    0.05207
 64 Fe   -0.14733   -0.32055   -0.27822
 65 Ni   -0.03511    0.06542   -0.12335
 66 Co    0.20682    0.31670   -0.18662
 67 Co    0.48684   -0.08492    0.38471
 68 Cr   -0.59664   -0.87376    0.21927
 69 Al    0.08757   -0.18769   -0.89905
 70 Ni   -0.11145    0.17803   -0.55672
 71 Co   -0.02543    0.11040   -0.20802
 72 Al   -0.86727   -0.09000    0.08493
 73 Fe    0.32016   -0.80692   -0.05881
 74 Cr   -0.29816    0.83779   -0.92780
 75 Ni    0.13065    0.59612    0.27142
 76 Al   -0.07765   -0.71086   -0.69797
 77 Co    0.17575   -0.05308    0.10248
 78 Al   -0.63909   -0.62816    0.49514
 79 Al    1.25537   -0.40311    0.48519
 80 Cr   -0.12329    0.76295   -0.22293
 81 Cr   -0.24161    0.23319   -0.39474
 82 Al   -0.23491   -0.02558   -0.19218
 83 Cr    0.44918    0.64868    0.49605
 84 Fe    0.26230   -0.03649    0.21875
 85 Al    0.42746   -0.21677   -0.27955
 86 Cr   -0.21575   -0.76841    0.29568
 87 Ni    0.04096    0.20253    0.10902
 88 Cr    0.84460    0.52827   -0.07476
 89 Cr   -0.94959   -0.20135   -1.31217
 90 Ni    0.01538    0.44536    0.13439
 91 Al    0.19689   -0.37700   -0.79096
 92 Cr    1.61118    0.24046   -1.23288
 93 Co    0.16099   -0.10976   -0.13191
 94 Ni   -0.17216    0.59360   -0.47215
 95 Al   -0.17608    1.22286   -0.57169
 96 Ni   -0.23075    0.16143   -0.03013
 97 Co    0.54305   -0.72400    0.18958
 98 Al    0.00274   -1.05624   -0.28430
 99 Fe   -0.66864    0.21302    0.42411
100 Fe   -0.42778    0.37978    0.14543
101 Ni   -0.19343    0.06786    0.22514
102 Fe   -0.37158    0.61034    0.10175
103 Cr    0.09662   -0.04650    0.55148
104 Fe   -0.16756    0.57727   -0.84655
105 Al   -0.60005   -0.14381    1.44189
106 Ni    0.11529    0.27643    0.42175
107 Co    0.28050    0.04768    0.06368
108 Fe    0.57928    0.15022   -0.26607
109 Co   -0.47204   -0.37279   -0.48431
110 Fe   -0.28823    0.07953   -0.31062
111 Al   -0.55330    0.27146    0.68472
112 Cr    0.84556   -0.73886    0.44989
113 Al    0.46169   -0.68400    0.74533
114 Ni   -0.15246   -0.35285    0.07600
115 Fe    0.37618    0.04840   -0.56824
116 Ni   -0.31381   -0.14169    0.38730
117 Al   -0.36498   -0.02982    0.70955
118 Fe   -0.76617   -0.10047   -0.29510
119 Al   -0.04475   -0.52507    2.27105
120 Cr   -0.02144   -0.27597    2.17444
121 Ni    0.19399   -0.41249    0.13750
122 Cr    0.71905    0.42536    0.23011
123 Cr   -0.17892    0.26465    0.21111
124 Cr    0.42188    0.51112    0.03273

Timing:                              incl.     excl.
-----------------------------------------------------------
Forces:                             44.521    44.521   0.2% |
Hamiltonian:                         1.826     0.019   0.0% |
 Atomic:                             0.447     0.002   0.0% |
  XC Correction:                     0.445     0.445   0.0% |
 Calculate atomic Hamiltonians:      0.646     0.646   0.0% |
 Communicate:                        0.068     0.068   0.0% |
 Initialize Hamiltonian:             0.001     0.001   0.0% |
 Poisson:                            0.135     0.135   0.0% |
 XC 3D grid:                         0.511     0.511   0.0% |
LCAO initialization:               316.171     0.640   0.0% |
 LCAO eigensolver:                  19.444     0.022   0.0% |
  Calculate projections:             0.000     0.000   0.0% |
  DenseAtomicCorrection:             0.000     0.000   0.0% |
  Distribute overlap matrix:         9.337     9.337   0.0% |
  Orbital Layouts:                  10.029    10.029   0.0% |
  Potential matrix:                  0.008     0.008   0.0% |
  Sum over cells:                    0.048     0.048   0.0% |
 LCAO to grid:                     293.779   293.779   1.2% |
 Set positions (LCAO WFS):           2.307     1.926   0.0% |
  Basic WFS set positions:           0.004     0.004   0.0% |
  Basis functions set positions:     0.001     0.001   0.0% |
  P tci:                             0.001     0.001   0.0% |
  ST tci:                            0.147     0.147   0.0% |
  mktci:                             0.228     0.228   0.0% |
PWDescriptor:                        0.134     0.134   0.0% |
SCF-cycle:                       24507.081     1.304   0.0% |
 Davidson:                       23738.636  6870.854  27.6% |----------|
  Apply H:                         485.795   476.712   1.9% ||
   HMM T:                            9.084     9.084   0.0% |
  Subspace diag:                  2324.672     0.087   0.0% |
   calc_h_matrix:                 1038.561   573.680   2.3% ||
    Apply H:                       464.881   455.458   1.8% ||
     HMM T:                          9.423     9.423   0.0% |
   diagonalize:                    196.704   196.704   0.8% |
   rotate_psi:                    1089.321  1089.321   4.4% |-|
  calc. matrices:                 5295.799  4415.204  17.7% |------|
   Apply H:                        880.595   862.431   3.5% ||
    HMM T:                          18.164    18.164   0.1% |
  diagonalize:                    6458.540  6458.540  26.0% |---------|
  rotate_psi:                     2302.976  2302.976   9.3% |---|
 Density:                          446.040     0.008   0.0% |
  Atomic density matrices:           4.116     4.116   0.0% |
  Mix:                             211.999   211.999   0.9% |
  Multipole moments:                 0.122     0.122   0.0% |
  Pseudo density:                  229.795   229.786   0.9% |
   Symmetrize density:               0.009     0.009   0.0% |
 Hamiltonian:                      303.179     2.780   0.0% |
  Atomic:                           63.699     0.278   0.0% |
   XC Correction:                   63.421    63.421   0.3% |
  Calculate atomic Hamiltonians:   149.351   149.351   0.6% |
  Communicate:                       9.691     9.691   0.0% |
  Poisson:                           7.181     7.181   0.0% |
  XC 3D grid:                       70.477    70.477   0.3% |
 Orthonormalize:                    17.922     0.001   0.0% |
  calc_s_matrix:                     2.157     2.157   0.0% |
  inverse-cholesky:                  0.766     0.766   0.0% |
  projections:                      11.208    11.208   0.0% |
  rotate_psi_s:                      3.790     3.790   0.0% |
Set symmetry:                        0.001     0.001   0.0% |
Other:                               8.308     8.308   0.0% |
-----------------------------------------------------------
Total:                                     24878.043 100.0%

Date: Thu Apr 20 02:47:27 2023
