
  ___ ___ ___ _ _ _  
 |   |   |_  | | | | 
 | | | | | . | | | | 
 |__ |  _|___|_____|  22.8.0
 |___|_|             

User:   c.zeng@d0047
Date:   Mon Apr 17 04:37:36 2023
Arch:   x86_64
Pid:    108712
CWD:    /home/c.zeng/projects/hea-corrosion/hea-mlp/data-curation/surface-md/dft-jobs/18
Python: 3.8.1
gpaw:   /home/c.zeng/usr/installs/gpaw/source/gpaw-22.8.0/gpaw
_gpaw:  /home/c.zeng/usr/installs/gpaw/source/gpaw-22.8.0/
        _gpaw.cpython-38-x86_64-linux-gnu.so
ase:    /home/c.zeng/.local/lib/python3.8/site-packages/ase-3.22.1-py3.8.egg/ase (version 3.22.1)
numpy:  /home/c.zeng/.local/lib/python3.8/site-packages/numpy (version 1.24.2)
scipy:  /home/c.zeng/.local/lib/python3.8/site-packages/scipy (version 1.10.1)
libxc:  4.2.3
units:  Angstrom and eV
cores: 30
OpenMP: False
OMP_NUM_THREADS: 1

Input parameters:
  convergence: {energy: 0.0001}
  kpts: [2 2 1]
  maxiter: 666
  mode: {ecut: 350.0,
         name: pw}
  occupations: {fixmagmom: False,
                name: fermi-dirac,
                width: 0.1}
  poissonsolver: {dipolelayer: xy}
  spinpol: True
  symmetry: {point_group: False}
  xc: PBE

System changes: positions, numbers, cell, pbc, initial_charges, initial_magmoms 

Initialize ...

species:
  Cr:
    name: Chromium
    id: 33f258bda2ca9f93018e70263a35547b
    Z: 24.0
    valence: 6
    core: 18
    charge: 0.0
    file: /home/c.zeng/usr/data/gpaw-setups-0.9.20000/Cr.PBE.gz
    compensation charges: {type: gauss,
                           rc: 0.35,
                           lmax: 2}
    cutoffs: {filter: 2.14,
              core: 3.04}
    valence states:
      #              energy  rcut
      - 4s(1.00)    -4.007   1.164
      - 4p(0.00)    -0.989   1.217
      - 3d(5.00)    -2.913   1.111
      -  s          23.205   1.164
      -  p          26.223   1.217
      -  d          24.299   1.111
  
    # Using partial waves for Cr as LCAO basis

  Fe:
    name: Iron
    id: 37abbd8d6c3c35915a9b583b742da910
    Z: 26.0
    valence: 8
    core: 18
    charge: 0.0
    file: /home/c.zeng/usr/data/gpaw-setups-0.9.20000/Fe.PBE.gz
    compensation charges: {type: gauss,
                           rc: 0.33,
                           lmax: 2}
    cutoffs: {filter: 2.06,
              core: 2.67}
    valence states:
      #              energy  rcut
      - 4s(2.00)    -5.291   1.164
      - 4p(0.00)    -1.326   1.058
      - 3d(6.00)    -7.505   1.058
      -  s          21.920   1.164
      -  p          25.885   1.058
      -  d          19.706   1.058
  
    # Using partial waves for Fe as LCAO basis

  Ni:
    name: Nickel
    id: 0d9f38a9d6e76a2886f07bb4381f212b
    Z: 28.0
    valence: 16
    core: 12
    charge: 0.0
    file: /home/c.zeng/usr/data/gpaw-setups-0.9.20000/Ni.PBE.gz
    compensation charges: {type: gauss,
                           rc: 0.36,
                           lmax: 2}
    cutoffs: {filter: 2.14,
              core: 1.98}
    valence states:
      #              energy  rcut
      - 4s(2.00)    -5.642   1.164
      - 3p(6.00)   -71.394   1.207
      - 4p(0.00)    -1.226   1.207
      - 3d(8.00)    -8.875   1.138
      -  s          21.570   1.164
      -  d          18.337   1.138
  
    # Using partial waves for Ni as LCAO basis

  Co:
    name: Cobalt
    id: 339d20d5b0b93d2de9531a1bee871d91
    Z: 27.0
    valence: 9
    core: 18
    charge: 0.0
    file: /home/c.zeng/usr/data/gpaw-setups-0.9.20000/Co.PBE.gz
    compensation charges: {type: gauss,
                           rc: 0.32,
                           lmax: 2}
    cutoffs: {filter: 1.87,
              core: 2.55}
    valence states:
      #              energy  rcut
      - 4s(2.00)    -5.469   1.005
      - 4p(0.00)    -1.277   1.058
      - 3d(7.00)    -8.205   1.005
      -  s          21.742   1.005
      -  p          25.934   1.058
      -  d          19.007   1.005
  
    # Using partial waves for Co as LCAO basis

Reference energy: -4451268.207082  # eV

Spin-polarized calculation.
Magnetic moment: 175.600000

Convergence criteria:
 Maximum [total energy] change in last 3 cyles: 0.0001 eV / electron
 Maximum integral of absolute [dens]ity change: 0.0001 electrons / valence electron
 Maximum integral of absolute [eigenst]ate change: 4e-08 eV^2 / valence electron
 Maximum number of scf [iter]ations: 666
 (Square brackets indicate name in SCF output, whereas a 'c' in
 the SCF output indicates the quantity has converged.)

Symmetries present (total): 1

  ( 1  0  0)
  ( 0  1  0)
  ( 0  0  1)

4 k-points: 2 x 2 x 1 Monkhorst-Pack grid
2 k-points in the irreducible part of the Brillouin zone
       k-points in crystal coordinates                weights
   0:     0.25000000   -0.25000000    0.00000000          2/4
   1:     0.25000000    0.25000000    0.00000000          2/4

Wave functions: Plane wave expansion
  Cutoff energy: 350.000 eV
  Number of coefficients (min, max): 58495, 58567
  Pulay-stress correction: 0.000000 eV/Ang^3 (de/decut=0.000000)
  Using FFTW library
  ScaLapack parameters: grid=1x1, blocksize=None
  Wavefunction extrapolation:
    Improved wavefunction reuse through dual PAW basis 

Occupation numbers: Fermi-Dirac:
  width: 0.1000  # eV
 

Eigensolver
   Davidson(niter=2) 

Densities:
  Coarse grid: 54*54*128 grid
  Fine grid: 108*108*256 grid
  Total Charge: 0.000000 

Density mixing:
  Method: difference
  Backend: pulay
  Linear mixing parameter: 0.05
  old densities: 5
  Damping of long wavelength oscillations: 50 

Hamiltonian:
  XC and Coulomb potentials evaluated on a 108*108*256 grid
  Using the PBE Exchange-Correlation functional
  External potential:
    NoExternalPotential
 

XC parameters: PBE with 2 nearest neighbor stencil

Memory estimate:
  Process memory now: 366.57 MiB
  Calculator: 2405.48 MiB
    Density: 16.73 MiB
      Arrays: 6.75 MiB
      Localized functions: 7.29 MiB
      Mixer: 2.70 MiB
    Hamiltonian: 5.22 MiB
      Arrays: 5.01 MiB
      XC: 0.00 MiB
      Poisson: 0.00 MiB
      vbar: 0.21 MiB
    Wavefunctions: 2383.52 MiB
      Arrays psit_nG: 1501.35 MiB
      Eigensolver: 862.84 MiB
      Projections: 3.85 MiB
      Projectors: 0.98 MiB
      PW-descriptor: 14.51 MiB

Total number of cores used: 30
Parallelization over k-points: 2
Domain decomposition: 1 x 3 x 5

Number of atoms: 125
Number of atomic orbitals: 1218
Number of bands in calculation: 840
Number of valence electrons: 1217
Bands to converge: occupied

... initialized

Initializing position-dependent things.

Density initialized from atomic densities
Creating initial wave functions:
  840 bands from LCAO basis set

                                                                   
                                                                   
                                                                   
                                                                   
                                                                   
                                          NiCr        Co           
                                    Co             Cr              
                          Ni    Ni    Co     Cr                    
                     Cr     Ni    Cr        Co     Fe              
                Co     NFe   Ni Co     FCo    Fe         Co        
                  Ni        Co     NNi    Cr        Fe             
             Co    Fe   Ni    CNi     Cr Fe   CoNi  Fe             
                         NFer      NFe   NiFe                      
       Co           CNi Fe     Co    CFe     Co Cr   Fe            
                Ni        CFe Ni Co     Fe Fe   Fe     Cr          
                     Co    Co       CoFe    Co                     
                Fe Fe  Cr Ni    CoCo    CrNi    Fe                 
            Co       Ni    CrFeNiFe CrNi  Ni Co    Cr  Cr          
               NiFe         Cr  Ni Cr   Cr                         
                     CrFe  Cr     CFe  Fe    Cr                    
           Fe    Co    CCr              Fe    Ni                   
             Co    Co        CrNi   CCo                            
                 Fe      Co          Cr   Cr                       
             Fe    Ni                                              
                                                                   
                                                                   
                                                                   
                                                                   
                                                                   

Positions:
   0 Cr    11.885897    1.255451   10.209529    ( 0.0000,  0.0000,  0.0000)
   1 Fe     2.109156    1.341234    9.956316    ( 0.0000,  0.0000,  2.0000)
   2 Ni     4.628413    1.342547    9.772344    ( 0.0000,  0.0000,  1.5000)
   3 Co     6.943674    1.306820   10.890814    ( 0.0000,  0.0000,  2.1000)
   4 Ni     9.584149    1.365838   10.993437    ( 0.0000,  0.0000,  1.5000)
   5 Cr    13.226225    3.354293    9.595265    ( 0.0000,  0.0000,  0.0000)
   6 Fe     3.306934    3.345924    9.863004    ( 0.0000,  0.0000,  2.0000)
   7 Cr     5.577144    3.266907   10.878292    ( 0.0000,  0.0000,  0.0000)
   8 Cr     7.936498    3.374642   10.641788    ( 0.0000,  0.0000,  0.0000)
   9 Cr    10.835240    3.345784    9.989937    ( 0.0000,  0.0000,  0.0000)
  10 Ni    14.464186    5.780779    9.860492    ( 0.0000,  0.0000,  1.5000)
  11 Cr     4.317602    5.519660   10.635461    ( 0.0000,  0.0000,  0.0000)
  12 Cr     6.820104    5.643162   10.331287    ( 0.0000,  0.0000,  0.0000)
  13 Cr     9.431819    5.439513   10.558370    ( 0.0000,  0.0000,  0.0000)
  14 Fe    12.101824    5.464870    9.850816    ( 0.0000,  0.0000,  2.0000)
  15 Cr    15.918451    7.833145   11.219370    ( 0.0000,  0.0000,  0.0000)
  16 Ni     5.919548    7.975959   11.017547    ( 0.0000,  0.0000,  1.5000)
  17 Ni     8.175595    7.772219   10.598541    ( 0.0000,  0.0000,  1.5000)
  18 Fe    10.974045    7.741710    9.826457    ( 0.0000,  0.0000,  2.0000)
  19 Cr    13.371883    7.758931    9.903275    ( 0.0000,  0.0000,  0.0000)
  20 Cr    16.736989    9.950826   10.374434    ( 0.0000,  0.0000,  0.0000)
  21 Ni     7.078180   10.113443   10.295142    ( 0.0000,  0.0000,  1.5000)
  22 Cr     9.291441    9.691685   10.323019    ( 0.0000,  0.0000,  0.0000)
  23 Ni    11.785776    9.970378    9.676475    ( 0.0000,  0.0000,  1.5000)
  24 Fe    14.172498    9.751167   10.679785    ( 0.0000,  0.0000,  2.0000)
  25 Co    12.261667    0.066564   12.295402    ( 0.0000,  0.0000,  2.1000)
  26 Co     2.350978   -0.030163   12.264259    ( 0.0000,  0.0000,  2.1000)
  27 Co     4.789386   -0.032800   11.878925    ( 0.0000,  0.0000,  2.1000)
  28 Cr     7.009178   -0.303050   13.104592    ( 0.0000,  0.0000,  0.0000)
  29 Fe    15.969057   10.527604   12.911464    ( 0.0000,  0.0000,  2.0000)
  30 Fe     1.260100    2.205802   11.844835    ( 0.0000,  0.0000,  2.0000)
  31 Co     3.542788    2.075403   11.912391    ( 0.0000,  0.0000,  2.1000)
  32 Fe     5.784086    2.113107   12.809223    ( 0.0000,  0.0000,  2.0000)
  33 Cr     8.179708    1.995010   13.023423    ( 0.0000,  0.0000,  0.0000)
  34 Fe    10.730499    2.361232   12.748615    ( 0.0000,  0.0000,  2.0000)
  35 Ni     2.315524    4.430966   11.782435    ( 0.0000,  0.0000,  1.5000)
  36 Ni     4.611264    4.305659   13.003681    ( 0.0000,  0.0000,  1.5000)
  37 Cr     7.186947    4.306636   12.755453    ( 0.0000,  0.0000,  0.0000)
  38 Fe     9.522410    4.228304   12.644942    ( 0.0000,  0.0000,  2.0000)
  39 Cr    12.215049    4.243588   11.943459    ( 0.0000,  0.0000,  0.0000)
  40 Fe     3.363045    6.229266   13.080309    ( 0.0000,  0.0000,  2.0000)
  41 Ni     6.156506    6.458203   12.796100    ( 0.0000,  0.0000,  1.5000)
  42 Co     8.634573    6.415324   12.696920    ( 0.0000,  0.0000,  2.1000)
  43 Ni    11.141969    6.124827   12.033557    ( 0.0000,  0.0000,  1.5000)
  44 Co    13.631008    6.568249   11.894189    ( 0.0000,  0.0000,  2.1000)
  45 Cr    17.083682    8.539695   13.133804    ( 0.0000,  0.0000,  0.0000)
  46 Ni     7.162927    8.835194   12.708783    ( 0.0000,  0.0000,  1.5000)
  47 Co     9.737334    8.483315   12.341236    ( 0.0000,  0.0000,  2.1000)
  48 Ni    11.960955    8.495396   11.729735    ( 0.0000,  0.0000,  1.5000)
  49 Fe    14.499431    8.772966   12.988235    ( 0.0000,  0.0000,  2.0000)
  50 Co     1.689911    0.724152   14.681306    ( 0.0000,  0.0000,  2.1000)
  51 Fe     3.951616    1.085517   14.190967    ( 0.0000,  0.0000,  2.0000)
  52 Cr     6.154761    0.882182   15.179877    ( 0.0000,  0.0000,  0.0000)
  53 Fe     8.887549    0.657116   14.863174    ( 0.0000,  0.0000,  2.0000)
  54 Cr    11.357104    0.728824   14.378733    ( 0.0000,  0.0000,  0.0000)
  55 Fe     2.859133    3.034762   14.064102    ( 0.0000,  0.0000,  2.0000)
  56 Co     5.121501    2.862619   15.271863    ( 0.0000,  0.0000,  2.1000)
  57 Co     7.352046    2.908384   15.060628    ( 0.0000,  0.0000,  2.1000)
  58 Co    10.008955    2.961325   14.802904    ( 0.0000,  0.0000,  2.1000)
  59 Cr    12.783114    2.778888   14.231038    ( 0.0000,  0.0000,  0.0000)
  60 Co     3.929424    5.118692   15.580574    ( 0.0000,  0.0000,  2.1000)
  61 Cr     6.407669    5.092943   15.138908    ( 0.0000,  0.0000,  0.0000)
  62 Co     9.170916    5.049698   14.794347    ( 0.0000,  0.0000,  2.1000)
  63 Fe    11.468865    4.855171   14.019206    ( 0.0000,  0.0000,  2.0000)
  64 Co    13.724395    4.844083   13.917900    ( 0.0000,  0.0000,  2.1000)
  65 Fe     5.008240    6.951392   14.792134    ( 0.0000,  0.0000,  2.0000)
  66 Ni     7.804131    7.053473   14.695574    ( 0.0000,  0.0000,  1.5000)
  67 Cr    10.210725    7.051788   14.474981    ( 0.0000,  0.0000,  0.0000)
  68 Fe    12.765212    7.435980   13.938015    ( 0.0000,  0.0000,  2.0000)
  69 Cr    14.675591    7.046954   15.061592    ( 0.0000,  0.0000,  0.0000)
  70 Cr     5.943608    9.140660   14.793708    ( 0.0000,  0.0000,  0.0000)
  71 Ni     8.896208    9.445958   14.469628    ( 0.0000,  0.0000,  1.5000)
  72 Ni    11.264514    9.318871   14.272861    ( 0.0000,  0.0000,  1.5000)
  73 Co    13.255643    9.357199   15.251088    ( 0.0000,  0.0000,  2.1000)
  74 Fe    16.020797    9.285973   15.005122    ( 0.0000,  0.0000,  2.0000)
  75 Fe    12.880855    1.380927   16.544389    ( 0.0000,  0.0000,  2.0000)
  76 Ni     3.053421    1.814541   16.387723    ( 0.0000,  0.0000,  1.5000)
  77 Ni     5.106705    1.617595   17.347390    ( 0.0000,  0.0000,  1.5000)
  78 Fe     7.630793    1.255440   17.189891    ( 0.0000,  0.0000,  2.0000)
  79 Co    10.184716    1.376817   16.680674    ( 0.0000,  0.0000,  2.1000)
  80 Co    14.400305    3.747018   16.178223    ( 0.0000,  0.0000,  2.1000)
  81 Fe     3.922679    3.879157   17.610449    ( 0.0000,  0.0000,  2.0000)
  82 Ni     6.213404    3.542623   17.540792    ( 0.0000,  0.0000,  1.5000)
  83 Co     8.913702    3.690483   16.647718    ( 0.0000,  0.0000,  2.1000)
  84 Fe    11.847693    3.590663   16.237191    ( 0.0000,  0.0000,  2.0000)
  85 Ni    15.002110    5.612022   17.286254    ( 0.0000,  0.0000,  1.5000)
  86 Ni     5.388789    5.833507   17.356097    ( 0.0000,  0.0000,  1.5000)
  87 Co     7.885368    5.880126   16.773020    ( 0.0000,  0.0000,  2.1000)
  88 Fe    10.339242    5.663399   16.614505    ( 0.0000,  0.0000,  2.0000)
  89 Fe    12.951174    5.791801   15.941980    ( 0.0000,  0.0000,  2.0000)
  90 Fe    16.067014    7.692684   17.072102    ( 0.0000,  0.0000,  2.0000)
  91 Co     6.518031    7.681342   16.589062    ( 0.0000,  0.0000,  2.1000)
  92 Ni     9.316417    7.984557   16.601355    ( 0.0000,  0.0000,  1.5000)
  93 Fe    11.689894    7.845411   16.090857    ( 0.0000,  0.0000,  2.0000)
  94 Fe    13.855504    7.863165   17.595924    ( 0.0000,  0.0000,  2.0000)
  95 Co    17.693461   10.227570   16.507634    ( 0.0000,  0.0000,  2.1000)
  96 Co     7.665351    9.734797   16.847211    ( 0.0000,  0.0000,  2.1000)
  97 Fe    10.096948   10.411999   16.386567    ( 0.0000,  0.0000,  2.0000)
  98 Co    12.450220    9.942070   17.480213    ( 0.0000,  0.0000,  2.1000)
  99 Fe    15.081311   10.095474   16.986461    ( 0.0000,  0.0000,  2.0000)
 100 Co     0.201810    0.017013   18.377633    ( 0.0000,  0.0000,  2.1000)
 101 Co     8.917576   11.031666   18.448122    ( 0.0000,  0.0000,  2.1000)
 102 Ni    11.359811   11.034638   19.388989    ( 0.0000,  0.0000,  1.5000)
 103 Fe     7.734469   -0.022119   19.433593    ( 0.0000,  0.0000,  2.0000)
 104 Co    16.362502   11.201464   18.848034    ( 0.0000,  0.0000,  2.1000)
 105 Co     1.775442    2.759406   18.379100    ( 0.0000,  0.0000,  2.1000)
 106 Ni     3.746955    2.280653   19.426624    ( 0.0000,  0.0000,  1.5000)
 107 Fe     6.402374    2.585937   19.890006    ( 0.0000,  0.0000,  2.0000)
 108 Ni     9.146081    2.392778   18.719778    ( 0.0000,  0.0000,  1.5000)
 109 Cr    11.848819    2.432338   18.767717    ( 0.0000,  0.0000,  0.0000)
 110 Co     2.663091    4.642118   19.502470    ( 0.0000,  0.0000,  2.1000)
 111 Ni     5.177628    4.546215   19.644959    ( 0.0000,  0.0000,  1.5000)
 112 Ni     7.874286    4.319678   19.078234    ( 0.0000,  0.0000,  1.5000)
 113 Ni    10.489196    4.476376   18.859875    ( 0.0000,  0.0000,  1.5000)
 114 Cr    12.920345    4.720611   18.325662    ( 0.0000,  0.0000,  0.0000)
 115 Cr     3.889596    6.748449   19.244784    ( 0.0000,  0.0000,  0.0000)
 116 Ni     6.686721    6.612996   19.021414    ( 0.0000,  0.0000,  1.5000)
 117 Cr     9.352850    6.583629   18.726268    ( 0.0000,  0.0000,  0.0000)
 118 Co    11.573085    6.758125   18.414366    ( 0.0000,  0.0000,  2.1000)
 119 Cr    13.737344    6.501209   19.991593    ( 0.0000,  0.0000,  0.0000)
 120 Ni     5.346391    8.637632   18.797258    ( 0.0000,  0.0000,  1.5000)
 121 Ni     7.767658    8.498987   18.864929    ( 0.0000,  0.0000,  1.5000)
 122 Co    10.168058    8.904490   18.736698    ( 0.0000,  0.0000,  2.1000)
 123 Cr    12.528688    8.945841   19.822481    ( 0.0000,  0.0000,  0.0000)
 124 Cr    15.515436    8.812078   19.246437    ( 0.0000,  0.0000,  0.0000)

Unit cell:
           periodic     x           y           z      points  spacing
  1. axis:    yes   12.446800    0.000000    0.000000    54     0.1996
  2. axis:    yes    6.223010   10.778600    0.000000    54     0.1996
  3. axis:    no     0.000000    0.000000   29.353100   128     0.2293

  Lengths:  12.446800  12.446046  29.353100
  Angles:   90.000000  90.000000  60.000070

Effective grid spacing dv^(1/3) = 0.2193

     iter     time        total  log10-change:  magmom
                         energy  eigst   dens
iter:   1 04:45:10 -1256.246906                  +175.9175
iter:   2 04:47:44 -1170.025804  +0.03  -1.11    +97.2102
iter:   3 04:50:17 -1197.618310  -0.41  -1.07    +80.4163
iter:   4 04:52:52 -2049.683392  +0.12  -1.07    +69.6234
iter:   5 04:55:26 -1024.793056  -0.50  -0.77    +47.9918
iter:   6 04:58:00  -994.079331  -1.24  -1.29    +44.0817
iter:   7 05:00:34  -991.407978  -1.76  -1.33    +45.5489
iter:   8 05:03:09  -993.154380  -1.34  -1.33    +45.5149
iter:   9 05:05:43 -1039.203646  -1.31  -1.33    +48.5255
iter:  10 05:08:17 -1156.713108  -0.99  -1.24    +47.0909
iter:  11 05:10:51 -1010.828491  -1.27  -1.07    +45.0624
iter:  12 05:13:25 -1004.576468  -1.47  -1.35    +44.5237
iter:  13 05:15:59  -985.968056  -1.64  -1.39    +43.6356
iter:  14 05:18:33  -980.920690  -1.81  -1.44    +44.5842
iter:  15 05:21:08  -970.576947  -2.04  -1.45    +47.0041
iter:  16 05:23:42  -984.094043  -1.93  -1.49    +52.7239
iter:  17 05:26:16 -1022.166972  -1.66  -1.48    +52.4133
iter:  18 05:28:50  -970.654281  -1.86  -1.28    +53.9900
iter:  19 05:31:24  -973.919305  -2.05  -1.59    +57.6105
iter:  20 05:33:58  -973.503002  -2.05  -1.59    +59.8711
iter:  21 05:36:32  -967.336327  -1.90  -1.57    +63.5800
iter:  22 05:39:07  -972.671289  -2.05  -1.67    +65.1662
iter:  23 05:41:41 -1180.069810  -1.27  -1.62    +67.0362
iter:  24 05:44:14  -982.127523  -1.42  -1.10    +65.7322
iter:  25 05:46:49  -968.779963  -2.30  -1.51    +67.2999
iter:  26 05:49:23  -970.012048  -2.52  -1.70    +71.9691
iter:  27 05:51:57  -980.940646  -2.57  -1.71    +73.6693
iter:  28 05:54:31  -970.957230  -2.83  -1.55    +76.5588
iter:  29 05:57:05  -986.074434  -1.78  -1.70    +80.3903
iter:  30 05:59:40  -968.570803  -2.05  -1.57    +78.6552
iter:  31 06:02:14  -975.913932  -2.51  -1.81    +78.7386
iter:  32 06:04:48  -967.759596  -2.47  -1.68    +81.5463
iter:  33 06:07:23  -968.810169  -2.48  -1.91    +83.1817
iter:  34 06:09:58  -967.409261  -2.48  -1.95    +81.1607
iter:  35 06:12:32  -966.643239  -2.82  -2.00    +80.5608
iter:  36 06:15:06  -970.138435  -2.54  -2.18    +81.4119
iter:  37 06:17:40  -967.578418  -2.87  -1.98    +81.7375
iter:  38 06:20:14  -969.257530  -2.92  -2.19    +82.7317
iter:  39 06:22:48  -967.879371  -3.40  -2.07    +82.1698
iter:  40 06:25:23  -969.878996  -3.01  -2.32    +82.9003
iter:  41 06:27:57  -969.209228  -3.84  -2.10    +82.6364
iter:  42 06:30:31  -969.929203  -3.21  -2.18    +81.5469
iter:  43 06:33:05  -971.528252  -3.02  -2.18    +80.7985
iter:  44 06:35:39  -970.759917  -2.81  -2.08    +80.1278
iter:  45 06:38:13  -970.680520  -3.13  -2.20    +81.2261
iter:  46 06:40:46  -970.844430  -2.98  -2.29    +83.0668
iter:  47 06:43:17  -970.850716  -3.40  -2.25    +83.1143
iter:  48 06:45:48  -971.285405  -3.45  -2.29    +82.9600
iter:  49 06:48:19  -971.260047  -3.44  -2.23    +82.6132
iter:  50 06:50:50  -972.561459  -3.16  -2.26    +82.9807
iter:  51 06:53:21  -971.363619  -3.05  -2.09    +82.9792
iter:  52 06:55:52  -971.417588  -3.34  -2.33    +83.1697
iter:  53 06:58:23  -971.191761  -3.34  -2.30    +83.3728
iter:  54 07:00:54  -971.618634  -2.99  -2.40    +83.4243
iter:  55 07:03:24  -970.988675  -3.44  -2.28    +83.9512
iter:  56 07:05:55  -973.305400  -3.05  -2.52    +84.4166
iter:  57 07:08:26  -970.771530  -3.45  -2.05    +84.5123
iter:  58 07:10:57  -970.791270  -4.11  -2.80    +85.2038
iter:  59 07:13:28  -970.846807c -4.15  -2.82    +85.6209
iter:  60 07:15:57  -970.888234c -4.05  -2.80    +86.0081
iter:  61 07:18:28  -970.837993c -4.41  -2.78    +86.0328
iter:  62 07:20:59  -971.009642  -4.16  -2.89    +86.1929
iter:  63 07:23:30  -970.962432  -3.99  -2.64    +86.2349
iter:  64 07:26:01  -970.849060  -4.40  -2.66    +86.2496
iter:  65 07:28:31  -970.857991c -4.49  -3.02    +86.4572
iter:  66 07:31:02  -970.889829c -4.33  -3.04    +86.4501
iter:  67 07:33:33  -970.852220c -4.58  -2.88    +86.5267
iter:  68 07:36:04  -970.874690c -4.72  -3.11    +86.5528
iter:  69 07:38:35  -970.880719c -4.67  -2.96    +86.6039
iter:  70 07:41:05  -970.849543c -5.08  -2.98    +86.6514
iter:  71 07:43:36  -970.851241c -5.52  -3.21    +86.6543
iter:  72 07:46:08  -970.877510c -4.94  -3.25    +86.6770
iter:  73 07:48:39  -970.854882c -5.10  -3.05    +86.6537
iter:  74 07:51:10  -970.869340c -5.02  -3.26    +86.6789
iter:  75 07:53:41  -971.128995  -4.12  -3.17    +86.6606
iter:  76 07:56:12  -970.860222  -4.45  -2.53    +86.6221
iter:  77 07:58:43  -970.856054  -4.95  -3.38    +86.6573
iter:  78 08:01:14  -970.862927c -5.14  -3.43    +86.6851
iter:  79 08:03:46  -970.856328c -5.35  -3.23    +86.7172
iter:  80 08:06:17  -970.856486c -5.84  -3.56    +86.6844
iter:  81 08:08:48  -970.891846c -5.11  -3.62    +86.6854
iter:  82 08:11:19  -970.858783c -5.52  -3.05    +86.6749
iter:  83 08:13:50  -970.860397c -5.85  -3.71    +86.6780
iter:  84 08:16:21  -970.859742c -5.90  -3.67    +86.6630
iter:  85 08:18:52  -970.863986c -5.72  -3.79    +86.6596
iter:  86 08:21:23  -970.861538c -5.83  -3.65    +86.6577
iter:  87 08:23:54  -970.861647c -5.88  -3.81    +86.6468
iter:  88 08:26:25  -970.863526c -5.98  -3.62    +86.6684
iter:  89 08:28:57  -970.863116c -6.24  -3.79    +86.6384
iter:  90 08:31:28  -970.864156c -6.18  -4.03c   +86.6289
iter:  91 08:33:59  -970.863593c -6.69  -3.97    +86.6316
iter:  92 08:36:30  -970.866130c -5.62  -3.97    +86.6095
iter:  93 08:39:02  -970.868118c -5.56  -3.88    +86.5994
iter:  94 08:41:32  -970.868095c -6.33  -3.79    +86.6084
iter:  95 08:44:04  -970.869559c -5.72  -3.55    +86.5898
iter:  96 08:46:35  -970.869646c -6.02  -3.75    +86.5684
iter:  97 08:49:06  -970.870913c -6.10  -3.66    +86.5645
iter:  98 08:51:37  -970.873849c -5.57  -3.71    +86.5747
iter:  99 08:54:08  -970.899739c -5.26  -3.56    +86.5554
iter: 100 08:56:38  -970.874898c -5.56  -3.08    +86.5025
iter: 101 08:59:09  -970.879729c -5.67  -3.60    +86.5038
iter: 102 09:01:39  -970.873645c -5.86  -3.41    +86.4609
iter: 103 09:04:10  -970.873158c -5.89  -3.68    +86.4346
iter: 104 09:06:41  -970.873943c -5.96  -3.65    +86.4374
iter: 105 09:09:11  -970.874188c -5.90  -3.70    +86.4169
iter: 106 09:11:42  -970.878409c -5.71  -3.62    +86.4152
iter: 107 09:14:13  -970.873843c -5.93  -3.52    +86.4300
iter: 108 09:16:44  -970.876703c -6.09  -3.63    +86.4520
iter: 109 09:19:15  -970.877851c -6.44  -3.66    +86.4337
iter: 110 09:21:45  -970.877789c -6.24  -3.59    +86.4342
iter: 111 09:24:16  -970.878569c -5.60  -3.57    +86.3934
iter: 112 09:26:47  -970.875233c -5.71  -3.56    +86.3726
iter: 113 09:29:18  -970.877866c -6.18  -3.83    +86.3901
iter: 114 09:31:50  -970.875812c -5.63  -3.76    +86.3876
iter: 115 09:34:21  -970.875342c -6.27  -3.54    +86.3902
iter: 116 09:36:52  -970.875794c -6.37  -4.02c   +86.4036
iter: 117 09:39:23  -970.876242c -6.54  -3.94    +86.4146
iter: 118 09:41:54  -970.877212c -6.24  -4.11c   +86.4140
iter: 119 09:44:25  -970.875883c -6.55  -3.92    +86.4056
iter: 120 09:46:57  -970.877489c -6.49  -3.96    +86.4124
iter: 121 09:49:28  -970.876547c -6.71  -4.03c   +86.4163
iter: 122 09:51:59  -970.876598c -6.95  -4.18c   +86.4160
iter: 123 09:54:31  -970.877075c -6.78  -4.30c   +86.4148
iter: 124 09:57:02  -970.877306c -6.89  -4.28c   +86.4060
iter: 125 09:59:33  -970.877076c -7.14  -4.21c   +86.4011
iter: 126 10:02:05  -970.877235c -6.93  -4.30c   +86.4010
iter: 127 10:04:36  -970.877179c -7.76c -4.22c   +86.4000

Converged after 127 iterations.

Dipole moment: (60.226541, 15.285636, 0.100797) |e|*Ang

Total magnetic moment: (0.000000, 0.000000, 86.400035)
Local magnetic moments:
   0 Cr ( 0.000000,  0.000000, -2.280672)
   1 Fe ( 0.000000,  0.000000,  2.340864)
   2 Ni ( 0.000000,  0.000000,  0.503477)
   3 Co ( 0.000000,  0.000000,  0.888092)
   4 Ni ( 0.000000,  0.000000,  0.252485)
   5 Cr ( 0.000000,  0.000000, -2.719704)
   6 Fe ( 0.000000,  0.000000,  2.484026)
   7 Cr ( 0.000000,  0.000000, -0.861544)
   8 Cr ( 0.000000,  0.000000, -1.426684)
   9 Cr ( 0.000000,  0.000000,  2.544808)
  10 Ni ( 0.000000,  0.000000,  0.231339)
  11 Cr ( 0.000000,  0.000000, -2.687326)
  12 Cr ( 0.000000,  0.000000,  2.847141)
  13 Cr ( 0.000000,  0.000000, -2.548650)
  14 Fe ( 0.000000,  0.000000,  2.373550)
  15 Cr ( 0.000000,  0.000000,  1.769039)
  16 Ni ( 0.000000,  0.000000,  0.049193)
  17 Ni ( 0.000000,  0.000000,  0.130279)
  18 Fe ( 0.000000,  0.000000,  2.775712)
  19 Cr ( 0.000000,  0.000000, -2.462948)
  20 Cr ( 0.000000,  0.000000, -2.744792)
  21 Ni ( 0.000000,  0.000000,  0.210973)
  22 Cr ( 0.000000,  0.000000, -2.377522)
  23 Ni ( 0.000000,  0.000000,  0.547885)
  24 Fe ( 0.000000,  0.000000,  2.517372)
  25 Co ( 0.000000,  0.000000,  1.091156)
  26 Co ( 0.000000,  0.000000,  1.458081)
  27 Co ( 0.000000,  0.000000,  1.496521)
  28 Cr ( 0.000000,  0.000000, -1.119590)
  29 Fe ( 0.000000,  0.000000,  1.926388)
  30 Fe ( 0.000000,  0.000000,  2.285805)
  31 Co ( 0.000000,  0.000000,  1.488223)
  32 Fe ( 0.000000,  0.000000,  1.879732)
  33 Cr ( 0.000000,  0.000000, -1.070469)
  34 Fe ( 0.000000,  0.000000,  2.032199)
  35 Ni ( 0.000000,  0.000000,  0.361061)
  36 Ni ( 0.000000,  0.000000,  0.356274)
  37 Cr ( 0.000000,  0.000000,  1.138781)
  38 Fe ( 0.000000,  0.000000,  1.563684)
  39 Cr ( 0.000000,  0.000000, -1.737923)
  40 Fe ( 0.000000,  0.000000,  2.222513)
  41 Ni ( 0.000000,  0.000000,  0.334661)
  42 Co ( 0.000000,  0.000000,  1.202989)
  43 Ni ( 0.000000,  0.000000,  0.176861)
  44 Co ( 0.000000,  0.000000,  1.107574)
  45 Cr ( 0.000000,  0.000000, -0.840118)
  46 Ni ( 0.000000,  0.000000,  0.157746)
  47 Co ( 0.000000,  0.000000,  1.454670)
  48 Ni ( 0.000000,  0.000000,  0.506994)
  49 Fe ( 0.000000,  0.000000,  1.383874)
  50 Co ( 0.000000,  0.000000,  1.606028)
  51 Fe ( 0.000000,  0.000000,  2.222476)
  52 Cr ( 0.000000,  0.000000, -1.881988)
  53 Fe ( 0.000000,  0.000000,  1.856545)
  54 Cr ( 0.000000,  0.000000,  0.264021)
  55 Fe ( 0.000000,  0.000000,  2.440197)
  56 Co ( 0.000000,  0.000000,  1.286628)
  57 Co ( 0.000000,  0.000000,  0.998370)
  58 Co ( 0.000000,  0.000000,  1.412812)
  59 Cr ( 0.000000,  0.000000, -1.556155)
  60 Co ( 0.000000,  0.000000,  1.389510)
  61 Cr ( 0.000000,  0.000000, -1.974289)
  62 Co ( 0.000000,  0.000000,  1.072767)
  63 Fe ( 0.000000,  0.000000,  1.938273)
  64 Co ( 0.000000,  0.000000,  1.070413)
  65 Fe ( 0.000000,  0.000000,  1.871305)
  66 Ni ( 0.000000,  0.000000,  0.347853)
  67 Cr ( 0.000000,  0.000000, -1.929325)
  68 Fe ( 0.000000,  0.000000,  2.034520)
  69 Cr ( 0.000000,  0.000000, -2.043645)
  70 Cr ( 0.000000,  0.000000, -0.253705)
  71 Ni ( 0.000000,  0.000000,  0.637013)
  72 Ni ( 0.000000,  0.000000,  0.312549)
  73 Co ( 0.000000,  0.000000,  0.831224)
  74 Fe ( 0.000000,  0.000000,  1.527638)
  75 Fe ( 0.000000,  0.000000,  2.517267)
  76 Ni ( 0.000000,  0.000000,  0.611703)
  77 Ni ( 0.000000,  0.000000,  0.526916)
  78 Fe ( 0.000000,  0.000000,  2.669231)
  79 Co ( 0.000000,  0.000000,  1.541216)
  80 Co ( 0.000000,  0.000000,  1.482069)
  81 Fe ( 0.000000,  0.000000,  2.613321)
  82 Ni ( 0.000000,  0.000000,  0.621265)
  83 Co ( 0.000000,  0.000000,  1.629300)
  84 Fe ( 0.000000,  0.000000,  2.451465)
  85 Ni ( 0.000000,  0.000000,  0.610645)
  86 Ni ( 0.000000,  0.000000,  0.497036)
  87 Co ( 0.000000,  0.000000,  1.327595)
  88 Fe ( 0.000000,  0.000000,  2.418686)
  89 Fe ( 0.000000,  0.000000,  2.119254)
  90 Fe ( 0.000000,  0.000000,  2.241411)
  91 Co ( 0.000000,  0.000000,  1.476342)
  92 Ni ( 0.000000,  0.000000,  0.457413)
  93 Fe ( 0.000000,  0.000000,  2.182919)
  94 Fe ( 0.000000,  0.000000,  2.498508)
  95 Co ( 0.000000,  0.000000,  1.107168)
  96 Co ( 0.000000,  0.000000,  1.693882)
  97 Fe ( 0.000000,  0.000000,  2.814212)
  98 Co ( 0.000000,  0.000000,  1.552869)
  99 Fe ( 0.000000,  0.000000,  2.432992)
 100 Co ( 0.000000,  0.000000,  1.696985)
 101 Co ( 0.000000,  0.000000,  1.802516)
 102 Ni ( 0.000000,  0.000000,  0.473091)
 103 Fe ( 0.000000,  0.000000,  2.637277)
 104 Co ( 0.000000,  0.000000,  1.628617)
 105 Co ( 0.000000,  0.000000,  1.438898)
 106 Ni ( 0.000000,  0.000000,  0.621734)
 107 Fe ( 0.000000,  0.000000,  3.175414)
 108 Ni ( 0.000000,  0.000000,  0.672490)
 109 Cr ( 0.000000,  0.000000, -2.988776)
 110 Co ( 0.000000,  0.000000,  1.359589)
 111 Ni ( 0.000000,  0.000000,  0.649848)
 112 Ni ( 0.000000,  0.000000,  0.633018)
 113 Ni ( 0.000000,  0.000000,  0.300032)
 114 Cr ( 0.000000,  0.000000,  1.976670)
 115 Cr ( 0.000000,  0.000000,  2.237277)
 116 Ni ( 0.000000,  0.000000,  0.473903)
 117 Cr ( 0.000000,  0.000000, -2.589137)
 118 Co ( 0.000000,  0.000000,  1.184870)
 119 Cr ( 0.000000,  0.000000, -3.201128)
 120 Ni ( 0.000000,  0.000000,  0.425544)
 121 Ni ( 0.000000,  0.000000,  0.484786)
 122 Co ( 0.000000,  0.000000,  1.624333)
 123 Cr ( 0.000000,  0.000000, -3.165146)
 124 Cr ( 0.000000,  0.000000, -2.235277)

Energy contributions relative to reference atoms: (reference = -4451268.207082)

Kinetic:       +353.904668
Potential:     -381.884318
External:        +0.000000
XC:            -984.125742
Entropy (-ST):   -5.530792
Local:          +43.993610
--------------------------
Free energy:   -973.642575
Extrapolated:  -970.877179

Dipole-layer corrected work functions: 4.733851, 4.597897 eV

Spin contamination: 57.400548 electrons
Showing all kpts
                      Up                     Down
 Kpt  Band  Eigenvalues  Occupancy  Eigenvalues  Occupancy
  0   606      0.09765    0.99844      1.10391    0.02660
  0   607      0.10466    0.99833      1.10951    0.02519
  0   608      0.11523    0.99814      1.11656    0.02351
  0   609      0.12111    0.99803      1.13082    0.02045

  1   606      0.10516    0.99832      1.11136    0.02474
  1   607      0.11892    0.99807      1.11856    0.02306
  1   608      0.12909    0.99787      1.12536    0.02157
  1   609      0.14383    0.99753      1.13527    0.01958


Fermi level: 0.74392

No gap

Forces in eV/Ang:
  0 Cr    0.24741    0.50566    0.69929
  1 Fe    0.41392   -0.98402   -0.58129
  2 Ni   -0.09734   -0.30516    0.55017
  3 Co    0.07706   -1.18546    0.16330
  4 Ni   -1.16157   -0.28431   -0.63636
  5 Cr    0.93167    0.83811   -0.16485
  6 Fe   -0.00317    0.79986   -0.22436
  7 Cr    0.23375    0.41067   -0.16417
  8 Cr    0.28971   -0.14785    0.82804
  9 Cr   -0.95827   -0.55236    0.65821
 10 Ni    0.81157   -0.78044   -0.58348
 11 Cr    0.60673    0.52615    0.82470
 12 Cr   -0.04263    0.08500    0.39423
 13 Cr   -0.17049    0.37336   -0.77391
 14 Fe   -0.27934    0.72207    0.35708
 15 Cr   -0.68611   -0.17699   -0.94107
 16 Ni   -1.41901   -0.01501   -1.42303
 17 Ni    0.45210   -0.72583    0.24935
 18 Fe   -1.24948   -0.75117    0.15564
 19 Cr    0.14241    0.69611   -0.72563
 20 Cr   -0.01247   -0.95334    0.70042
 21 Ni   -0.90439   -1.01393    0.03187
 22 Cr    2.14801    0.83524   -0.99675
 23 Ni    0.57354   -0.03586    0.52519
 24 Fe    0.08191    0.87357    0.70424
 25 Co   -0.68080    0.52395    0.77711
 26 Co   -0.02547    0.31807    0.61035
 27 Co    0.26290    0.37971    0.15840
 28 Cr   -0.66726    0.60601   -0.59169
 29 Fe    0.01755    1.24471   -1.73905
 30 Fe   -1.43592   -0.10222    1.20335
 31 Co    0.42751    0.40172   -0.00457
 32 Fe    0.48929   -0.40975    1.12327
 33 Cr    0.23870    0.02427   -0.32334
 34 Fe    1.51266   -1.20419   -1.29158
 35 Ni    0.29401   -0.82230    0.21019
 36 Ni    0.74913   -0.16754    0.11840
 37 Cr   -0.11768   -0.55520   -0.19259
 38 Fe    0.17670    0.28444   -1.21509
 39 Cr    1.04676   -1.42235   -0.50003
 40 Fe   -0.47999    0.61835    0.44824
 41 Ni   -0.23964   -0.31711   -0.02645
 42 Co   -0.12610   -0.16574   -1.20334
 43 Ni   -0.94735    2.84191    0.58702
 44 Co    0.04257   -0.01688    0.54454
 45 Cr    0.75705   -0.19083   -1.90847
 46 Ni    1.13515   -0.62142    0.61922
 47 Co   -0.31223    0.22231    0.39126
 48 Ni    1.34926    0.52547    1.15912
 49 Fe   -0.12722   -1.36970    0.30998
 50 Co   -1.00450    0.09484   -0.53829
 51 Fe    0.52986   -2.24123   -0.85390
 52 Cr    0.35610   -1.59688    0.36037
 53 Fe   -1.46268    0.84976    0.21983
 54 Cr    0.37690   -0.04323    0.84998
 55 Fe   -0.41112    0.57159   -0.19620
 56 Co   -1.61251    1.86437    0.09815
 57 Co    1.45999   -0.15879   -0.24850
 58 Co    0.36094   -1.27726   -0.16259
 59 Cr   -0.22267   -0.92154    0.26754
 60 Co   -0.36477   -1.01848   -2.09661
 61 Cr   -0.34303   -0.56977   -0.26183
 62 Co   -2.26975    0.25314   -1.09820
 63 Fe   -0.90425    0.38512    1.22762
 64 Co    1.14496    1.19143   -0.25778
 65 Fe   -0.32602    0.41687    1.02767
 66 Ni   -0.92488    1.43778    0.06018
 67 Cr    0.61960    0.42116   -0.59916
 68 Fe   -1.15072   -1.21220   -0.82401
 69 Cr    1.08001    0.41512    0.42377
 70 Cr    2.18268    0.08871   -0.42590
 71 Ni   -0.44218   -0.93240   -0.06831
 72 Ni   -1.17550    1.37051   -1.60236
 73 Co    2.82782    0.20378    1.01523
 74 Fe   -0.78542   -0.99641    0.27028
 75 Fe    0.56216    0.65972    0.01710
 76 Ni   -0.69612   -0.32696    0.01016
 77 Ni    0.20415   -1.52026    1.12533
 78 Fe   -0.48511    0.96935   -0.05481
 79 Co    0.38542    1.16198    0.33310
 80 Co   -2.02654   -0.03760   -0.89162
 81 Fe    0.73870   -1.42245    0.29358
 82 Ni    2.03321    0.87631   -0.50151
 83 Co   -0.27924   -0.59331    2.08183
 84 Fe   -0.81630   -0.38557    0.77523
 85 Ni   -1.07864    2.39997    1.27764
 86 Ni   -0.93653   -0.42503   -0.20163
 87 Co    0.17375   -0.79770    1.11726
 88 Fe    1.27979    0.04632    0.62589
 89 Fe   -0.84314    0.32217    0.81626
 90 Fe    1.96677    1.14724   -1.61532
 91 Co   -0.41411    1.54088    0.84947
 92 Ni   -0.66769   -0.11118    0.12334
 93 Fe    0.02102   -0.04203    1.54393
 94 Fe   -1.26703    0.04299    0.54341
 95 Co   -0.82472   -0.70493    1.38284
 96 Co    0.41228    0.46935   -1.69683
 97 Fe    0.68052   -1.08621    0.21066
 98 Co   -0.13625    0.32165    0.12126
 99 Fe    0.00095   -0.87837    1.09131
100 Co    0.07780    0.32457    2.03856
101 Co    0.30325    0.08164   -0.00658
102 Ni   -0.02074    0.24005   -0.21879
103 Fe   -0.07371    0.79262   -1.01752
104 Co    0.69873   -1.69260   -0.30264
105 Co   -0.49950   -1.11295   -0.33019
106 Ni    0.99837    0.16153    0.07651
107 Fe    0.06315   -1.00341   -1.19415
108 Ni   -0.33372    0.59074    0.46769
109 Cr   -0.33238   -0.29127   -0.60250
110 Co    0.29356   -0.77454    0.41680
111 Ni    0.11791    0.21741   -0.72629
112 Ni    0.03921    1.03545   -0.36552
113 Ni   -0.37931    0.00337   -0.79620
114 Cr   -0.42661    0.57456   -0.20388
115 Cr   -0.03717   -0.73957    0.59455
116 Ni   -0.31171   -1.36838    0.51166
117 Cr   -1.14012   -0.02884    0.33194
118 Co    1.20004    0.66192    0.01194
119 Cr    0.14181   -0.04905   -0.76993
120 Ni    0.52530    0.59454   -0.83616
121 Ni    0.93070    1.65234   -0.55310
122 Co    0.63477    0.69050   -0.85605
123 Cr   -0.35802   -0.40248   -0.60402
124 Cr   -1.00120    0.23100    0.12591

Timing:                              incl.     excl.
-----------------------------------------------------------
Forces:                             37.662    37.662   0.2% |
Hamiltonian:                         1.312     0.010   0.0% |
 Atomic:                             0.381     0.001   0.0% |
  XC Correction:                     0.379     0.379   0.0% |
 Calculate atomic Hamiltonians:      0.437     0.437   0.0% |
 Communicate:                        0.092     0.092   0.0% |
 Initialize Hamiltonian:             0.001     0.001   0.0% |
 Poisson:                            0.084     0.084   0.0% |
 XC 3D grid:                         0.307     0.307   0.0% |
LCAO initialization:               278.272     0.409   0.0% |
 LCAO eigensolver:                  14.103     0.013   0.0% |
  Calculate projections:             0.000     0.000   0.0% |
  DenseAtomicCorrection:             0.000     0.000   0.0% |
  Distribute overlap matrix:         8.632     8.632   0.0% |
  Orbital Layouts:                   5.336     5.336   0.0% |
  Potential matrix:                  0.004     0.004   0.0% |
  Sum over cells:                    0.118     0.118   0.0% |
 LCAO to grid:                     261.566   261.566   1.3% ||
 Set positions (LCAO WFS):           2.194     1.909   0.0% |
  Basic WFS set positions:           0.004     0.004   0.0% |
  Basis functions set positions:     0.001     0.001   0.0% |
  P tci:                             0.000     0.000   0.0% |
  ST tci:                            0.109     0.109   0.0% |
  mktci:                             0.171     0.171   0.0% |
PWDescriptor:                        0.085     0.085   0.0% |
SCF-cycle:                       19338.347     9.975   0.1% |
 Davidson:                       18944.133  5965.479  30.3% |-----------|
  Apply H:                         310.508   304.946   1.6% ||
   HMM T:                            5.563     5.563   0.0% |
  Subspace diag:                  2072.440     0.039   0.0% |
   calc_h_matrix:                  820.572   549.714   2.8% ||
    Apply H:                       270.858   265.467   1.4% ||
     HMM T:                          5.391     5.391   0.0% |
   diagonalize:                    191.614   191.614   1.0% |
   rotate_psi:                    1060.214  1060.214   5.4% |-|
  calc. matrices:                 4833.231  4324.915  22.0% |--------|
   Apply H:                        508.315   497.299   2.5% ||
    HMM T:                          11.016    11.016   0.1% |
  diagonalize:                    3514.524  3514.524  17.9% |------|
  rotate_psi:                     2247.951  2247.951  11.4% |----|
 Density:                          206.839     0.004   0.0% |
  Atomic density matrices:           3.025     3.025   0.0% |
  Mix:                              71.472    71.472   0.4% |
  Multipole moments:                 0.084     0.084   0.0% |
  Pseudo density:                  132.255   132.250   0.7% |
   Symmetrize density:               0.005     0.005   0.0% |
 Hamiltonian:                      158.405     1.204   0.0% |
  Atomic:                           48.173     0.155   0.0% |
   XC Correction:                   48.018    48.018   0.2% |
  Calculate atomic Hamiltonians:    55.236    55.236   0.3% |
  Communicate:                      11.945    11.945   0.1% |
  Poisson:                           4.251     4.251   0.0% |
  XC 3D grid:                       37.596    37.596   0.2% |
 Orthonormalize:                    18.995     0.001   0.0% |
  calc_s_matrix:                     2.460     2.460   0.0% |
  inverse-cholesky:                  0.813     0.813   0.0% |
  projections:                      11.504    11.504   0.1% |
  rotate_psi_s:                      4.217     4.217   0.0% |
Set symmetry:                        0.001     0.001   0.0% |
Other:                               6.223     6.223   0.0% |
-----------------------------------------------------------
Total:                                     19661.901 100.0%

Date: Mon Apr 17 10:05:18 2023
