
  ___ ___ ___ _ _ _  
 |   |   |_  | | | | 
 | | | | | . | | | | 
 |__ |  _|___|_____|  22.8.0
 |___|_|             

User:   c.zeng@d0136
Date:   Fri Apr  7 22:16:53 2023
Arch:   x86_64
Pid:    29690
CWD:    /home/c.zeng/projects/hea-corrosion/hea-mlp/data-curation/volume/dft-jobs/101
Python: 3.8.1
gpaw:   /home/c.zeng/usr/installs/gpaw/source/gpaw-22.8.0/gpaw
_gpaw:  /home/c.zeng/usr/installs/gpaw/source/gpaw-22.8.0/
        _gpaw.cpython-38-x86_64-linux-gnu.so
ase:    /home/c.zeng/.local/lib/python3.8/site-packages/ase-3.22.1-py3.8.egg/ase (version 3.22.1)
numpy:  /shared/centos7/python/3.8.1/lib/python3.8/site-packages/numpy (version 1.17.4)
scipy:  /shared/centos7/python/3.8.1/lib/python3.8/site-packages/scipy (version 1.4.1)
libxc:  4.2.3
units:  Angstrom and eV
cores: 64
OpenMP: False
OMP_NUM_THREADS: 1

Input parameters:
  convergence: {energy: 0.0001}
  kpts: [2 2 2]
  maxiter: 666
  mode: {ecut: 350.0,
         name: pw}
  occupations: {fixmagmom: False,
                name: fermi-dirac,
                width: 0.1}
  spinpol: True
  xc: PBE

System changes: positions, numbers, cell, pbc, initial_charges, initial_magmoms 

Initialize ...

species:
  Fe:
    name: Iron
    id: 37abbd8d6c3c35915a9b583b742da910
    Z: 26.0
    valence: 8
    core: 18
    charge: 0.0
    file: /home/c.zeng/usr/data/gpaw-setups-0.9.20000/Fe.PBE.gz
    compensation charges: {type: gauss,
                           rc: 0.33,
                           lmax: 2}
    cutoffs: {filter: 2.06,
              core: 2.67}
    valence states:
      #              energy  rcut
      - 4s(2.00)    -5.291   1.164
      - 4p(0.00)    -1.326   1.058
      - 3d(6.00)    -7.505   1.058
      -  s          21.920   1.164
      -  p          25.885   1.058
      -  d          19.706   1.058
  
    # Using partial waves for Fe as LCAO basis

  Cr:
    name: Chromium
    id: 33f258bda2ca9f93018e70263a35547b
    Z: 24.0
    valence: 6
    core: 18
    charge: 0.0
    file: /home/c.zeng/usr/data/gpaw-setups-0.9.20000/Cr.PBE.gz
    compensation charges: {type: gauss,
                           rc: 0.35,
                           lmax: 2}
    cutoffs: {filter: 2.14,
              core: 3.04}
    valence states:
      #              energy  rcut
      - 4s(1.00)    -4.007   1.164
      - 4p(0.00)    -0.989   1.217
      - 3d(5.00)    -2.913   1.111
      -  s          23.205   1.164
      -  p          26.223   1.217
      -  d          24.299   1.111
  
    # Using partial waves for Cr as LCAO basis

  Ni:
    name: Nickel
    id: 0d9f38a9d6e76a2886f07bb4381f212b
    Z: 28.0
    valence: 16
    core: 12
    charge: 0.0
    file: /home/c.zeng/usr/data/gpaw-setups-0.9.20000/Ni.PBE.gz
    compensation charges: {type: gauss,
                           rc: 0.36,
                           lmax: 2}
    cutoffs: {filter: 2.14,
              core: 1.98}
    valence states:
      #              energy  rcut
      - 4s(2.00)    -5.642   1.164
      - 3p(6.00)   -71.394   1.207
      - 4p(0.00)    -1.226   1.207
      - 3d(8.00)    -8.875   1.138
      -  s          21.570   1.164
      -  d          18.337   1.138
  
    # Using partial waves for Ni as LCAO basis

  Al:
    name: Aluminium
    id: 0292cae29f5d6237e50f6abdd43a7bdd
    Z: 13.0
    valence: 3
    core: 10
    charge: 0.0
    file: /home/c.zeng/usr/data/gpaw-setups-0.9.20000/Al.PBE.gz
    compensation charges: {type: gauss,
                           rc: 0.34,
                           lmax: 2}
    cutoffs: {filter: 1.91,
              core: 2.36}
    valence states:
      #              energy  rcut
      - 3s(2.00)    -7.753   1.085
      - 3p(1.00)    -2.712   1.085
      -  s          19.459   1.085
      -  p          24.499   1.085
      -  d           0.000   1.085
  
    # Using partial waves for Al as LCAO basis

  Co:
    name: Cobalt
    id: 339d20d5b0b93d2de9531a1bee871d91
    Z: 27.0
    valence: 9
    core: 18
    charge: 0.0
    file: /home/c.zeng/usr/data/gpaw-setups-0.9.20000/Co.PBE.gz
    compensation charges: {type: gauss,
                           rc: 0.32,
                           lmax: 2}
    cutoffs: {filter: 1.87,
              core: 2.55}
    valence states:
      #              energy  rcut
      - 4s(2.00)    -5.469   1.005
      - 4p(0.00)    -1.277   1.058
      - 3d(7.00)    -8.205   1.005
      -  s          21.742   1.005
      -  p          25.934   1.058
      -  d          19.007   1.005
  
    # Using partial waves for Co as LCAO basis

Reference energy: -3382523.201499  # eV

Spin-polarized calculation.
Magnetic moment: 128.800000

Convergence criteria:
 Maximum [total energy] change in last 3 cyles: 0.0001 eV / electron
 Maximum integral of absolute [dens]ity change: 0.0001 electrons / valence electron
 Maximum integral of absolute [eigenst]ate change: 4e-08 eV^2 / valence electron
 Maximum number of scf [iter]ations: 666
 (Square brackets indicate name in SCF output, whereas a 'c' in
 the SCF output indicates the quantity has converged.)

Symmetries present (total): 1

  ( 1  0  0)
  ( 0  1  0)
  ( 0  0  1)

8 k-points: 2 x 2 x 2 Monkhorst-Pack grid
4 k-points in the irreducible part of the Brillouin zone
       k-points in crystal coordinates                weights
   0:     0.25000000   -0.25000000   -0.25000000          2/8
   1:     0.25000000   -0.25000000    0.25000000          2/8
   2:     0.25000000    0.25000000   -0.25000000          2/8
   3:     0.25000000    0.25000000    0.25000000          2/8

Wave functions: Plane wave expansion
  Cutoff energy: 350.000 eV
  Number of coefficients (min, max): 18892, 18892
  Pulay-stress correction: 0.000000 eV/Ang^3 (de/decut=0.000000)
  Using FFTW library
  ScaLapack parameters: grid=1x1, blocksize=None
  Wavefunction extrapolation:
    Improved wavefunction reuse through dual PAW basis 

Occupation numbers: Fermi-Dirac:
  width: 0.1000  # eV
 

Eigensolver
   Davidson(niter=2) 

Densities:
  Coarse grid: 48*48*48 grid
  Fine grid: 96*96*96 grid
  Total Charge: 0.000000 

Density mixing:
  Method: difference
  Backend: pulay
  Linear mixing parameter: 0.05
  old densities: 5
  Damping of long wavelength oscillations: 50 

Hamiltonian:
  XC and Coulomb potentials evaluated on a 96*96*96 grid
  Using the PBE Exchange-Correlation functional
  External potential:
    NoExternalPotential
 

XC parameters: PBE with 2 nearest neighbor stencil

Memory estimate:
  Process memory now: 176.04 MiB
  Calculator: 640.50 MiB
    Density: 5.10 MiB
      Arrays: 1.85 MiB
      Localized functions: 2.52 MiB
      Mixer: 0.74 MiB
    Hamiltonian: 1.45 MiB
      Arrays: 1.37 MiB
      XC: 0.00 MiB
      Poisson: 0.00 MiB
      vbar: 0.08 MiB
    Wavefunctions: 633.95 MiB
      Arrays psit_nG: 374.17 MiB
      Eigensolver: 252.82 MiB
      Projections: 2.31 MiB
      Projectors: 0.34 MiB
      PW-descriptor: 4.30 MiB

Total number of cores used: 64
Parallelization over k-points: 4
Domain decomposition: 4 x 2 x 2

Number of atoms: 108
Number of atomic orbitals: 961
Number of bands in calculation: 649
Number of valence electrons: 945
Bands to converge: occupied

... initialized

Initializing position-dependent things.

Density initialized from atomic densities
Creating initial wave functions:
  649 bands from LCAO basis set

        .--------------------------.  
       /|                    Ni    |  
      / |            Cr        NiNi|  
     /  |       Al       Ni       Fe  
    /   |Cr      FFer     CAlo     |  
   /i   | CoCo       Co      Fe    |  
  /  FeCr   CFe       Cr           |  
 *      Co     CrNi   FeAlFeFe   Ni|  
 |      |CrFe   CrCoAl   FeCrCo   Co  
 |   Co | AlNi   FeAlAl     CrNi   Ni 
 |     Co  NiFe Fe  Ni NiNi  CrCr  |  
 |      Co     AlFe   NiAlCoFe   Fe|  
 |      |AlAl   CrFeCo   CrCoCo   Cr  
 |      .-CrAl-----FeNi-CoAlCoNi---.  
 |     /   Al Cr    Fe FeNi    Cr /   
 |    Cr       CNio     NiCo     /    
 |   /  Fe         Cr           /     
 |  /      Fe       Co       Cr/      
 | / Ni              Cr Ni    /       
 |/             Al       Co  /        
 *--------Al----------------*         

Positions:
   0 Fe    10.783105   10.857284   10.806449    ( 0.0000,  0.0000,  2.0000)
   1 Cr    10.798816    1.795843    1.810352    ( 0.0000,  0.0000,  0.0000)
   2 Ni     1.747954    0.030238    1.855362    ( 0.0000,  0.0000,  1.5000)
   3 Cr     1.744955    1.836944   10.801154    ( 0.0000,  0.0000,  0.0000)
   4 Al     3.569729    0.043991    0.060474    ( 0.0000,  0.0000,  0.0000)
   5 Fe     3.595108    1.816210    1.844242    ( 0.0000,  0.0000,  2.0000)
   6 Ni     5.430190   10.821943    1.863991    ( 0.0000,  0.0000,  1.5000)
   7 Al     5.424430    1.929010    0.049320    ( 0.0000,  0.0000,  0.0000)
   8 Al     7.313162   10.718173    0.079259    ( 0.0000,  0.0000,  0.0000)
   9 Co     7.265294    1.823832    1.854744    ( 0.0000,  0.0000,  2.1000)
  10 Ni     9.071261    0.018867    1.856152    ( 0.0000,  0.0000,  1.5000)
  11 Co     9.062328    1.826951    0.033475    ( 0.0000,  0.0000,  2.1000)
  12 Ni     0.012826    3.571418   10.807434    ( 0.0000,  0.0000,  1.5000)
  13 Cr    10.776955    5.403901    1.782883    ( 0.0000,  0.0000,  0.0000)
  14 Fe     1.751808    3.571624    1.756497    ( 0.0000,  0.0000,  2.0000)
  15 Cr     1.792487    5.409791   10.799086    ( 0.0000,  0.0000,  0.0000)
  16 Co     3.569231    3.633437   10.826794    ( 0.0000,  0.0000,  2.1000)
  17 Cr     3.638320    5.402656    1.724599    ( 0.0000,  0.0000,  0.0000)
  18 Co     5.460962    3.660040    1.824785    ( 0.0000,  0.0000,  2.1000)
  19 Fe     5.425394    5.395521   -0.008898    ( 0.0000,  0.0000,  2.0000)
  20 Cr     7.249897    3.621311    0.033270    ( 0.0000,  0.0000,  0.0000)
  21 Fe     7.251900    5.385646    1.785839    ( 0.0000,  0.0000,  2.0000)
  22 Co     9.032250    3.584725    1.830264    ( 0.0000,  0.0000,  2.1000)
  23 Al     9.043824    5.390399   10.824487    ( 0.0000,  0.0000,  0.0000)
  24 Ni    10.795448    7.202830   10.809362    ( 0.0000,  0.0000,  1.5000)
  25 Cr    10.772927    9.038519    1.848291    ( 0.0000,  0.0000,  0.0000)
  26 Cr     1.721730    7.204747    1.787290    ( 0.0000,  0.0000,  0.0000)
  27 Al     1.664453    8.976055    0.024052    ( 0.0000,  0.0000,  0.0000)
  28 Cr     3.633405    7.175697    0.024693    ( 0.0000,  0.0000,  0.0000)
  29 Cr     3.630113    9.066540    1.811457    ( 0.0000,  0.0000,  0.0000)
  30 Fe     5.475351    7.195100    1.750801    ( 0.0000,  0.0000,  2.0000)
  31 Fe     5.414198    8.989514    0.005198    ( 0.0000,  0.0000,  2.0000)
  32 Ni     7.221020    7.249128    0.001099    ( 0.0000,  0.0000,  1.5000)
  33 Cr     7.235031    9.006480    1.814889    ( 0.0000,  0.0000,  0.0000)
  34 Co     9.048036    7.216191    1.779321    ( 0.0000,  0.0000,  2.1000)
  35 Ni     9.093110    8.990218   10.814342    ( 0.0000,  0.0000,  1.5000)
  36 Ni    -0.004662   10.826534    3.639771    ( 0.0000,  0.0000,  1.5000)
  37 Co    10.823383    1.773431    5.424841    ( 0.0000,  0.0000,  2.1000)
  38 Co     1.748170   10.807120    5.427884    ( 0.0000,  0.0000,  2.1000)
  39 Cr     1.736823    1.779851    3.614110    ( 0.0000,  0.0000,  0.0000)
  40 Fe     3.596570   10.810574    3.618517    ( 0.0000,  0.0000,  2.0000)
  41 Al     3.589283    1.739909    5.467826    ( 0.0000,  0.0000,  0.0000)
  42 Fe     5.444785   10.814212    5.408676    ( 0.0000,  0.0000,  2.0000)
  43 Ni     5.462683    1.780274    3.602103    ( 0.0000,  0.0000,  1.5000)
  44 Cr     7.234230    0.010807    3.627569    ( 0.0000,  0.0000,  0.0000)
  45 Co     7.251261    1.765061    5.393821    ( 0.0000,  0.0000,  2.1000)
  46 Co     9.042146   10.849163    5.406164    ( 0.0000,  0.0000,  2.1000)
  47 Ni     9.037631    1.806281    3.611425    ( 0.0000,  0.0000,  1.5000)
  48 Ni    10.777854    3.554895    3.614489    ( 0.0000,  0.0000,  1.5000)
  49 Cr    10.778060    5.368680    5.448878    ( 0.0000,  0.0000,  0.0000)
  50 Co     1.753227    3.580903    5.441927    ( 0.0000,  0.0000,  2.1000)
  51 Al     1.639929    5.383188    3.575002    ( 0.0000,  0.0000,  0.0000)
  52 Al     3.645867    3.617997    3.551030    ( 0.0000,  0.0000,  0.0000)
  53 Fe     3.565842    5.384044    5.424766    ( 0.0000,  0.0000,  2.0000)
  54 Fe     5.415292    3.595671    5.389414    ( 0.0000,  0.0000,  2.0000)
  55 Fe     5.456133    5.424278    3.583631    ( 0.0000,  0.0000,  2.0000)
  56 Ni     7.247569    3.607960    3.618420    ( 0.0000,  0.0000,  1.5000)
  57 Ni     7.244917    5.405764    5.360602    ( 0.0000,  0.0000,  1.5000)
  58 Co     9.061354    3.571212    5.378305    ( 0.0000,  0.0000,  2.1000)
  59 Co     9.068251    5.377937    3.580556    ( 0.0000,  0.0000,  2.1000)
  60 Fe    10.760963    7.266409    3.611761    ( 0.0000,  0.0000,  2.0000)
  61 Co    10.783408    9.088400    5.425069    ( 0.0000,  0.0000,  2.1000)
  62 Al     1.701721    7.278969    5.501207    ( 0.0000,  0.0000,  0.0000)
  63 Ni     1.745561    9.060477    3.599558    ( 0.0000,  0.0000,  1.5000)
  64 Al     3.602752    7.273057    3.489725    ( 0.0000,  0.0000,  0.0000)
  65 Cr     3.593744    9.106666    5.438267    ( 0.0000,  0.0000,  0.0000)
  66 Al     5.387303    7.228524    5.453664    ( 0.0000,  0.0000,  0.0000)
  67 Ni     5.436243    9.061613    3.601984    ( 0.0000,  0.0000,  1.5000)
  68 Al     7.304305    7.212824    3.544436    ( 0.0000,  0.0000,  0.0000)
  69 Fe     7.279380    9.081059    5.415313    ( 0.0000,  0.0000,  2.0000)
  70 Cr     9.092331    7.239914    5.421106    ( 0.0000,  0.0000,  0.0000)
  71 Cr     9.072701    9.058863    3.634498    ( 0.0000,  0.0000,  0.0000)
  72 Fe    10.815468   10.834654    7.208515    ( 0.0000,  0.0000,  2.0000)
  73 Co    10.815858    1.800727    9.004596    ( 0.0000,  0.0000,  2.1000)
  74 Co     1.746969    0.017340    8.995837    ( 0.0000,  0.0000,  2.1000)
  75 Co     1.758532    1.794208    7.243931    ( 0.0000,  0.0000,  2.1000)
  76 Fe     3.585992   -0.000337    7.223208    ( 0.0000,  0.0000,  2.0000)
  77 Fe     3.546287    1.850760    8.999118    ( 0.0000,  0.0000,  2.0000)
  78 Cr     5.408178   10.816226    8.971421    ( 0.0000,  0.0000,  0.0000)
  79 Fe     5.427083    1.785731    7.205624    ( 0.0000,  0.0000,  2.0000)
  80 Co     7.252723   10.804143    7.171171    ( 0.0000,  0.0000,  2.1000)
  81 Al     7.332424    1.767248    8.964838    ( 0.0000,  0.0000,  0.0000)
  82 Ni     9.100246   10.803894    8.998815    ( 0.0000,  0.0000,  1.5000)
  83 Ni     9.089342    1.780523    7.174744    ( 0.0000,  0.0000,  1.5000)
  84 Ni    10.825527    3.574991    7.218292    ( 0.0000,  0.0000,  1.5000)
  85 Fe     0.036453    5.400231    9.015879    ( 0.0000,  0.0000,  2.0000)
  86 Co     1.772391    3.617055    9.020816    ( 0.0000,  0.0000,  2.1000)
  87 Cr     1.802491    5.356326    7.259111    ( 0.0000,  0.0000,  0.0000)
  88 Ni     3.597371    3.620650    7.245339    ( 0.0000,  0.0000,  1.5000)
  89 Fe     3.565604    5.411156    9.045405    ( 0.0000,  0.0000,  2.0000)
  90 Ni     5.379063    3.656619    9.000363    ( 0.0000,  0.0000,  1.5000)
  91 Co     5.369936    5.397578    7.229109    ( 0.0000,  0.0000,  2.1000)
  92 Al     7.238821    3.651887    7.115659    ( 0.0000,  0.0000,  0.0000)
  93 Cr     7.212445    5.402808    9.062859    ( 0.0000,  0.0000,  0.0000)
  94 Fe     9.105118    3.613482    9.005322    ( 0.0000,  0.0000,  2.0000)
  95 Cr     9.087881    5.413657    7.230819    ( 0.0000,  0.0000,  0.0000)
  96 Ni    10.770762    7.247688    7.259512    ( 0.0000,  0.0000,  1.5000)
  97 Fe    10.805215    9.030994    8.978578    ( 0.0000,  0.0000,  2.0000)
  98 Co     1.745907    7.184456    8.985508    ( 0.0000,  0.0000,  2.1000)
  99 Ni     1.736585    9.079522    7.234111    ( 0.0000,  0.0000,  1.5000)
 100 Cr     3.591579    7.164761    7.245978    ( 0.0000,  0.0000,  0.0000)
 101 Al     3.613352    8.977701    8.951705    ( 0.0000,  0.0000,  0.0000)
 102 Cr     5.413732    7.170013    9.063562    ( 0.0000,  0.0000,  0.0000)
 103 Co     5.468552    9.069236    7.216289    ( 0.0000,  0.0000,  2.1000)
 104 Al     7.313476    7.268282    7.291366    ( 0.0000,  0.0000,  0.0000)
 105 Ni     7.263962    9.040143    9.029813    ( 0.0000,  0.0000,  1.5000)
 106 Co     9.086917    7.224734    9.050840    ( 0.0000,  0.0000,  2.1000)
 107 Fe     9.067796    9.079446    7.215087    ( 0.0000,  0.0000,  2.0000)

Unit cell:
           periodic     x           y           z      points  spacing
  1. axis:    yes   10.827400    0.000000    0.000000    48     0.2256
  2. axis:    yes    0.000000   10.827400    0.000000    48     0.2256
  3. axis:    yes    0.000000    0.000000   10.827400    48     0.2256

  Lengths:  10.827400  10.827400  10.827400
  Angles:   90.000000  90.000000  90.000000

Effective grid spacing dv^(1/3) = 0.2256

     iter     time        total  log10-change:  magmom
                         energy  eigst   dens
iter:   1 22:19:14  -997.170252                  +129.0862
iter:   2 22:20:27  -888.602643  -0.19  -1.18    +70.9295
iter:   3 22:21:42  -875.993409  -0.82  -1.19    +61.3651
iter:   4 22:22:57  -851.827712  -1.22  -1.26    +57.1808
iter:   5 22:24:10  -843.529562  -1.55  -1.30    +55.0313
iter:   6 22:25:24  -844.512249  -1.33  -1.35    +55.7214
iter:   7 22:26:38  -834.986731  -1.30  -1.39    +54.4260
iter:   8 22:27:52  -827.853553  -1.64  -1.53    +54.2868
iter:   9 22:29:06  -827.393114  -1.86  -1.66    +55.8874
iter:  10 22:30:18  -824.954525  -2.41  -1.72    +56.7305
iter:  11 22:31:33  -825.443595  -2.49  -1.80    +59.3117
iter:  12 22:32:47  -827.201313  -2.39  -1.86    +60.6429
iter:  13 22:34:01  -826.381249  -2.43  -1.85    +61.3113
iter:  14 22:35:14  -826.893775  -2.47  -1.93    +62.5731
iter:  15 22:36:29  -826.688523  -2.59  -1.95    +63.1140
iter:  16 22:37:42  -826.080256  -2.88  -2.00    +63.2572
iter:  17 22:38:56  -826.608490  -2.96  -2.09    +64.2364
iter:  18 22:40:11  -826.175716  -3.09  -2.07    +64.2701
iter:  19 22:41:24  -826.345604  -3.03  -2.19    +64.6266
iter:  20 22:42:39  -826.500988  -2.95  -2.21    +64.7877
iter:  21 22:43:51  -826.195057  -3.17  -2.24    +64.9369
iter:  22 22:45:05  -826.283065  -3.35  -2.36    +65.1365
iter:  23 22:46:17  -826.195142c -3.49  -2.36    +65.1773
iter:  24 22:47:26  -826.248016c -3.57  -2.47    +65.3639
iter:  25 22:48:33  -826.282231c -3.63  -2.48    +65.3249
iter:  26 22:49:45  -826.283480c -3.82  -2.53    +65.5164
iter:  27 22:50:56  -826.309601c -3.97  -2.55    +65.5392
iter:  28 22:52:06  -826.367317c -3.86  -2.59    +65.4607
iter:  29 22:53:16  -826.374126c -4.14  -2.61    +65.5353
iter:  30 22:54:29  -826.400598c -4.06  -2.65    +65.5710
iter:  31 22:55:40  -826.429758c -4.06  -2.68    +65.5497
iter:  32 22:56:55  -826.447912c -4.19  -2.72    +65.7327
iter:  33 22:58:07  -826.454671c -4.23  -2.74    +65.7233
iter:  34 22:59:21  -826.475627c -4.39  -2.80    +65.5880
iter:  35 23:00:34  -826.494028c -4.47  -2.83    +65.6302
iter:  36 23:01:46  -826.509990c -4.47  -2.86    +65.6184
iter:  37 23:03:01  -826.537297c -4.37  -2.90    +65.5769
iter:  38 23:04:14  -826.556423c -4.31  -2.94    +65.6254
iter:  39 23:05:26  -826.557965c -4.51  -2.93    +65.5788
iter:  40 23:06:41  -826.566128c -4.54  -3.00    +65.4736
iter:  41 23:07:53  -826.576299c -4.79  -3.07    +65.4718
iter:  42 23:09:03  -826.586819c -4.76  -3.10    +65.4580
iter:  43 23:10:14  -826.607370c -4.52  -3.13    +65.4202
iter:  44 23:11:24  -826.626243c -4.31  -3.15    +65.3783
iter:  45 23:12:36  -826.633478c -4.58  -3.18    +65.3684
iter:  46 23:13:50  -826.639205c -4.86  -3.19    +65.3355
iter:  47 23:15:02  -826.653422c -4.54  -3.17    +65.2861
iter:  48 23:16:12  -826.644306c -5.23  -3.11    +65.3218
iter:  49 23:17:20  -826.649122c -5.39  -3.16    +65.3191
iter:  50 23:18:33  -826.650763c -5.66  -3.15    +65.3376
iter:  51 23:19:47  -826.651618c -5.35  -3.14    +65.3480
iter:  52 23:21:00  -826.652250c -4.93  -3.16    +65.3326
iter:  53 23:22:15  -826.650422c -5.24  -3.17    +65.3270
iter:  54 23:23:29  -826.652057c -4.83  -3.26    +65.3104
iter:  55 23:24:42  -826.648460c -5.08  -3.21    +65.2792
iter:  56 23:25:56  -826.649630c -5.28  -3.33    +65.2441
iter:  57 23:27:11  -826.649371c -5.29  -3.38    +65.1966
iter:  58 23:28:25  -826.650748c -5.46  -3.43    +65.1839
iter:  59 23:29:38  -826.651429c -5.38  -3.46    +65.1577
iter:  60 23:30:51  -826.651633c -5.66  -3.48    +65.1491
iter:  61 23:32:05  -826.652533c -5.63  -3.53    +65.1331
iter:  62 23:33:18  -826.653529c -5.61  -3.63    +65.1213
iter:  63 23:34:33  -826.653470c -5.92  -3.66    +65.1038
iter:  64 23:35:47  -826.654640c -5.83  -3.78    +65.0786
iter:  65 23:37:01  -826.654617c -6.25  -3.76    +65.0609
iter:  66 23:38:13  -826.655380c -6.04  -3.86    +65.0333
iter:  67 23:39:27  -826.656558c -5.87  -3.88    +64.9753
iter:  68 23:40:41  -826.658610c -5.47  -3.90    +64.8986
iter:  69 23:41:54  -826.664898c -4.45  -3.86    +64.6468
iter:  70 23:43:09  -826.665116c -5.62  -3.60    +64.6856
iter:  71 23:44:24  -826.665483c -5.78  -3.59    +64.6619
iter:  72 23:45:37  -826.666090c -6.12  -3.59    +64.6599
iter:  73 23:46:51  -826.666340c -6.44  -3.57    +64.6631
iter:  74 23:48:05  -826.666884c -5.26  -3.57    +64.6608
iter:  75 23:49:18  -826.666700c -5.58  -3.46    +64.6625
iter:  76 23:50:32  -826.666419c -5.32  -3.47    +64.6348
iter:  77 23:51:46  -826.664358c -5.33  -3.49    +64.6358
iter:  78 23:52:58  -826.663707c -6.04  -3.47    +64.6373
iter:  79 23:54:11  -826.664148c -5.84  -3.64    +64.6582
iter:  80 23:55:26  -826.664298c -5.60  -3.56    +64.6419
iter:  81 23:56:38  -826.663447c -5.70  -3.55    +64.6217
iter:  82 23:57:47  -826.664309c -5.74  -3.64    +64.6419
iter:  83 23:58:59  -826.669054c -5.16  -3.65    +64.6416
iter:  84 00:00:13  -826.662831c -5.47  -3.46    +64.6410
iter:  85 00:01:26  -826.663324c -5.89  -3.76    +64.6337
iter:  86 00:02:39  -826.663168c -6.08  -3.77    +64.6449
iter:  87 00:03:54  -826.663043c -6.33  -3.88    +64.6676
iter:  88 00:05:05  -826.662684c -6.44  -3.99    +64.6646
iter:  89 00:06:15  -826.662712c -6.84  -4.00c   +64.6691
iter:  90 00:07:24  -826.663862c -6.19  -4.16c   +64.6770
iter:  91 00:08:36  -826.662886c -6.47  -3.90    +64.6798
iter:  92 00:09:48  -826.662864c -6.78  -4.17c   +64.6834
iter:  93 00:10:57  -826.662968c -6.78  -4.35c   +64.6952
iter:  94 00:12:11  -826.663038c -7.01  -4.24c   +64.7053
iter:  95 00:13:23  -826.662961c -7.35  -4.42c   +64.7141
iter:  96 00:14:34  -826.662828c -7.44c -4.49c   +64.7191

Converged after 96 iterations.

Dipole moment: (25.069481, 1.577733, -7.003750) |e|*Ang

Total magnetic moment: (0.000000, 0.000000, 64.719125)
Local magnetic moments:
   0 Fe ( 0.000000,  0.000000,  2.196579)
   1 Cr ( 0.000000,  0.000000,  1.462283)
   2 Ni ( 0.000000,  0.000000, -0.002552)
   3 Cr ( 0.000000,  0.000000, -1.909210)
   4 Al ( 0.000000,  0.000000, -0.012880)
   5 Fe ( 0.000000,  0.000000,  2.206659)
   6 Ni ( 0.000000,  0.000000,  0.175726)
   7 Al ( 0.000000,  0.000000, -0.017659)
   8 Al ( 0.000000,  0.000000, -0.014334)
   9 Co ( 0.000000,  0.000000,  1.433468)
  10 Ni ( 0.000000,  0.000000,  0.199256)
  11 Co ( 0.000000,  0.000000,  1.135971)
  12 Ni ( 0.000000,  0.000000,  0.251990)
  13 Cr ( 0.000000,  0.000000,  1.218773)
  14 Fe ( 0.000000,  0.000000,  1.521014)
  15 Cr ( 0.000000,  0.000000, -1.561756)
  16 Co ( 0.000000,  0.000000,  0.736789)
  17 Cr ( 0.000000,  0.000000,  0.289903)
  18 Co ( 0.000000,  0.000000,  1.066793)
  19 Fe ( 0.000000,  0.000000,  1.801214)
  20 Cr ( 0.000000,  0.000000, -1.998386)
  21 Fe ( 0.000000,  0.000000,  2.342119)
  22 Co ( 0.000000,  0.000000,  1.063417)
  23 Al ( 0.000000,  0.000000, -0.028364)
  24 Ni ( 0.000000,  0.000000,  0.210781)
  25 Cr ( 0.000000,  0.000000,  0.000610)
  26 Cr ( 0.000000,  0.000000,  0.113007)
  27 Al ( 0.000000,  0.000000, -0.017014)
  28 Cr ( 0.000000,  0.000000, -0.714712)
  29 Cr ( 0.000000,  0.000000, -1.866727)
  30 Fe ( 0.000000,  0.000000,  1.708320)
  31 Fe ( 0.000000,  0.000000,  1.559836)
  32 Ni ( 0.000000,  0.000000,  0.261168)
  33 Cr ( 0.000000,  0.000000,  1.570342)
  34 Co ( 0.000000,  0.000000,  0.912954)
  35 Ni ( 0.000000,  0.000000,  0.344397)
  36 Ni ( 0.000000,  0.000000,  0.174138)
  37 Co ( 0.000000,  0.000000,  1.571420)
  38 Co ( 0.000000,  0.000000,  1.260894)
  39 Cr ( 0.000000,  0.000000, -1.912509)
  40 Fe ( 0.000000,  0.000000,  2.189833)
  41 Al ( 0.000000,  0.000000, -0.039136)
  42 Fe ( 0.000000,  0.000000,  2.253838)
  43 Ni ( 0.000000,  0.000000,  0.392957)
  44 Cr ( 0.000000,  0.000000, -1.713572)
  45 Co ( 0.000000,  0.000000,  1.506981)
  46 Co ( 0.000000,  0.000000,  1.310359)
  47 Ni ( 0.000000,  0.000000,  0.422853)
  48 Ni ( 0.000000,  0.000000,  0.294196)
  49 Cr ( 0.000000,  0.000000,  1.545475)
  50 Co ( 0.000000,  0.000000,  0.991326)
  51 Al ( 0.000000,  0.000000, -0.028825)
  52 Al ( 0.000000,  0.000000, -0.039220)
  53 Fe ( 0.000000,  0.000000,  2.080131)
  54 Fe ( 0.000000,  0.000000,  2.388305)
  55 Fe ( 0.000000,  0.000000,  2.208565)
  56 Ni ( 0.000000,  0.000000,  0.552683)
  57 Ni ( 0.000000,  0.000000,  0.183643)
  58 Co ( 0.000000,  0.000000,  1.226597)
  59 Co ( 0.000000,  0.000000,  0.882634)
  60 Fe ( 0.000000,  0.000000,  1.382316)
  61 Co ( 0.000000,  0.000000,  1.234557)
  62 Al ( 0.000000,  0.000000, -0.014424)
  63 Ni ( 0.000000,  0.000000,  0.002921)
  64 Al ( 0.000000,  0.000000, -0.012697)
  65 Cr ( 0.000000,  0.000000, -1.918500)
  66 Al ( 0.000000,  0.000000, -0.023080)
  67 Ni ( 0.000000,  0.000000,  0.061375)
  68 Al ( 0.000000,  0.000000, -0.034364)
  69 Fe ( 0.000000,  0.000000,  2.032485)
  70 Cr ( 0.000000,  0.000000, -0.789242)
  71 Cr ( 0.000000,  0.000000, -0.979447)
  72 Fe ( 0.000000,  0.000000,  2.461894)
  73 Co ( 0.000000,  0.000000,  1.516903)
  74 Co ( 0.000000,  0.000000,  1.087821)
  75 Co ( 0.000000,  0.000000,  1.584150)
  76 Fe ( 0.000000,  0.000000,  2.279973)
  77 Fe ( 0.000000,  0.000000,  2.364792)
  78 Cr ( 0.000000,  0.000000, -1.978240)
  79 Fe ( 0.000000,  0.000000,  2.290565)
  80 Co ( 0.000000,  0.000000,  1.315610)
  81 Al ( 0.000000,  0.000000, -0.018067)
  82 Ni ( 0.000000,  0.000000,  0.408545)
  83 Ni ( 0.000000,  0.000000,  0.511352)
  84 Ni ( 0.000000,  0.000000,  0.368766)
  85 Fe ( 0.000000,  0.000000,  2.202020)
  86 Co ( 0.000000,  0.000000,  1.219264)
  87 Cr ( 0.000000,  0.000000, -1.786685)
  88 Ni ( 0.000000,  0.000000,  0.439519)
  89 Fe ( 0.000000,  0.000000,  2.087308)
  90 Ni ( 0.000000,  0.000000,  0.182076)
  91 Co ( 0.000000,  0.000000,  0.833003)
  92 Al ( 0.000000,  0.000000, -0.042079)
  93 Cr ( 0.000000,  0.000000,  1.708837)
  94 Fe ( 0.000000,  0.000000,  2.142016)
  95 Cr ( 0.000000,  0.000000, -1.492050)
  96 Ni ( 0.000000,  0.000000,  0.225359)
  97 Fe ( 0.000000,  0.000000,  2.430064)
  98 Co ( 0.000000,  0.000000,  0.497928)
  99 Ni ( 0.000000,  0.000000,  0.382356)
 100 Cr ( 0.000000,  0.000000,  1.506275)
 101 Al ( 0.000000,  0.000000, -0.009663)
 102 Cr ( 0.000000,  0.000000, -1.469215)
 103 Co ( 0.000000,  0.000000,  0.758468)
 104 Al ( 0.000000,  0.000000, -0.020142)
 105 Ni ( 0.000000,  0.000000,  0.275997)
 106 Co ( 0.000000,  0.000000,  1.112423)
 107 Fe ( 0.000000,  0.000000,  2.206823)

Energy contributions relative to reference atoms: (reference = -3382523.201499)

Kinetic:       +208.572547
Potential:     -220.750248
External:        +0.000000
XC:            -845.672797
Entropy (-ST):   -4.184013
Local:          +33.279676
--------------------------
Free energy:   -828.754834
Extrapolated:  -826.662828

Spin contamination: 27.405702 electrons
Showing only first 2 kpts
                      Up                     Down
 Kpt  Band  Eigenvalues  Occupancy  Eigenvalues  Occupancy
  0   470      9.09625    0.99657     10.05190    0.02015
  0   471      9.09911    0.99647     10.07239    0.01648
  0   472      9.11259    0.99597     10.08374    0.01474
  0   473      9.12666    0.99536     10.09215    0.01356

  1   470      9.09399    0.99665     10.06195    0.01826
  1   471      9.11101    0.99603     10.06756    0.01728
  1   472      9.12887    0.99526     10.07464    0.01612
  1   473      9.14655    0.99434     10.09712    0.01291


Fermi level: 9.66348

No gap

Forces in eV/Ang:
  0 Fe   -0.07255    0.13032   -0.12868
  1 Cr    0.04763    0.19099    0.04465
  2 Ni    0.10338   -0.30987   -0.40307
  3 Cr   -0.19688    0.37458    0.21284
  4 Al    0.13927   -0.08564   -0.20626
  5 Fe   -0.26436    0.33766   -0.02109
  6 Ni    0.01045    0.43610   -0.43019
  7 Al   -0.44072   -0.19386    0.11753
  8 Al    0.31090    0.68106   -0.38063
  9 Co    0.11157    0.25191   -0.12075
 10 Ni   -0.13627   -0.08063   -0.24078
 11 Co   -0.20033    0.03480   -0.00167
 12 Ni   -0.11120    0.11186    0.03492
 13 Cr    0.00762   -0.10250    0.20097
 14 Fe    0.46397    0.08354   -0.00283
 15 Cr   -0.26223   -0.33323   -0.19557
 16 Co   -0.16881    0.24204    0.12775
 17 Cr   -0.26776    0.15373   -0.69621
 18 Co    0.05501   -0.29536    0.15090
 19 Fe   -0.33771   -0.11526    0.38020
 20 Cr    0.37310    0.42298    0.05802
 21 Fe    0.04666   -0.16660   -0.00718
 22 Co   -0.08838   -0.14671   -0.11776
 23 Al    0.22692    0.61920   -0.10481
 24 Ni    0.07645   -0.04269    0.06660
 25 Cr   -0.47850   -0.36999    0.34754
 26 Cr   -0.18724    0.09877    0.10917
 27 Al    0.13942    0.28641   -0.52162
 28 Cr   -0.10039   -0.17010    0.39903
 29 Cr    0.17752   -0.01121    0.20168
 30 Fe   -0.33624    0.17744   -0.02028
 31 Fe   -0.28762    0.03916   -0.05599
 32 Ni    0.17242    0.04505   -0.18078
 33 Cr    0.16119   -0.21213    0.30816
 34 Co    0.31879    0.28175    0.08044
 35 Ni   -0.10465    0.03466    0.32029
 36 Ni   -0.09940    0.03835   -0.05117
 37 Co    0.21091    0.37943   -0.09084
 38 Co    0.14862   -0.09829   -0.04722
 39 Cr   -0.40225    0.15899   -0.43306
 40 Fe   -0.04323   -0.24473   -0.31260
 41 Al   -0.12991    0.44412    0.06644
 42 Fe    0.16233   -0.14112   -0.00467
 43 Ni   -0.22669    0.30613   -0.01874
 44 Cr   -0.07748    0.06198    0.03773
 45 Co   -0.22547    0.03654    0.15021
 46 Co   -0.15971   -0.05389   -0.26397
 47 Ni   -0.14625   -0.14222    0.07432
 48 Ni    0.33547    0.17258    0.02065
 49 Cr   -0.71610   -0.34714    0.33518
 50 Co    0.26768   -0.13897   -0.21323
 51 Al    0.51738   -0.53218    0.31694
 52 Al   -0.00312   -0.06262    0.30080
 53 Fe   -0.03423   -0.00964   -0.49232
 54 Fe    0.12381    0.19760    0.01975
 55 Fe   -0.22461   -0.19274   -0.15683
 56 Ni    0.05672   -0.17176   -0.09597
 57 Ni    0.04730    0.41702    0.16978
 58 Co    0.05611    0.18497    0.05307
 59 Co    0.03610   -0.04226    0.18405
 60 Fe   -0.16724   -0.08693   -0.16945
 61 Co   -0.29596   -0.01952   -0.13993
 62 Al   -0.34573    0.43869   -0.20704
 63 Ni    0.25340   -0.30904    0.10704
 64 Al    0.31620   -0.25718    0.66395
 65 Cr   -0.04256    0.66934    0.42121
 66 Al    0.44937   -0.18801   -0.05591
 67 Ni   -0.05752   -0.59334    0.17589
 68 Al   -0.18500   -0.34921    0.40911
 69 Fe    0.07495    0.04503    0.07755
 70 Cr    0.47663   -0.12152    0.07441
 71 Cr    0.68398    0.15653   -0.27114
 72 Fe    0.29334    0.41256   -0.06328
 73 Co    0.11102   -0.00388    0.17865
 74 Co    0.22904   -0.11134    0.29254
 75 Co   -0.05121    0.18202    0.01024
 76 Fe   -0.22678   -0.43412    0.16880
 77 Fe   -0.00675   -0.12158    0.03854
 78 Cr    0.29275   -0.16803   -0.21849
 79 Fe    0.13369   -0.02150    0.06883
 80 Co   -0.06702   -0.06217    0.02942
 81 Al    0.31424   -0.07017    0.00390
 82 Ni   -0.30864    0.32729    0.19936
 83 Ni   -0.50344    0.19472    0.18137
 84 Ni    0.05767   -0.08687   -0.12701
 85 Fe    0.01318    0.17595   -0.38416
 86 Co    0.00408   -0.22533    0.03545
 87 Cr   -0.29045   -0.02648    0.18163
 88 Ni    0.01809   -0.07794   -0.15004
 89 Fe    0.09037   -0.47449    0.27466
 90 Ni    0.28600   -0.37951    0.01887
 91 Co   -0.10719   -0.03795   -0.22367
 92 Al   -0.12600   -0.09705   -0.02184
 93 Cr   -0.16406    0.06708   -0.33166
 94 Fe    0.06715   -0.51938   -0.14934
 95 Cr    0.62865    0.00626    0.01392
 96 Ni    0.16768   -0.19204   -0.05752
 97 Fe    0.10143   -0.22118    0.05266
 98 Co    0.23380    0.04812    0.28459
 99 Ni    0.40492   -0.25324    0.03493
100 Cr   -0.00764    0.03033   -0.01950
101 Al   -0.62911    0.13657   -0.00381
102 Cr    0.35518    0.14820    0.08259
103 Co    0.08217    0.02017    0.08237
104 Al   -0.47347    0.00098   -0.13924
105 Ni   -0.12028   -0.02349   -0.05247
106 Co   -0.28313    0.00646   -0.07595
107 Fe   -0.06148   -0.16568   -0.17222

Timing:                              incl.     excl.
-----------------------------------------------------------
Forces:                             15.500    15.500   0.2% |
Hamiltonian:                         0.807     0.006   0.0% |
 Atomic:                             0.170     0.088   0.0% |
  XC Correction:                     0.082     0.082   0.0% |
 Calculate atomic Hamiltonians:      0.482     0.482   0.0% |
 Communicate:                        0.008     0.008   0.0% |
 Initialize Hamiltonian:             0.001     0.001   0.0% |
 Poisson:                            0.001     0.001   0.0% |
 XC 3D grid:                         0.141     0.141   0.0% |
LCAO initialization:                61.276     0.975   0.0% |
 LCAO eigensolver:                   6.437     0.016   0.0% |
  Calculate projections:             0.207     0.207   0.0% |
  DenseAtomicCorrection:             0.137     0.137   0.0% |
  Distribute overlap matrix:         0.878     0.878   0.0% |
  Orbital Layouts:                   2.620     2.620   0.0% |
  Potential matrix:                  1.695     1.695   0.0% |
  Sum over cells:                    0.884     0.884   0.0% |
 LCAO to grid:                      52.283    52.283   0.7% |
 Set positions (LCAO WFS):           1.582     0.819   0.0% |
  Basic WFS set positions:           0.004     0.004   0.0% |
  Basis functions set positions:     0.001     0.001   0.0% |
  P tci:                             0.218     0.218   0.0% |
  ST tci:                            0.182     0.182   0.0% |
  mktci:                             0.359     0.359   0.0% |
PWDescriptor:                        0.180     0.180   0.0% |
SCF-cycle:                        6996.457    92.068   1.3% ||
 Davidson:                        6740.278  1389.432  19.6% |-------|
  Apply H:                          50.976    48.213   0.7% |
   HMM T:                            2.763     2.763   0.0% |
  Subspace diag:                   455.648     0.051   0.0% |
   calc_h_matrix:                  175.524   120.310   1.7% ||
    Apply H:                        55.214    53.098   0.8% |
     HMM T:                          2.116     2.116   0.0% |
   diagonalize:                     77.384    77.384   1.1% |
   rotate_psi:                     202.688   202.688   2.9% ||
  calc. matrices:                 1039.260   941.292  13.3% |----|
   Apply H:                         97.967    92.691   1.3% ||
    HMM T:                           5.276     5.276   0.1% |
  diagonalize:                    3360.887  3360.887  47.5% |------------------|
  rotate_psi:                      444.076   444.076   6.3% |--|
 Density:                           81.689     0.004   0.0% |
  Atomic density matrices:           1.653     1.653   0.0% |
  Mix:                              55.724    55.724   0.8% |
  Multipole moments:                 0.068     0.068   0.0% |
  Pseudo density:                   24.240    24.233   0.3% |
   Symmetrize density:               0.007     0.007   0.0% |
 Hamiltonian:                       76.737     1.024   0.0% |
  Atomic:                           18.587     9.921   0.1% |
   XC Correction:                    8.667     8.667   0.1% |
  Calculate atomic Hamiltonians:    44.917    44.917   0.6% |
  Communicate:                       1.393     1.393   0.0% |
  Poisson:                           0.058     0.058   0.0% |
  XC 3D grid:                       10.757    10.757   0.2% |
 Orthonormalize:                     5.685     0.001   0.0% |
  calc_s_matrix:                     0.874     0.874   0.0% |
  inverse-cholesky:                  0.490     0.490   0.0% |
  projections:                       3.225     3.225   0.0% |
  rotate_psi_s:                      1.096     1.096   0.0% |
Set symmetry:                        0.001     0.001   0.0% |
Other:                               4.108     4.108   0.1% |
-----------------------------------------------------------
Total:                                      7078.329 100.0%

Date: Sat Apr  8 00:14:51 2023
