
  ___ ___ ___ _ _ _  
 |   |   |_  | | | | 
 | | | | | . | | | | 
 |__ |  _|___|_____|  22.8.0
 |___|_|             

User:   c.zeng@d0024
Date:   Mon Apr 17 04:38:36 2023
Arch:   x86_64
Pid:    6927
CWD:    /home/c.zeng/projects/hea-corrosion/hea-mlp/data-curation/surface-md/dft-jobs/20
Python: 3.8.1
gpaw:   /home/c.zeng/usr/installs/gpaw/source/gpaw-22.8.0/gpaw
_gpaw:  /home/c.zeng/usr/installs/gpaw/source/gpaw-22.8.0/
        _gpaw.cpython-38-x86_64-linux-gnu.so
ase:    /home/c.zeng/.local/lib/python3.8/site-packages/ase-3.22.1-py3.8.egg/ase (version 3.22.1)
numpy:  /home/c.zeng/.local/lib/python3.8/site-packages/numpy (version 1.24.2)
scipy:  /home/c.zeng/.local/lib/python3.8/site-packages/scipy (version 1.10.1)
libxc:  4.2.3
units:  Angstrom and eV
cores: 30
OpenMP: False
OMP_NUM_THREADS: 1

Input parameters:
  convergence: {energy: 0.0001}
  kpts: [2 2 1]
  maxiter: 666
  mode: {ecut: 350.0,
         name: pw}
  occupations: {fixmagmom: False,
                name: fermi-dirac,
                width: 0.1}
  poissonsolver: {dipolelayer: xy}
  spinpol: True
  symmetry: {point_group: False}
  xc: PBE

System changes: positions, numbers, cell, pbc, initial_charges, initial_magmoms 

Initialize ...

species:
  Ni:
    name: Nickel
    id: 0d9f38a9d6e76a2886f07bb4381f212b
    Z: 28.0
    valence: 16
    core: 12
    charge: 0.0
    file: /home/c.zeng/usr/data/gpaw-setups-0.9.20000/Ni.PBE.gz
    compensation charges: {type: gauss,
                           rc: 0.36,
                           lmax: 2}
    cutoffs: {filter: 2.14,
              core: 1.98}
    valence states:
      #              energy  rcut
      - 4s(2.00)    -5.642   1.164
      - 3p(6.00)   -71.394   1.207
      - 4p(0.00)    -1.226   1.207
      - 3d(8.00)    -8.875   1.138
      -  s          21.570   1.164
      -  d          18.337   1.138
  
    # Using partial waves for Ni as LCAO basis

  Fe:
    name: Iron
    id: 37abbd8d6c3c35915a9b583b742da910
    Z: 26.0
    valence: 8
    core: 18
    charge: 0.0
    file: /home/c.zeng/usr/data/gpaw-setups-0.9.20000/Fe.PBE.gz
    compensation charges: {type: gauss,
                           rc: 0.33,
                           lmax: 2}
    cutoffs: {filter: 2.06,
              core: 2.67}
    valence states:
      #              energy  rcut
      - 4s(2.00)    -5.291   1.164
      - 4p(0.00)    -1.326   1.058
      - 3d(6.00)    -7.505   1.058
      -  s          21.920   1.164
      -  p          25.885   1.058
      -  d          19.706   1.058
  
    # Using partial waves for Fe as LCAO basis

  Co:
    name: Cobalt
    id: 339d20d5b0b93d2de9531a1bee871d91
    Z: 27.0
    valence: 9
    core: 18
    charge: 0.0
    file: /home/c.zeng/usr/data/gpaw-setups-0.9.20000/Co.PBE.gz
    compensation charges: {type: gauss,
                           rc: 0.32,
                           lmax: 2}
    cutoffs: {filter: 1.87,
              core: 2.55}
    valence states:
      #              energy  rcut
      - 4s(2.00)    -5.469   1.005
      - 4p(0.00)    -1.277   1.058
      - 3d(7.00)    -8.205   1.005
      -  s          21.742   1.005
      -  p          25.934   1.058
      -  d          19.007   1.005
  
    # Using partial waves for Co as LCAO basis

  Cr:
    name: Chromium
    id: 33f258bda2ca9f93018e70263a35547b
    Z: 24.0
    valence: 6
    core: 18
    charge: 0.0
    file: /home/c.zeng/usr/data/gpaw-setups-0.9.20000/Cr.PBE.gz
    compensation charges: {type: gauss,
                           rc: 0.35,
                           lmax: 2}
    cutoffs: {filter: 2.14,
              core: 3.04}
    valence states:
      #              energy  rcut
      - 4s(1.00)    -4.007   1.164
      - 4p(0.00)    -0.989   1.217
      - 3d(5.00)    -2.913   1.111
      -  s          23.205   1.164
      -  p          26.223   1.217
      -  d          24.299   1.111
  
    # Using partial waves for Cr as LCAO basis

  Al:
    name: Aluminium
    id: 0292cae29f5d6237e50f6abdd43a7bdd
    Z: 13.0
    valence: 3
    core: 10
    charge: 0.0
    file: /home/c.zeng/usr/data/gpaw-setups-0.9.20000/Al.PBE.gz
    compensation charges: {type: gauss,
                           rc: 0.34,
                           lmax: 2}
    cutoffs: {filter: 1.91,
              core: 2.36}
    valence states:
      #              energy  rcut
      - 3s(2.00)    -7.753   1.085
      - 3p(1.00)    -2.712   1.085
      -  s          19.459   1.085
      -  p          24.499   1.085
      -  d           0.000   1.085
  
    # Using partial waves for Al as LCAO basis

Reference energy: -4275894.041763  # eV

Spin-polarized calculation.
Magnetic moment: 165.900000

Convergence criteria:
 Maximum [total energy] change in last 3 cyles: 0.0001 eV / electron
 Maximum integral of absolute [dens]ity change: 0.0001 electrons / valence electron
 Maximum integral of absolute [eigenst]ate change: 4e-08 eV^2 / valence electron
 Maximum number of scf [iter]ations: 666
 (Square brackets indicate name in SCF output, whereas a 'c' in
 the SCF output indicates the quantity has converged.)

Symmetries present (total): 1

  ( 1  0  0)
  ( 0  1  0)
  ( 0  0  1)

4 k-points: 2 x 2 x 1 Monkhorst-Pack grid
2 k-points in the irreducible part of the Brillouin zone
       k-points in crystal coordinates                weights
   0:     0.25000000   -0.25000000    0.00000000          2/4
   1:     0.25000000    0.25000000    0.00000000          2/4

Wave functions: Plane wave expansion
  Cutoff energy: 350.000 eV
  Number of coefficients (min, max): 58901, 58943
  Pulay-stress correction: 0.000000 eV/Ang^3 (de/decut=0.000000)
  Using FFTW library
  ScaLapack parameters: grid=1x1, blocksize=None
  Wavefunction extrapolation:
    Improved wavefunction reuse through dual PAW basis 

Occupation numbers: Fermi-Dirac:
  width: 0.1000  # eV
 

Eigensolver
   Davidson(niter=2) 

Densities:
  Coarse grid: 54*54*128 grid
  Fine grid: 108*108*256 grid
  Total Charge: 0.000000 

Density mixing:
  Method: difference
  Backend: pulay
  Linear mixing parameter: 0.05
  old densities: 5
  Damping of long wavelength oscillations: 50 

Hamiltonian:
  XC and Coulomb potentials evaluated on a 108*108*256 grid
  Using the PBE Exchange-Correlation functional
  External potential:
    NoExternalPotential
 

XC parameters: PBE with 2 nearest neighbor stencil

Memory estimate:
  Process memory now: 368.66 MiB
  Calculator: 2335.53 MiB
    Density: 17.84 MiB
      Arrays: 6.75 MiB
      Localized functions: 8.39 MiB
      Mixer: 2.70 MiB
    Hamiltonian: 5.27 MiB
      Arrays: 5.01 MiB
      XC: 0.00 MiB
      Poisson: 0.00 MiB
      vbar: 0.25 MiB
    Wavefunctions: 2312.43 MiB
      Arrays psit_nG: 1458.82 MiB
      Eigensolver: 834.29 MiB
      Projections: 3.66 MiB
      Projectors: 1.14 MiB
      PW-descriptor: 14.51 MiB

Total number of cores used: 30
Parallelization over k-points: 2
Domain decomposition: 1 x 3 x 5

Number of atoms: 125
Number of atomic orbitals: 1185
Number of bands in calculation: 811
Number of valence electrons: 1179
Bands to converge: occupied

... initialized

Initializing position-dependent things.

Density initialized from atomic densities
Creating initial wave functions:
  811 bands from LCAO basis set

                                                                  
                                                                  
                                                                  
                                                                  
                             Co                       Ni          
                               Ni    Co    Cr    Co    Cr         
                          Cr     Ni    Co    Cr    Fe             
                                Cr    Cr    Al    Fe    Fe        
                Co    Cr   CCo   CFe    CAl   Ni    Fe            
           Co     Co   NCr   FFe   FNi   Ni     Cr   Ni           
             Fe    Ni     CrCo    Cr    Ni     Fe                 
                  Fe    NCr   CCo   CFe   ACo   NCo               
              Ni   FFe   ANi   FNFe  CNNi  CFe   Cr               
               Ni    Fe    Cr    Fe     Cr                        
                          Co    CCo   CNi   NCr   NCo   Co        
           Co    Ni   CCo  FFFe   FCo   CCr   FNi   Cr            
            Fe    Cr    Cr    Ni    Cr                            
                       Al    Ni    Co    Cr    Ni                 
       Al    Co   NNi    Fe    FCo   Cr    Co                     
              Fe    Co    Fe     Co    Ni                         
                                                                  
                                                                  
                                                                  
                                                                  
                                                                  

Positions:
   0 Ni    12.486468    1.462777   10.528605    ( 0.0000,  0.0000,  1.5000)
   1 Fe     2.491286    1.427324   10.624355    ( 0.0000,  0.0000,  2.0000)
   2 Co     4.996443    1.433664   10.615695    ( 0.0000,  0.0000,  2.1000)
   3 Fe     7.497692    1.450585   10.618513    ( 0.0000,  0.0000,  2.0000)
   4 Co     9.980354    1.438381   10.617016    ( 0.0000,  0.0000,  2.1000)
   5 Co    13.725570    3.599047   10.613993    ( 0.0000,  0.0000,  2.1000)
   6 Ni     3.721032    3.570702   10.596763    ( 0.0000,  0.0000,  1.5000)
   7 Fe     6.265421    3.568181   10.621801    ( 0.0000,  0.0000,  2.0000)
   8 Fe     8.741341    3.586865   10.615549    ( 0.0000,  0.0000,  2.0000)
   9 Cr    11.233064    3.610428   10.573163    ( 0.0000,  0.0000,  0.0000)
  10 Ni    14.927431    5.761281   10.554435    ( 0.0000,  0.0000,  1.5000)
  11 Al     5.002416    5.751707   10.362584    ( 0.0000,  0.0000,  0.0000)
  12 Ni     7.528897    5.754942   10.601782    ( 0.0000,  0.0000,  1.5000)
  13 Co     9.984614    5.751426   10.596909    ( 0.0000,  0.0000,  2.1000)
  14 Cr    12.467830    5.774643   10.569993    ( 0.0000,  0.0000,  0.0000)
  15 Cr    16.185528    7.952943   10.517715    ( 0.0000,  0.0000,  0.0000)
  16 Fe     6.281890    7.953062   10.585785    ( 0.0000,  0.0000,  2.0000)
  17 Fe     8.751632    7.929564   10.589659    ( 0.0000,  0.0000,  2.0000)
  18 Cr    11.232798    7.933199   10.565472    ( 0.0000,  0.0000,  0.0000)
  19 Fe    13.711755    7.928211   10.595530    ( 0.0000,  0.0000,  2.0000)
  20 Co    17.465073   10.103493   10.559367    ( 0.0000,  0.0000,  2.1000)
  21 Co     7.524528   10.087482   10.585491    ( 0.0000,  0.0000,  2.1000)
  22 Co     9.999339   10.092837   10.628699    ( 0.0000,  0.0000,  2.1000)
  23 Ni    12.492524   10.103136   10.590364    ( 0.0000,  0.0000,  1.5000)
  24 Ni    14.967562   10.103591   10.598553    ( 0.0000,  0.0000,  1.5000)
  25 Al     0.039549    0.061487   12.592509    ( 0.0000,  0.0000,  0.0000)
  26 Co     2.543839    0.004196   12.633574    ( 0.0000,  0.0000,  2.1000)
  27 Ni     5.007959    0.016292   12.619485    ( 0.0000,  0.0000,  1.5000)
  28 Ni    13.725047   10.821613   12.614847    ( 0.0000,  0.0000,  1.5000)
  29 Co     9.941746    0.020015   12.634836    ( 0.0000,  0.0000,  2.1000)
  30 Fe     1.280557    2.197634   12.622449    ( 0.0000,  0.0000,  2.0000)
  31 Cr     3.757003    2.159238   12.617870    ( 0.0000,  0.0000,  0.0000)
  32 Cr     6.259391    2.150539   12.632283    ( 0.0000,  0.0000,  0.0000)
  33 Ni     8.729061    2.160536   12.640942    ( 0.0000,  0.0000,  1.5000)
  34 Cr    11.206426    2.199527   12.600112    ( 0.0000,  0.0000,  0.0000)
  35 Ni    14.980028    4.321894   12.623066    ( 0.0000,  0.0000,  1.5000)
  36 Cr     5.000637    4.306532   12.605865    ( 0.0000,  0.0000,  0.0000)
  37 Fe     7.511972    4.316766   12.613115    ( 0.0000,  0.0000,  2.0000)
  38 Fe     9.977581    4.334444   12.603575    ( 0.0000,  0.0000,  2.0000)
  39 Cr    12.466237    4.352219   12.609857    ( 0.0000,  0.0000,  0.0000)
  40 Co    16.217374    6.438246   12.562775    ( 0.0000,  0.0000,  2.1000)
  41 Co     6.249088    6.441384   12.586551    ( 0.0000,  0.0000,  2.1000)
  42 Co     8.734867    6.480104   12.598380    ( 0.0000,  0.0000,  2.1000)
  43 Ni    11.217541    6.497393   12.580210    ( 0.0000,  0.0000,  1.5000)
  44 Cr    13.747589    6.470530   12.591629    ( 0.0000,  0.0000,  0.0000)
  45 Al     4.965631    8.600697   12.619661    ( 0.0000,  0.0000,  0.0000)
  46 Fe     7.527050    8.647229   12.603517    ( 0.0000,  0.0000,  2.0000)
  47 Cr     9.992787    8.639093   12.602137    ( 0.0000,  0.0000,  0.0000)
  48 Co    12.461146    8.678950   12.599202    ( 0.0000,  0.0000,  2.1000)
  49 Cr    14.923147    8.662851   12.605102    ( 0.0000,  0.0000,  0.0000)
  50 Co     1.264555    0.726556   14.701676    ( 0.0000,  0.0000,  2.1000)
  51 Ni     3.750060    0.743838   14.683888    ( 0.0000,  0.0000,  1.5000)
  52 Co     6.237655    0.730758   14.677812    ( 0.0000,  0.0000,  2.1000)
  53 Fe     8.726659    0.737641   14.712772    ( 0.0000,  0.0000,  2.0000)
  54 Co    11.216460    0.725550   14.709367    ( 0.0000,  0.0000,  2.1000)
  55 Ni     2.513395    2.883675   14.691579    ( 0.0000,  0.0000,  1.5000)
  56 Fe     4.990849    2.893120   14.684241    ( 0.0000,  0.0000,  2.0000)
  57 Cr     7.488486    2.893629   14.696334    ( 0.0000,  0.0000,  0.0000)
  58 Fe     9.972278    2.890664   14.692489    ( 0.0000,  0.0000,  2.0000)
  59 Cr    12.467576    2.877141   14.691667    ( 0.0000,  0.0000,  0.0000)
  60 Fe     3.758526    5.050346   14.670151    ( 0.0000,  0.0000,  2.0000)
  61 Ni     6.246120    5.038056   14.669564    ( 0.0000,  0.0000,  1.5000)
  62 Ni     8.732126    5.049902   14.667773    ( 0.0000,  0.0000,  1.5000)
  63 Ni    11.205583    5.023028   14.695277    ( 0.0000,  0.0000,  1.5000)
  64 Fe    13.756582    5.017781   14.684505    ( 0.0000,  0.0000,  2.0000)
  65 Ni     5.010694    7.182699   14.702674    ( 0.0000,  0.0000,  1.5000)
  66 Cr     7.485228    7.189460   14.657588    ( 0.0000,  0.0000,  0.0000)
  67 Co     9.946463    7.198159   14.653068    ( 0.0000,  0.0000,  2.1000)
  68 Al    12.473405    7.201264   14.677166    ( 0.0000,  0.0000,  0.0000)
  69 Co    15.017763    7.213900   14.645054    ( 0.0000,  0.0000,  2.1000)
  70 Co     6.251064    9.372532   14.712302    ( 0.0000,  0.0000,  2.1000)
  71 Cr     8.729758    9.372705   14.658410    ( 0.0000,  0.0000,  0.0000)
  72 Ni    11.200962    9.406124   14.647901    ( 0.0000,  0.0000,  1.5000)
  73 Fe    13.749704    9.394894   14.665366    ( 0.0000,  0.0000,  2.0000)
  74 Ni    16.223386    9.399309   14.720785    ( 0.0000,  0.0000,  1.5000)
  75 Ni    12.479408    1.425961   16.738106    ( 0.0000,  0.0000,  1.5000)
  76 Ni     2.490684    1.454436   16.739222    ( 0.0000,  0.0000,  1.5000)
  77 Fe     4.964072    1.458060   16.748615    ( 0.0000,  0.0000,  2.0000)
  78 Ni     7.493576    1.474137   16.738664    ( 0.0000,  0.0000,  1.5000)
  79 Fe     9.990724    1.450314   16.751932    ( 0.0000,  0.0000,  2.0000)
  80 Co    13.736871    3.597619   16.749671    ( 0.0000,  0.0000,  2.1000)
  81 Fe     3.731782    3.620695   16.737637    ( 0.0000,  0.0000,  2.0000)
  82 Cr     6.217757    3.600962   16.741893    ( 0.0000,  0.0000,  0.0000)
  83 Co     8.739843    3.608427   16.720025    ( 0.0000,  0.0000,  2.1000)
  84 Fe    11.236517    3.591755   16.778291    ( 0.0000,  0.0000,  2.0000)
  85 Cr    14.987780    5.779273   16.714506    ( 0.0000,  0.0000,  0.0000)
  86 Ni     4.996827    5.757928   16.729565    ( 0.0000,  0.0000,  1.5000)
  87 Fe     7.493878    5.760427   16.738488    ( 0.0000,  0.0000,  2.0000)
  88 Fe     9.975457    5.766269   16.736932    ( 0.0000,  0.0000,  2.0000)
  89 Ni    12.478104    5.731140   16.775473    ( 0.0000,  0.0000,  1.5000)
  90 Fe    16.238159    7.937775   16.730328    ( 0.0000,  0.0000,  2.0000)
  91 Cr     6.231444    7.940404   16.765522    ( 0.0000,  0.0000,  0.0000)
  92 Cr     8.728840    7.936931   16.735611    ( 0.0000,  0.0000,  0.0000)
  93 Cr    11.192557    7.913866   16.746149    ( 0.0000,  0.0000,  0.0000)
  94 Ni    13.768802    7.904897   16.753722    ( 0.0000,  0.0000,  1.5000)
  95 Fe    17.466742   10.100767   16.763996    ( 0.0000,  0.0000,  2.0000)
  96 Cr     7.483726   10.114128   16.752695    ( 0.0000,  0.0000,  0.0000)
  97 Cr     9.946168   10.127316   16.729242    ( 0.0000,  0.0000,  0.0000)
  98 Al    12.492406   10.089342   16.764671    ( 0.0000,  0.0000,  0.0000)
  99 Fe    15.005292   10.118575   16.753076    ( 0.0000,  0.0000,  2.0000)
 100 Co     6.250979   10.817826   18.755486    ( 0.0000,  0.0000,  2.1000)
 101 Fe     2.491992    0.007607   18.757365    ( 0.0000,  0.0000,  2.0000)
 102 Ni     4.959039    0.011376   18.813253    ( 0.0000,  0.0000,  1.5000)
 103 Cr     7.505721    0.033872   18.830425    ( 0.0000,  0.0000,  0.0000)
 104 Ni    16.226478   10.816744   18.766934    ( 0.0000,  0.0000,  1.5000)
 105 Co     1.262456    2.149912   18.735438    ( 0.0000,  0.0000,  2.1000)
 106 Co     3.733330    2.172036   18.731769    ( 0.0000,  0.0000,  2.1000)
 107 Cr     6.235561    2.176310   18.762208    ( 0.0000,  0.0000,  0.0000)
 108 Fe     8.740232    2.176277   18.742160    ( 0.0000,  0.0000,  2.0000)
 109 Ni    11.216255    2.130427   18.758333    ( 0.0000,  0.0000,  1.5000)
 110 Co     2.521812    4.343315   18.747649    ( 0.0000,  0.0000,  2.1000)
 111 Cr     4.991012    4.329273   18.757688    ( 0.0000,  0.0000,  0.0000)
 112 Co     7.490880    4.334898   18.725399    ( 0.0000,  0.0000,  2.1000)
 113 Fe     9.943770    4.322230   18.730184    ( 0.0000,  0.0000,  2.0000)
 114 Al    12.464525    4.326265   18.943816    ( 0.0000,  0.0000,  0.0000)
 115 Fe    16.224051    6.495359   18.723022    ( 0.0000,  0.0000,  2.0000)
 116 Cr     6.226814    6.495348   18.761650    ( 0.0000,  0.0000,  0.0000)
 117 Ni     8.730619    6.495759   18.735203    ( 0.0000,  0.0000,  1.5000)
 118 Co    11.207915    6.503819   18.742835    ( 0.0000,  0.0000,  2.1000)
 119 Cr    13.765796    6.524169   18.782109    ( 0.0000,  0.0000,  0.0000)
 120 Cr    17.450702    8.660601   18.763558    ( 0.0000,  0.0000,  0.0000)
 121 Ni     7.490686    8.670024   18.761621    ( 0.0000,  0.0000,  1.5000)
 122 Co     9.981419    8.673010   18.727630    ( 0.0000,  0.0000,  2.1000)
 123 Cr    12.489241    8.635804   18.838438    ( 0.0000,  0.0000,  0.0000)
 124 Co    14.988874    8.667774   18.729832    ( 0.0000,  0.0000,  2.1000)

Unit cell:
           periodic     x           y           z      points  spacing
  1. axis:    yes   12.474800    0.000000    0.000000    54     0.2001
  2. axis:    yes    6.246240   10.818800    0.000000    54     0.2003
  3. axis:    no     0.000000    0.000000   29.353100   128     0.2293

  Lengths:  12.474800  12.492476  29.353100
  Angles:   90.000000  90.000000  59.999988

Effective grid spacing dv^(1/3) = 0.2198

     iter     time        total  log10-change:  magmom
                         energy  eigst   dens
iter:   1 04:45:51 -1215.755687                  +166.2218
iter:   2 04:48:18 -1081.212640  -0.12  -1.12    +88.8718
iter:   3 04:50:45 -1671.673996  -0.30  -1.14    +75.5533
iter:   4 04:53:12 -1402.925592  +0.06  -0.85    +67.5192
iter:   5 04:55:38 -1072.918513  -0.84  -0.93    +46.1710
iter:   6 04:58:06 -1024.465791  -1.53  -1.21    +39.8592
iter:   7 05:00:32 -1011.691829  -1.74  -1.28    +38.4755
iter:   8 05:02:56 -1004.634880  -1.56  -1.32    +40.4027
iter:   9 05:05:26  -992.171996  -0.91  -1.35    +40.2682
iter:  10 05:07:54  -997.091532  -1.52  -1.43    +40.5221
iter:  11 05:10:22 -1269.892995  -1.01  -1.42    +40.5359
iter:  12 05:12:49  -983.838604  -1.28  -1.01    +37.8182
iter:  13 05:15:16  -984.192330  -1.61  -1.53    +37.3513
iter:  14 05:17:44  -973.147492  -2.05  -1.53    +37.3139
iter:  15 05:20:12  -972.679499  -2.47  -1.61    +39.4041
iter:  16 05:22:39  -969.433669  -2.84  -1.62    +42.2609
iter:  17 05:25:08 -1049.425324  -1.57  -1.67    +44.4631
iter:  18 05:27:36  -985.790370  -1.69  -1.28    +45.7055
iter:  19 05:30:04  -970.538734  -2.38  -1.53    +45.8147
iter:  20 05:32:32  -977.462633  -1.97  -1.74    +48.2476
iter:  21 05:34:59  -975.211881  -1.88  -1.68    +49.3321
iter:  22 05:37:27  -970.607561  -2.18  -1.75    +50.6099
iter:  23 05:39:55  -971.137214  -2.25  -1.78    +52.9728
iter:  24 05:42:23  -972.596029  -2.44  -1.81    +54.7531
iter:  25 05:44:51  -968.856522  -2.55  -1.79    +57.3913
iter:  26 05:47:19  -971.132610  -2.69  -1.90    +59.1327
iter:  27 05:49:47  -968.291893  -2.74  -1.86    +60.6962
iter:  28 05:52:15  -971.418700  -2.34  -2.05    +62.3914
iter:  29 05:54:43  -969.782897  -2.61  -1.93    +64.0148
iter:  30 05:57:11  -972.523749  -2.63  -2.01    +65.8793
iter:  31 05:59:39  -969.938346  -2.63  -1.91    +66.6287
iter:  32 06:02:07  -970.775370  -2.98  -2.02    +68.4750
iter:  33 06:04:35  -968.599256  -3.40  -1.99    +69.2341
iter:  34 06:07:03  -969.052606  -3.35  -2.23    +71.1053
iter:  35 06:09:31  -969.717253  -3.43  -2.22    +72.1216
iter:  36 06:11:59  -969.660341  -3.45  -2.15    +73.1756
iter:  37 06:14:27  -973.344450  -2.58  -2.24    +74.3843
iter:  38 06:16:55  -972.041838  -2.64  -1.97    +74.3517
iter:  39 06:19:23  -970.781985  -2.82  -2.03    +74.5675
iter:  40 06:21:51  -970.197271  -3.13  -2.16    +75.2224
iter:  41 06:24:20  -969.694665  -3.25  -2.31    +75.9282
iter:  42 06:26:48  -969.648184  -4.00  -2.45    +76.3558
iter:  43 06:29:16  -969.810060  -3.72  -2.54    +77.1524
iter:  44 06:31:44  -970.011733  -3.44  -2.57    +78.0946
iter:  45 06:34:12  -971.099274  -3.39  -2.59    +77.9411
iter:  46 06:36:40  -970.148116  -3.53  -2.23    +77.9327
iter:  47 06:39:09  -970.136148  -3.77  -2.61    +77.7010
iter:  48 06:41:35  -970.120214c -4.02  -2.70    +77.7779
iter:  49 06:44:01  -970.141144c -4.03  -2.80    +77.7858
iter:  50 06:46:27  -970.162770c -4.27  -2.92    +77.7430
iter:  51 06:48:52  -970.203233c -4.31  -2.92    +77.7481
iter:  52 06:51:17  -970.247431c -4.41  -2.91    +77.7293
iter:  53 06:53:42  -970.249553c -4.56  -2.84    +77.6625
iter:  54 06:56:07  -970.333424c -4.18  -2.88    +77.5753
iter:  55 06:58:32  -970.338534c -4.12  -2.78    +77.4617
iter:  56 07:00:56  -970.335601c -4.31  -2.84    +77.3744
iter:  57 07:03:21  -971.311267  -3.54  -2.89    +77.3214
iter:  58 07:05:46  -970.409937  -3.70  -2.27    +77.3250
iter:  59 07:08:11  -970.376910  -4.58  -2.73    +77.1693
iter:  60 07:10:36  -970.427635c -4.18  -2.85    +76.8868
iter:  61 07:13:02  -970.407630c -4.62  -2.78    +76.8029
iter:  62 07:15:27  -970.435156c -4.35  -2.84    +76.7475
iter:  63 07:17:52  -970.498414c -4.17  -2.80    +76.7577
iter:  64 07:20:17  -970.443433c -4.28  -2.70    +76.7663
iter:  65 07:22:43  -970.475171c -4.39  -2.80    +76.7043
iter:  66 07:25:09  -970.454132c -4.05  -2.75    +76.6910
iter:  67 07:27:35  -970.556901c -3.99  -2.81    +76.5738
iter:  68 07:29:59  -970.435510  -4.38  -2.62    +76.4906
iter:  69 07:32:25  -970.482392  -4.14  -2.86    +76.5146
iter:  70 07:34:51  -970.431381c -4.37  -2.77    +76.5192
iter:  71 07:37:17  -970.459114c -4.67  -2.90    +76.5341
iter:  72 07:39:42  -970.429458c -4.42  -2.80    +76.5149
iter:  73 07:42:08  -970.435337c -4.18  -2.92    +76.4607
iter:  74 07:44:34  -970.426159c -4.45  -2.90    +76.4499
iter:  75 07:46:59  -970.547100  -4.44  -2.94    +76.4895
iter:  76 07:49:24  -970.422388  -4.27  -2.67    +76.5040
iter:  77 07:51:50  -970.448802  -4.35  -3.00    +76.4493
iter:  78 07:54:15  -970.415266c -4.70  -2.87    +76.4823
iter:  79 07:56:41  -970.412740c -4.67  -3.07    +76.5542
iter:  80 07:59:06  -970.512207c -4.13  -3.16    +76.5670
iter:  81 08:01:31  -970.433861c -4.52  -2.75    +76.5671
iter:  82 08:03:57  -970.405015c -4.72  -2.97    +76.6202
iter:  83 08:06:22  -970.457455c -4.48  -3.31    +76.6413
iter:  84 08:08:48  -970.401869c -4.87  -2.88    +76.6593
iter:  85 08:11:14  -970.400494c -5.55  -3.40    +76.6458
iter:  86 08:13:39  -970.400857c -5.74  -3.45    +76.6531
iter:  87 08:16:05  -970.400127c -6.03  -3.50    +76.6646
iter:  88 08:18:31  -970.405458c -5.75  -3.54    +76.6681
iter:  89 08:20:57  -970.403838c -5.62  -3.32    +76.6651
iter:  90 08:23:23  -970.408394c -5.19  -3.46    +76.6821
iter:  91 08:25:48  -970.402836c -5.29  -3.29    +76.6812
iter:  92 08:28:14  -970.402629c -5.43  -3.56    +76.6684
iter:  93 08:30:40  -970.404393c -5.59  -3.55    +76.6688
iter:  94 08:33:05  -970.404997c -5.56  -3.49    +76.6755
iter:  95 08:35:30  -970.401471c -6.21  -3.49    +76.6871
iter:  96 08:37:57  -970.401759c -6.35  -3.82    +76.6861
iter:  97 08:40:22  -970.402006c -6.67  -3.86    +76.6981
iter:  98 08:42:48  -970.402602c -6.09  -3.88    +76.7243
iter:  99 08:45:14  -970.403103c -6.19  -3.91    +76.7286
iter: 100 08:47:39  -970.403609c -6.02  -3.99    +76.7309
iter: 101 08:50:05  -970.403202c -6.23  -3.72    +76.7243
iter: 102 08:52:30  -970.402998c -6.59  -3.88    +76.7276
iter: 103 08:54:56  -970.402884c -6.87  -4.25c   +76.7424
iter: 104 08:57:21  -970.402919c -7.33  -4.19c   +76.7462
iter: 105 08:59:46  -970.402995c -7.09  -4.32c   +76.7541
iter: 106 09:02:10  -970.403030c -7.04  -4.43c   +76.7636
iter: 107 09:04:35  -970.403156c -7.45c -4.37c   +76.7663

Converged after 107 iterations.

Dipole moment: (47.937944, 26.820051, 0.027001) |e|*Ang

Total magnetic moment: (0.000000, 0.000000, 76.766254)
Local magnetic moments:
   0 Ni ( 0.000000,  0.000000,  0.367015)
   1 Fe ( 0.000000,  0.000000,  2.578227)
   2 Co ( 0.000000,  0.000000,  1.265384)
   3 Fe ( 0.000000,  0.000000,  2.583391)
   4 Co ( 0.000000,  0.000000,  1.339192)
   5 Co ( 0.000000,  0.000000,  1.130343)
   6 Ni ( 0.000000,  0.000000,  0.239042)
   7 Fe ( 0.000000,  0.000000,  2.274046)
   8 Fe ( 0.000000,  0.000000,  2.509378)
   9 Cr ( 0.000000,  0.000000, -2.024587)
  10 Ni ( 0.000000,  0.000000,  0.190827)
  11 Al ( 0.000000,  0.000000, -0.046878)
  12 Ni ( 0.000000,  0.000000,  0.515284)
  13 Co ( 0.000000,  0.000000,  1.164167)
  14 Cr ( 0.000000,  0.000000, -1.570446)
  15 Cr ( 0.000000,  0.000000,  1.964711)
  16 Fe ( 0.000000,  0.000000,  2.421544)
  17 Fe ( 0.000000,  0.000000,  2.363460)
  18 Cr ( 0.000000,  0.000000, -2.049187)
  19 Fe ( 0.000000,  0.000000,  2.017037)
  20 Co ( 0.000000,  0.000000,  1.286114)
  21 Co ( 0.000000,  0.000000,  1.513719)
  22 Co ( 0.000000,  0.000000,  1.373149)
  23 Ni ( 0.000000,  0.000000,  0.494227)
  24 Ni ( 0.000000,  0.000000,  0.357367)
  25 Al ( 0.000000,  0.000000, -0.044225)
  26 Co ( 0.000000,  0.000000,  1.174093)
  27 Ni ( 0.000000,  0.000000,  0.360253)
  28 Ni ( 0.000000,  0.000000,  0.388194)
  29 Co ( 0.000000,  0.000000,  1.282576)
  30 Fe ( 0.000000,  0.000000,  2.071241)
  31 Cr ( 0.000000,  0.000000, -0.763357)
  32 Cr ( 0.000000,  0.000000, -0.493831)
  33 Ni ( 0.000000,  0.000000,  0.338747)
  34 Cr ( 0.000000,  0.000000,  0.544791)
  35 Ni ( 0.000000,  0.000000,  0.245811)
  36 Cr ( 0.000000,  0.000000, -1.216818)
  37 Fe ( 0.000000,  0.000000,  2.044095)
  38 Fe ( 0.000000,  0.000000,  1.860644)
  39 Cr ( 0.000000,  0.000000, -0.345418)
  40 Co ( 0.000000,  0.000000,  0.803882)
  41 Co ( 0.000000,  0.000000,  1.103615)
  42 Co ( 0.000000,  0.000000,  1.223803)
  43 Ni ( 0.000000,  0.000000,  0.131104)
  44 Cr ( 0.000000,  0.000000,  0.866983)
  45 Al ( 0.000000,  0.000000, -0.045841)
  46 Fe ( 0.000000,  0.000000,  1.955922)
  47 Cr ( 0.000000,  0.000000, -0.615088)
  48 Co ( 0.000000,  0.000000,  0.825154)
  49 Cr ( 0.000000,  0.000000, -1.757582)
  50 Co ( 0.000000,  0.000000,  1.138205)
  51 Ni ( 0.000000,  0.000000,  0.250674)
  52 Co ( 0.000000,  0.000000,  0.938107)
  53 Fe ( 0.000000,  0.000000,  2.251668)
  54 Co ( 0.000000,  0.000000,  1.221133)
  55 Ni ( 0.000000,  0.000000,  0.378591)
  56 Fe ( 0.000000,  0.000000,  1.675561)
  57 Cr ( 0.000000,  0.000000, -1.579826)
  58 Fe ( 0.000000,  0.000000,  2.050794)
  59 Cr ( 0.000000,  0.000000, -1.728085)
  60 Fe ( 0.000000,  0.000000,  2.158911)
  61 Ni ( 0.000000,  0.000000,  0.167681)
  62 Ni ( 0.000000,  0.000000,  0.345041)
  63 Ni ( 0.000000,  0.000000,  0.272854)
  64 Fe ( 0.000000,  0.000000,  2.026285)
  65 Ni ( 0.000000,  0.000000,  0.256689)
  66 Cr ( 0.000000,  0.000000, -1.065892)
  67 Co ( 0.000000,  0.000000,  0.714358)
  68 Al ( 0.000000,  0.000000, -0.025879)
  69 Co ( 0.000000,  0.000000,  1.018685)
  70 Co ( 0.000000,  0.000000,  0.382117)
  71 Cr ( 0.000000,  0.000000, -0.710585)
  72 Ni ( 0.000000,  0.000000,  0.118853)
  73 Fe ( 0.000000,  0.000000,  2.246137)
  74 Ni ( 0.000000,  0.000000,  0.382711)
  75 Ni ( 0.000000,  0.000000,  0.412909)
  76 Ni ( 0.000000,  0.000000,  0.457308)
  77 Fe ( 0.000000,  0.000000,  1.895699)
  78 Ni ( 0.000000,  0.000000,  0.186760)
  79 Fe ( 0.000000,  0.000000,  2.265317)
  80 Co ( 0.000000,  0.000000,  1.395426)
  81 Fe ( 0.000000,  0.000000,  2.013107)
  82 Cr ( 0.000000,  0.000000,  0.379277)
  83 Co ( 0.000000,  0.000000,  1.273117)
  84 Fe ( 0.000000,  0.000000,  2.346584)
  85 Cr ( 0.000000,  0.000000, -1.385756)
  86 Ni ( 0.000000,  0.000000,  0.153770)
  87 Fe ( 0.000000,  0.000000,  2.002763)
  88 Fe ( 0.000000,  0.000000,  2.195734)
  89 Ni ( 0.000000,  0.000000,  0.177891)
  90 Fe ( 0.000000,  0.000000,  2.021885)
  91 Cr ( 0.000000,  0.000000,  0.585698)
  92 Cr ( 0.000000,  0.000000,  0.068129)
  93 Cr ( 0.000000,  0.000000, -1.448577)
  94 Ni ( 0.000000,  0.000000,  0.147131)
  95 Fe ( 0.000000,  0.000000,  2.059753)
  96 Cr ( 0.000000,  0.000000, -0.628022)
  97 Cr ( 0.000000,  0.000000,  0.095005)
  98 Al ( 0.000000,  0.000000, -0.023254)
  99 Fe ( 0.000000,  0.000000,  2.074557)
 100 Co ( 0.000000,  0.000000,  1.417498)
 101 Fe ( 0.000000,  0.000000,  2.400953)
 102 Ni ( 0.000000,  0.000000,  0.115595)
 103 Cr ( 0.000000,  0.000000, -2.455067)
 104 Ni ( 0.000000,  0.000000,  0.449856)
 105 Co ( 0.000000,  0.000000,  1.631245)
 106 Co ( 0.000000,  0.000000,  1.268108)
 107 Cr ( 0.000000,  0.000000, -1.955291)
 108 Fe ( 0.000000,  0.000000,  2.412589)
 109 Ni ( 0.000000,  0.000000,  0.555494)
 110 Co ( 0.000000,  0.000000,  1.185134)
 111 Cr ( 0.000000,  0.000000, -1.819498)
 112 Co ( 0.000000,  0.000000,  0.876044)
 113 Fe ( 0.000000,  0.000000,  2.543290)
 114 Al ( 0.000000,  0.000000, -0.044750)
 115 Fe ( 0.000000,  0.000000,  2.045613)
 116 Cr ( 0.000000,  0.000000, -1.944778)
 117 Ni ( 0.000000,  0.000000,  0.371054)
 118 Co ( 0.000000,  0.000000,  1.068932)
 119 Cr ( 0.000000,  0.000000, -2.083336)
 120 Cr ( 0.000000,  0.000000, -2.090611)
 121 Ni ( 0.000000,  0.000000,  0.090511)
 122 Co ( 0.000000,  0.000000, -0.082794)
 123 Cr ( 0.000000,  0.000000,  2.358620)
 124 Co ( 0.000000,  0.000000,  1.250998)

Energy contributions relative to reference atoms: (reference = -4275894.041763)

Kinetic:       +269.117590
Potential:     -306.454909
External:        +0.000000
XC:            -973.118152
Entropy (-ST):   -5.447224
Local:          +42.775927
--------------------------
Free energy:   -973.126768
Extrapolated:  -970.403156

Dipole-layer corrected work functions: 4.927055, 4.890853 eV

Spin contamination: 39.116896 electrons
Showing all kpts
                      Up                     Down
 Kpt  Band  Eigenvalues  Occupancy  Eigenvalues  Occupancy
  0   587     -0.03969    0.99614      0.86902    0.02833
  0   588     -0.03237    0.99584      0.87586    0.02651
  0   589     -0.01979    0.99529      0.89106    0.02286
  0   590     -0.00188    0.99437      0.89656    0.02166

  1   587     -0.02585    0.99556      0.87150    0.02766
  1   588     -0.01749    0.99518      0.88401    0.02449
  1   589     -0.00855    0.99473      0.89084    0.02291
  1   590      0.00474    0.99399      0.90288    0.02036


Fermi level: 0.51552

No gap

Forces in eV/Ang:
  0 Ni   -0.13389   -0.12117    0.08187
  1 Fe    0.13202   -0.16046   -0.46567
  2 Co   -0.04694    0.12403    0.15128
  3 Fe   -0.08757   -0.33934   -0.27814
  4 Co    0.22940   -0.12098    0.12051
  5 Co   -0.31470    0.05853    0.18497
  6 Ni    0.25252    0.13007   -0.02065
  7 Fe   -0.47040   -0.02803   -0.19011
  8 Fe    0.25554    0.08686   -0.43925
  9 Cr   -0.15067   -0.58430   -0.12512
 10 Ni    0.27482   -0.06910    0.13103
 11 Al   -0.03210   -0.19414   -0.21265
 12 Ni   -0.21522    0.09636   -0.18152
 13 Co   -0.12927    0.10519    0.33885
 14 Cr    0.55535   -0.16452    0.09111
 15 Cr   -0.26772    0.25160   -0.08985
 16 Fe    0.04691    0.00709   -0.24431
 17 Fe    0.14012   -0.12073   -0.30515
 18 Cr   -0.07394    0.43430    0.15486
 19 Fe   -0.35050    0.10162   -0.10827
 20 Co    0.11885    0.13592    0.40261
 21 Co   -0.11863   -0.04974    0.03322
 22 Co   -0.00524    0.09307    0.10713
 23 Ni   -0.15349    0.03109    0.10630
 24 Ni    0.17613   -0.01632   -0.04550
 25 Al    0.10653   -0.48214    0.28371
 26 Co    0.12712   -0.01173    0.06143
 27 Ni   -0.19655   -0.00502   -0.00761
 28 Ni   -0.01353   -0.01976    0.23836
 29 Co    0.17659   -0.18118   -0.33058
 30 Fe   -0.04142    0.34782    0.14488
 31 Cr    0.27119   -0.03685   -0.22850
 32 Cr   -0.49672   -0.11313   -0.05546
 33 Ni    0.21464   -0.10236    0.09301
 34 Cr   -0.29067    0.78911   -0.26605
 35 Ni    0.11477   -0.01412    0.12862
 36 Cr    0.12591   -0.14236    0.12168
 37 Fe   -0.27405    0.09864    0.54994
 38 Fe    0.26981    0.20552    0.13504
 39 Cr   -0.05337   -0.24953   -0.29488
 40 Co    0.02918    0.12936    0.31299
 41 Co    0.18146    0.11345   -0.00979
 42 Co    0.06786    0.17029    0.14359
 43 Ni   -0.05650    0.01978    0.01198
 44 Cr    0.21602    0.07770   -0.69836
 45 Al    0.37406   -0.05993    0.82881
 46 Fe    0.13750   -0.05236    0.22165
 47 Cr   -0.33381    0.08043    0.29962
 48 Co    0.11174   -0.25971   -0.20505
 49 Cr   -0.42562   -0.25134   -0.13316
 50 Co   -0.15422   -0.07778    0.02163
 51 Ni   -0.12598   -0.07888   -0.14328
 52 Co   -0.06831    0.19073   -0.15889
 53 Fe   -0.03996   -0.14163   -0.50278
 54 Co    0.13538   -0.01108   -0.21013
 55 Ni   -0.17858   -0.02982   -0.08553
 56 Fe    0.22458   -0.09710   -0.21106
 57 Cr   -0.10792    0.02263   -0.12234
 58 Fe    0.12380    0.11474   -0.14276
 59 Cr    0.20935   -0.19959    0.14123
 60 Fe    0.10035    0.20968   -0.22744
 61 Ni   -0.08410    0.07599   -0.04563
 62 Ni    0.16296    0.04121   -0.04937
 63 Ni    0.11574    0.04862   -0.18174
 64 Fe   -0.02962   -0.28087    0.21310
 65 Ni   -0.15752    0.15001   -0.36185
 66 Cr   -0.09354    0.23885   -0.27591
 67 Co   -0.25341    0.29911    0.03233
 68 Al   -0.07963   -0.03666   -0.12286
 69 Co    0.06295    0.03056   -0.13393
 70 Co    0.31240    0.05414   -0.00896
 71 Cr   -0.15125    0.00808   -0.16135
 72 Ni    0.26100   -0.30513    0.11026
 73 Fe    0.24120   -0.08874   -0.25384
 74 Ni    0.10891   -0.28239   -0.32334
 75 Ni    0.01438    0.13036    0.01689
 76 Ni    0.00606    0.09674   -0.25867
 77 Fe    0.06503    0.31405    0.22871
 78 Ni   -0.10075   -0.28143    0.13808
 79 Fe    0.17957   -0.02996    0.01431
 80 Co   -0.02449    0.00281    0.09111
 81 Fe   -0.13305   -0.02310    0.37655
 82 Cr    0.22736    0.22269    0.51539
 83 Co   -0.20877    0.07187   -0.08989
 84 Fe    0.12877    0.02068   -0.39483
 85 Cr    0.11701   -0.33000   -0.11022
 86 Ni    0.08834    0.07739    0.15509
 87 Fe    0.00953   -0.31136    0.20627
 88 Fe    0.06880    0.17813   -0.39384
 89 Ni    0.26258    0.15877   -0.08539
 90 Fe   -0.31459   -0.11376   -0.22468
 91 Cr    0.02212    0.09686   -0.40528
 92 Cr    0.04177   -0.11447    0.69091
 93 Cr   -0.69461   -0.24226    0.75212
 94 Ni   -0.22927    0.10756   -0.25138
 95 Fe    0.25725    0.03438   -0.07814
 96 Cr   -0.01711    0.03515   -0.14092
 97 Cr   -0.59962   -0.47708    0.47746
 98 Al    0.10270    0.51507   -0.67239
 99 Fe   -0.07556   -0.16360    0.47625
100 Co    0.12556    0.08130   -0.08755
101 Fe   -0.00283    0.01292    0.26399
102 Ni    0.06046   -0.01089   -0.22478
103 Cr    0.66772   -0.62332    0.54152
104 Ni    0.14216    0.22953    0.15020
105 Co    0.03049    0.02382   -0.22268
106 Co    0.17740    0.13037   -0.07059
107 Cr   -0.53600    0.27254    0.01301
108 Fe   -0.15344    0.06027    0.06392
109 Ni    0.19773    0.17911    0.21611
110 Co   -0.21459   -0.28796   -0.06173
111 Cr   -0.58167   -0.35512   -0.20321
112 Co   -0.05902    0.03288   -0.17288
113 Fe   -0.23959    0.27556    0.42628
114 Al    0.07926   -0.51072    0.27532
115 Fe    0.12718   -0.07566   -0.05650
116 Cr    0.88422   -0.09957   -0.09608
117 Ni    0.07551    0.28897    0.25472
118 Co   -0.00207   -0.02978    0.12111
119 Cr   -0.27076    0.52085    0.24070
120 Cr   -0.08467    0.47663    0.14887
121 Ni    0.15908    0.02212    0.38065
122 Co   -0.11477   -0.26425   -0.50202
123 Cr   -0.53684    0.06956    0.50815
124 Co    0.36480    0.01434   -0.17124

Timing:                              incl.     excl.
-----------------------------------------------------------
Forces:                             36.595    36.595   0.2% |
Hamiltonian:                         1.313     0.010   0.0% |
 Atomic:                             0.392     0.001   0.0% |
  XC Correction:                     0.391     0.391   0.0% |
 Calculate atomic Hamiltonians:      0.434     0.434   0.0% |
 Communicate:                        0.085     0.085   0.0% |
 Initialize Hamiltonian:             0.000     0.000   0.0% |
 Poisson:                            0.083     0.083   0.0% |
 XC 3D grid:                         0.309     0.309   0.0% |
LCAO initialization:               267.629     0.542   0.0% |
 LCAO eigensolver:                  13.942     0.014   0.0% |
  Calculate projections:             0.000     0.000   0.0% |
  DenseAtomicCorrection:             0.000     0.000   0.0% |
  Distribute overlap matrix:         8.827     8.827   0.1% |
  Orbital Layouts:                   5.071     5.071   0.0% |
  Potential matrix:                  0.003     0.003   0.0% |
  Sum over cells:                    0.027     0.027   0.0% |
 LCAO to grid:                     250.822   250.822   1.6% ||
 Set positions (LCAO WFS):           2.324     2.027   0.0% |
  Basic WFS set positions:           0.004     0.004   0.0% |
  Basis functions set positions:     0.001     0.001   0.0% |
  P tci:                             0.000     0.000   0.0% |
  ST tci:                            0.116     0.116   0.0% |
  mktci:                             0.176     0.176   0.0% |
PWDescriptor:                        0.090     0.090   0.0% |
SCF-cycle:                       15687.420     0.804   0.0% |
 Davidson:                       15357.022  4894.197  30.6% |-----------|
  Apply H:                         265.103   260.763   1.6% ||
   HMM T:                            4.340     4.340   0.0% |
  Subspace diag:                  1675.042     0.033   0.0% |
   calc_h_matrix:                  667.252   441.835   2.8% ||
    Apply H:                       225.417   220.934   1.4% ||
     HMM T:                          4.483     4.483   0.0% |
   diagonalize:                    158.845   158.845   1.0% |
   rotate_psi:                     848.913   848.913   5.3% |-|
  calc. matrices:                 3955.128  3537.519  22.1% |--------|
   Apply H:                        417.609   408.996   2.6% ||
    HMM T:                           8.613     8.613   0.1% |
  diagonalize:                    2760.179  2760.179  17.3% |------|
  rotate_psi:                     1807.373  1807.373  11.3% |----|
 Density:                          176.560     0.003   0.0% |
  Atomic density matrices:           2.520     2.520   0.0% |
  Mix:                              60.789    60.789   0.4% |
  Multipole moments:                 0.074     0.074   0.0% |
  Pseudo density:                  113.174   113.170   0.7% |
   Symmetrize density:               0.004     0.004   0.0% |
 Hamiltonian:                      134.813     1.033   0.0% |
  Atomic:                           41.315     0.133   0.0% |
   XC Correction:                   41.181    41.181   0.3% |
  Calculate atomic Hamiltonians:    46.895    46.895   0.3% |
  Communicate:                       9.706     9.706   0.1% |
  Poisson:                           3.607     3.607   0.0% |
  XC 3D grid:                       32.258    32.258   0.2% |
 Orthonormalize:                    18.221     0.001   0.0% |
  calc_s_matrix:                     2.256     2.256   0.0% |
  inverse-cholesky:                  0.908     0.908   0.0% |
  projections:                      11.075    11.075   0.1% |
  rotate_psi_s:                      3.981     3.981   0.0% |
Set symmetry:                        0.001     0.001   0.0% |
Other:                               6.883     6.883   0.0% |
-----------------------------------------------------------
Total:                                     15999.932 100.0%

Date: Mon Apr 17 09:05:16 2023
