
  ___ ___ ___ _ _ _  
 |   |   |_  | | | | 
 | | | | | . | | | | 
 |__ |  _|___|_____|  22.8.0
 |___|_|             

User:   c.zeng@d0068
Date:   Wed Apr 19 20:30:01 2023
Arch:   x86_64
Pid:    195348
CWD:    /home/c.zeng/projects/hea-corrosion/hea-mlp/data-curation/surface-mcmc/dft-jobs/231
Python: 3.8.1
gpaw:   /home/c.zeng/usr/installs/gpaw/source/gpaw-22.8.0/gpaw
_gpaw:  /home/c.zeng/usr/installs/gpaw/source/gpaw-22.8.0/
        _gpaw.cpython-38-x86_64-linux-gnu.so
ase:    /home/c.zeng/.local/lib/python3.8/site-packages/ase-3.22.1-py3.8.egg/ase (version 3.22.1)
numpy:  /home/c.zeng/.local/lib/python3.8/site-packages/numpy (version 1.24.2)
scipy:  /home/c.zeng/.local/lib/python3.8/site-packages/scipy (version 1.10.1)
libxc:  4.2.3
units:  Angstrom and eV
cores: 30
OpenMP: False
OMP_NUM_THREADS: 1

Input parameters:
  convergence: {energy: 0.0001}
  kpts: [2 2 1]
  maxiter: 666
  mode: {ecut: 350.0,
         name: pw}
  occupations: {fixmagmom: False,
                name: fermi-dirac,
                width: 0.1}
  poissonsolver: {dipolelayer: xy}
  spinpol: True
  symmetry: {point_group: False}
  xc: PBE

System changes: positions, numbers, cell, pbc, initial_charges, initial_magmoms 

Initialize ...

species:
  Co:
    name: Cobalt
    id: 339d20d5b0b93d2de9531a1bee871d91
    Z: 27.0
    valence: 9
    core: 18
    charge: 0.0
    file: /home/c.zeng/usr/data/gpaw-setups-0.9.20000/Co.PBE.gz
    compensation charges: {type: gauss,
                           rc: 0.32,
                           lmax: 2}
    cutoffs: {filter: 1.87,
              core: 2.55}
    valence states:
      #              energy  rcut
      - 4s(2.00)    -5.469   1.005
      - 4p(0.00)    -1.277   1.058
      - 3d(7.00)    -8.205   1.005
      -  s          21.742   1.005
      -  p          25.934   1.058
      -  d          19.007   1.005
  
    # Using partial waves for Co as LCAO basis

  Al:
    name: Aluminium
    id: 0292cae29f5d6237e50f6abdd43a7bdd
    Z: 13.0
    valence: 3
    core: 10
    charge: 0.0
    file: /home/c.zeng/usr/data/gpaw-setups-0.9.20000/Al.PBE.gz
    compensation charges: {type: gauss,
                           rc: 0.34,
                           lmax: 2}
    cutoffs: {filter: 1.91,
              core: 2.36}
    valence states:
      #              energy  rcut
      - 3s(2.00)    -7.753   1.085
      - 3p(1.00)    -2.712   1.085
      -  s          19.459   1.085
      -  p          24.499   1.085
      -  d           0.000   1.085
  
    # Using partial waves for Al as LCAO basis

  Cr:
    name: Chromium
    id: 33f258bda2ca9f93018e70263a35547b
    Z: 24.0
    valence: 6
    core: 18
    charge: 0.0
    file: /home/c.zeng/usr/data/gpaw-setups-0.9.20000/Cr.PBE.gz
    compensation charges: {type: gauss,
                           rc: 0.35,
                           lmax: 2}
    cutoffs: {filter: 2.14,
              core: 3.04}
    valence states:
      #              energy  rcut
      - 4s(1.00)    -4.007   1.164
      - 4p(0.00)    -0.989   1.217
      - 3d(5.00)    -2.913   1.111
      -  s          23.205   1.164
      -  p          26.223   1.217
      -  d          24.299   1.111
  
    # Using partial waves for Cr as LCAO basis

  Ni:
    name: Nickel
    id: 0d9f38a9d6e76a2886f07bb4381f212b
    Z: 28.0
    valence: 16
    core: 12
    charge: 0.0
    file: /home/c.zeng/usr/data/gpaw-setups-0.9.20000/Ni.PBE.gz
    compensation charges: {type: gauss,
                           rc: 0.36,
                           lmax: 2}
    cutoffs: {filter: 2.14,
              core: 1.98}
    valence states:
      #              energy  rcut
      - 4s(2.00)    -5.642   1.164
      - 3p(6.00)   -71.394   1.207
      - 4p(0.00)    -1.226   1.207
      - 3d(8.00)    -8.875   1.138
      -  s          21.570   1.164
      -  d          18.337   1.138
  
    # Using partial waves for Ni as LCAO basis

  Fe:
    name: Iron
    id: 37abbd8d6c3c35915a9b583b742da910
    Z: 26.0
    valence: 8
    core: 18
    charge: 0.0
    file: /home/c.zeng/usr/data/gpaw-setups-0.9.20000/Fe.PBE.gz
    compensation charges: {type: gauss,
                           rc: 0.33,
                           lmax: 2}
    cutoffs: {filter: 2.06,
              core: 2.67}
    valence states:
      #              energy  rcut
      - 4s(2.00)    -5.291   1.164
      - 4p(0.00)    -1.326   1.058
      - 3d(6.00)    -7.505   1.058
      -  s          21.920   1.164
      -  p          25.885   1.058
      -  d          19.706   1.058
  
    # Using partial waves for Fe as LCAO basis

Reference energy: -3726899.091688  # eV

Spin-polarized calculation.
Magnetic moment: 140.000000

Convergence criteria:
 Maximum [total energy] change in last 3 cyles: 0.0001 eV / electron
 Maximum integral of absolute [dens]ity change: 0.0001 electrons / valence electron
 Maximum integral of absolute [eigenst]ate change: 4e-08 eV^2 / valence electron
 Maximum number of scf [iter]ations: 666
 (Square brackets indicate name in SCF output, whereas a 'c' in
 the SCF output indicates the quantity has converged.)

Symmetries present (total): 1

  ( 1  0  0)
  ( 0  1  0)
  ( 0  0  1)

4 k-points: 2 x 2 x 1 Monkhorst-Pack grid
2 k-points in the irreducible part of the Brillouin zone
       k-points in crystal coordinates                weights
   0:     0.25000000   -0.25000000    0.00000000          2/4
   1:     0.25000000    0.25000000    0.00000000          2/4

Wave functions: Plane wave expansion
  Cutoff energy: 350.000 eV
  Number of coefficients (min, max): 60935, 60955
  Pulay-stress correction: 0.000000 eV/Ang^3 (de/decut=0.000000)
  Using FFTW library
  ScaLapack parameters: grid=1x1, blocksize=None
  Wavefunction extrapolation:
    Improved wavefunction reuse through dual PAW basis 

Occupation numbers: Fermi-Dirac:
  width: 0.1000  # eV
 

Eigensolver
   Davidson(niter=2) 

Densities:
  Coarse grid: 56*56*128 grid
  Fine grid: 112*112*256 grid
  Total Charge: 0.000000 

Density mixing:
  Method: difference
  Backend: pulay
  Linear mixing parameter: 0.05
  old densities: 5
  Damping of long wavelength oscillations: 50 

Hamiltonian:
  XC and Coulomb potentials evaluated on a 112*112*256 grid
  Using the PBE Exchange-Correlation functional
  External potential:
    NoExternalPotential
 

XC parameters: PBE with 2 nearest neighbor stencil

Memory estimate:
  Process memory now: 378.66 MiB
  Calculator: 2131.41 MiB
    Density: 19.02 MiB
      Arrays: 7.39 MiB
      Localized functions: 8.68 MiB
      Mixer: 2.95 MiB
    Hamiltonian: 5.75 MiB
      Arrays: 5.49 MiB
      XC: 0.00 MiB
      Poisson: 0.00 MiB
      vbar: 0.26 MiB
    Wavefunctions: 2106.64 MiB
      Arrays psit_nG: 1335.62 MiB
      Eigensolver: 751.15 MiB
      Projections: 3.10 MiB
      Projectors: 1.18 MiB
      PW-descriptor: 15.59 MiB

Total number of cores used: 30
Parallelization over k-points: 2
Domain decomposition: 1 x 3 x 5

Number of atoms: 125
Number of atomic orbitals: 1075
Number of bands in calculation: 718
Number of valence electrons: 1050
Bands to converge: occupied

... initialized

Initializing position-dependent things.

Density initialized from atomic densities
Creating initial wave functions:
  718 bands from LCAO basis set

                                                                  
                                                                  
                                                                  
                                                                  
                          Fe    Al           Cr    Fe             
                                  Cr                              
                      Cr    Ni          Cr    Cr                  
                       Al    NAl   CFe   AAl    Fe    Al          
                   Al   NCr   CrAl   CNi   NFe   Ni               
        Al                 Fe    Co                               
               Ni   CCo  NNi   CCr    NCr   FAl   Cr              
                Fe   AAl   CCr   CFe     Cr   Ni                  
           Ni    Co     Al    AlCo  Ni  Cr               Co       
                 Ni   CFe   FAl   ACo   CFe    Co                 
            Co   CFe    Fe    CCo   NAl                           
        Ni    Al    Ni    Cr Fe Co Ni    CCr    Co    Al          
             Al    Ni   FNi    Cr    FFe   Fe    Fe               
               Fe   AAl   CAl   FFe    Ni    Co                   
                 Fe          Ni        Cr                         
                Cr    CNi   Co    Al    Co                        
           Al    Cr     Cr    Ni    Co                            
                                                                  
                                                                  
                                                                  
                                                                  
                                                                  

Positions:
   0 Co    12.697578    1.490688   10.582791    ( 0.0000,  0.0000,  2.1000)
   1 Al     2.542164    1.500437   10.627261    ( 0.0000,  0.0000,  2.0000)
   2 Cr     5.051596    1.499469   10.598054    ( 0.0000,  0.0000,  2.1000)
   3 Cr     7.634905    1.492702   10.546246    ( 0.0000,  0.0000,  2.0000)
   4 Ni    10.187798    1.493538   10.639090    ( 0.0000,  0.0000,  2.1000)
   5 Co    13.968644    3.696637   10.562654    ( 0.0000,  0.0000,  2.0000)
   6 Cr     3.815030    3.662669   10.568965    ( 0.0000,  0.0000,  2.1000)
   7 Cr     6.371550    3.676864   10.379256    ( 0.0000,  0.0000,  0.0000)
   8 Co     8.929883    3.680660   10.627114    ( 0.0000,  0.0000,  2.1000)
   9 Al    11.419281    3.649344   10.658345    ( 0.0000,  0.0000,  2.1000)
  10 Co    15.274513    5.897370   10.548477    ( 0.0000,  0.0000,  2.0000)
  11 Al     5.059810    5.865944   10.632192    ( 0.0000,  0.0000,  2.0000)
  12 Co     7.645770    5.857944   10.631253    ( 0.0000,  0.0000,  2.1000)
  13 Fe    10.112359    5.849582   10.633748    ( 0.0000,  0.0000,  2.1000)
  14 Cr    12.664006    5.872612   10.350226    ( 0.0000,  0.0000,  0.0000)
  15 Fe    16.518089    8.029617   10.573985    ( 0.0000,  0.0000,  2.0000)
  16 Fe     6.372474    8.042931   10.433618    ( 0.0000,  0.0000,  0.0000)
  17 Co     8.899359    8.058149   10.655528    ( 0.0000,  0.0000,  2.1000)
  18 Fe    11.347730    8.053396   10.581235    ( 0.0000,  0.0000,  0.0000)
  19 Fe    13.974474    8.072476   10.508234    ( 0.0000,  0.0000,  1.5000)
  20 Al    17.786763   10.267487   10.540522    ( 0.0000,  0.0000,  1.5000)
  21 Fe     7.620185   10.288537   10.551618    ( 0.0000,  0.0000,  1.5000)
  22 Ni    10.097013   10.262150   10.527196    ( 0.0000,  0.0000,  0.0000)
  23 Co    12.628341   10.288140   10.200907    ( 0.0000,  0.0000,  0.0000)
  24 Co    15.305799   10.302687   10.215701    ( 0.0000,  0.0000,  0.0000)
  25 Co    18.929799   10.964438   12.614348    ( 0.0000,  0.0000,  0.0000)
  26 Co     8.907314   10.932825   12.633339    ( 0.0000,  0.0000,  0.0000)
  27 Fe     5.161938    0.027744   12.591364    ( 0.0000,  0.0000,  0.0000)
  28 Ni     7.639849   -0.017272   12.455019    ( 0.0000,  0.0000,  2.0000)
  29 Ni    10.112151   -0.034156   12.574340    ( 0.0000,  0.0000,  0.0000)
  30 Ni    13.898459    2.274577   12.629494    ( 0.0000,  0.0000,  0.0000)
  31 Fe     3.834283    2.207500   12.641705    ( 0.0000,  0.0000,  1.5000)
  32 Al     6.373751    2.258204   12.578625    ( 0.0000,  0.0000,  1.5000)
  33 Al     8.903971    2.228935   12.670354    ( 0.0000,  0.0000,  0.0000)
  34 Fe    11.398903    2.240324   12.667418    ( 0.0000,  0.0000,  2.1000)
  35 Al     2.693918    4.433332   12.569320    ( 0.0000,  0.0000,  0.0000)
  36 Ni     5.180997    4.392564   12.579271    ( 0.0000,  0.0000,  2.0000)
  37 Ni     7.640404    4.433761   12.623682    ( 0.0000,  0.0000,  1.5000)
  38 Cr    10.149737    4.418753   12.659728    ( 0.0000,  0.0000,  2.1000)
  39 Fe    12.642941    4.469149   12.588547    ( 0.0000,  0.0000,  0.0000)
  40 Co     3.879740    6.581821   12.636392    ( 0.0000,  0.0000,  2.0000)
  41 Ni     6.395207    6.593022   12.619455    ( 0.0000,  0.0000,  0.0000)
  42 Cr     8.882544    6.578464   12.632987    ( 0.0000,  0.0000,  2.0000)
  43 Ni    11.378039    6.588192   12.568968    ( 0.0000,  0.0000,  1.5000)
  44 Cr    13.955999    6.597324   12.503922    ( 0.0000,  0.0000,  0.0000)
  45 Co     5.115939    8.711196   12.577128    ( 0.0000,  0.0000,  2.0000)
  46 Fe     7.617963    8.744371   12.628555    ( 0.0000,  0.0000,  1.5000)
  47 Al    10.162962    8.726392   12.644406    ( 0.0000,  0.0000,  1.5000)
  48 Cr    12.676321    8.832597   12.504509    ( 0.0000,  0.0000,  1.5000)
  49 Co    15.240247    8.741951   12.606188    ( 0.0000,  0.0000,  0.0000)
  50 Ni     1.269616    0.713733   14.695512    ( 0.0000,  0.0000,  2.1000)
  51 Al     3.799097    0.728240   14.717292    ( 0.0000,  0.0000,  0.0000)
  52 Ni     6.399959    0.810401   14.610329    ( 0.0000,  0.0000,  2.1000)
  53 Cr     8.880072    0.764388   14.691902    ( 0.0000,  0.0000,  1.5000)
  54 Co    11.370392    0.737436   14.704406    ( 0.0000,  0.0000,  1.5000)
  55 Co     2.596190    2.870472   14.732086    ( 0.0000,  0.0000,  0.0000)
  56 Fe     5.091424    2.954792   14.649428    ( 0.0000,  0.0000,  0.0000)
  57 Fe     7.608212    2.991224   14.707811    ( 0.0000,  0.0000,  2.1000)
  58 Co    10.154418    2.949686   14.778640    ( 0.0000,  0.0000,  2.1000)
  59 Al    12.643335    2.944834   14.730413    ( 0.0000,  0.0000,  0.0000)
  60 Ni     3.883223    5.134376   14.743182    ( 0.0000,  0.0000,  0.0000)
  61 Fe     6.365651    5.154303   14.674026    ( 0.0000,  0.0000,  2.1000)
  62 Al     8.874207    5.127400   14.687176    ( 0.0000,  0.0000,  2.1000)
  63 Co    11.381160    5.128401   14.701764    ( 0.0000,  0.0000,  1.5000)
  64 Fe    13.994437    5.150045   14.709073    ( 0.0000,  0.0000,  0.0000)
  65 Al     5.105303    7.314819   14.691491    ( 0.0000,  0.0000,  0.0000)
  66 Co     7.621049    7.313641   14.679104    ( 0.0000,  0.0000,  2.0000)
  67 Co    10.101824    7.296971   14.657206    ( 0.0000,  0.0000,  0.0000)
  68 Cr    12.701036    7.418890   14.544344    ( 0.0000,  0.0000,  0.0000)
  69 Ni    15.272539    7.347367   14.706285    ( 0.0000,  0.0000,  2.0000)
  70 Ni     6.372338    9.509071   14.708838    ( 0.0000,  0.0000,  0.0000)
  71 Co     8.874214    9.489484   14.713828    ( 0.0000,  0.0000,  1.5000)
  72 Ni    11.385336    9.581859   14.631493    ( 0.0000,  0.0000,  2.1000)
  73 Fe    13.954574    9.609885   14.606455    ( 0.0000,  0.0000,  2.1000)
  74 Cr    16.558825    9.502579   14.642677    ( 0.0000,  0.0000,  0.0000)
  75 Ni    12.678535    1.403816   16.741746    ( 0.0000,  0.0000,  0.0000)
  76 Ni     2.534863    1.419242   16.733997    ( 0.0000,  0.0000,  2.1000)
  77 Co     5.032024    1.508844   16.664371    ( 0.0000,  0.0000,  1.5000)
  78 Al     7.624501    1.526769   16.714506    ( 0.0000,  0.0000,  2.0000)
  79 Al    10.140089    1.502748   16.858366    ( 0.0000,  0.0000,  2.0000)
  80 Cr    14.024748    3.670735   16.858777    ( 0.0000,  0.0000,  0.0000)
  81 Cr     3.842392    3.667775   16.756276    ( 0.0000,  0.0000,  0.0000)
  82 Al     6.334927    3.681056   16.705378    ( 0.0000,  0.0000,  0.0000)
  83 Cr     8.882482    3.670933   16.761471    ( 0.0000,  0.0000,  2.1000)
  84 Fe    11.419526    3.695856   16.803945    ( 0.0000,  0.0000,  2.0000)
  85 Al    15.257368    5.911564   16.801303    ( 0.0000,  0.0000,  1.5000)
  86 Cr     5.087177    5.870422   16.771246    ( 0.0000,  0.0000,  0.0000)
  87 Ni     7.609371    5.857537   16.712716    ( 0.0000,  0.0000,  2.0000)
  88 Cr    10.109019    5.830149   16.764730    ( 0.0000,  0.0000,  1.5000)
  89 Cr    12.675452    5.872392   16.756129    ( 0.0000,  0.0000,  2.1000)
  90 Ni    16.524277    8.015940   16.738312    ( 0.0000,  0.0000,  2.1000)
  91 Ni     6.365933    8.035031   16.712716    ( 0.0000,  0.0000,  2.1000)
  92 Cr     8.835843    8.056003   16.741658    ( 0.0000,  0.0000,  2.0000)
  93 Co    11.351160    8.059051   16.752372    ( 0.0000,  0.0000,  0.0000)
  94 Ni    13.956058    8.042161   16.704057    ( 0.0000,  0.0000,  1.5000)
  95 Al    17.805404   10.218279   16.745210    ( 0.0000,  0.0000,  0.0000)
  96 Ni     7.627525   10.221888   16.720318    ( 0.0000,  0.0000,  2.1000)
  97 Co    10.100033   10.295513   16.718880    ( 0.0000,  0.0000,  1.5000)
  98 Al    12.667792   10.363481   16.695163    ( 0.0000,  0.0000,  0.0000)
  99 Fe    15.313358   10.247516   16.718322    ( 0.0000,  0.0000,  0.0000)
 100 Fe     6.385878   10.951211   18.797109    ( 0.0000,  0.0000,  0.0000)
 101 Al     8.871549   10.998570   18.734029    ( 0.0000,  0.0000,  0.0000)
 102 Fe     5.012222    0.026603   18.714245    ( 0.0000,  0.0000,  2.0000)
 103 Cr    13.906085   10.955272   18.815278    ( 0.0000,  0.0000,  0.0000)
 104 Fe    16.555065   10.890208   19.190793    ( 0.0000,  0.0000,  0.0000)
 105 Al     1.301962    2.175788   18.880296    ( 0.0000,  0.0000,  0.0000)
 106 Ni     3.763381    2.154408   18.701741    ( 0.0000,  0.0000,  2.0000)
 107 Co     6.282513    2.143955   18.673151    ( 0.0000,  0.0000,  1.5000)
 108 Fe     8.786510    2.178935   18.943933    ( 0.0000,  0.0000,  0.0000)
 109 Co    11.486117    2.202240   18.868055    ( 0.0000,  0.0000,  0.0000)
 110 Fe    15.251278    4.387183   18.855257    ( 0.0000,  0.0000,  1.5000)
 111 Al     5.107352    4.303073   18.990839    ( 0.0000,  0.0000,  0.0000)
 112 Cr     7.597350    4.408838   18.714597    ( 0.0000,  0.0000,  2.0000)
 113 Al    10.211555    4.416706   18.931135    ( 0.0000,  0.0000,  0.0000)
 114 Ni    12.733768    4.452313   18.836295    ( 0.0000,  0.0000,  1.5000)
 115 Fe    16.467351    6.659351   18.958316    ( 0.0000,  0.0000,  0.0000)
 116 Al     6.329237    6.609791   18.727483    ( 0.0000,  0.0000,  1.5000)
 117 Al     8.815790    6.680885   18.889219    ( 0.0000,  0.0000,  0.0000)
 118 Fe    11.427553    6.639820   18.779556    ( 0.0000,  0.0000,  2.0000)
 119 Al    13.906938    6.631006   18.740193    ( 0.0000,  0.0000,  0.0000)
 120 Cr     5.095653    8.774950   18.707200    ( 0.0000,  0.0000,  2.0000)
 121 Ni     7.571098    8.829550   18.729127    ( 0.0000,  0.0000,  1.5000)
 122 Cr    10.146396    8.866884   18.778117    ( 0.0000,  0.0000,  1.5000)
 123 Cr    12.685104    8.811284   18.742072    ( 0.0000,  0.0000,  2.0000)
 124 Cr    15.188299    8.776017   18.730565    ( 0.0000,  0.0000,  2.0000)

Unit cell:
           periodic     x           y           z      points  spacing
  1. axis:    yes   12.688900    0.000000    0.000000    56     0.1962
  2. axis:    yes    6.352870   11.003500    0.000000    56     0.1965
  3. axis:    no     0.000000    0.000000   29.353100   128     0.2293

  Lengths:  12.688900  12.705746  29.353100
  Angles:   90.000000  90.000000  60.000014

Effective grid spacing dv^(1/3) = 0.2169

     iter     time        total  log10-change:  magmom
                         energy  eigst   dens
iter:   1 20:35:38 -1041.453290                  +139.3097
iter:   2 20:37:29 -3357.643558  +1.25  -1.10    +95.8486
iter:   3 20:39:21 -1009.616514  +0.75  -0.55    +65.8877
iter:   4 20:41:13  -964.458363  +0.49  -1.09    +46.3489
iter:   5 20:43:05  -939.349525  -0.11  -1.18    +41.3818
iter:   6 20:44:56  -919.417369  -0.82  -1.23    +39.9001
iter:   7 20:46:48  -929.677106  -1.17  -1.28    +40.0188
iter:   8 20:48:39 -1228.729431  -0.66  -1.24    +40.5366
iter:   9 20:50:31  -927.700462  -0.90  -0.97    +37.6736
iter:  10 20:52:22  -910.698505  -1.62  -1.27    +37.3959
iter:  11 20:54:14  -902.125092  -1.38  -1.35    +39.2277
iter:  12 20:56:06  -924.152597  -1.65  -1.43    +39.5936
iter:  13 20:57:58  -902.606451  -1.58  -1.32    +41.5342
iter:  14 20:59:49  -897.659743  -1.61  -1.48    +40.8766
iter:  15 21:01:41  -892.565312  -1.82  -1.58    +39.8943
iter:  16 21:03:33  -891.205489  -2.18  -1.61    +40.7397
iter:  17 21:05:25  -919.125531  -1.82  -1.66    +41.8641
iter:  18 21:07:16  -892.711071  -1.97  -1.39    +40.9885
iter:  19 21:09:08  -892.641808  -2.00  -1.69    +41.4006
iter:  20 21:11:00  -893.963523  -2.16  -1.73    +43.5436
iter:  21 21:12:52  -891.714948  -2.50  -1.70    +43.2381
iter:  22 21:14:43  -889.289502  -2.57  -1.79    +43.2604
iter:  23 21:16:35  -889.424077  -3.05  -1.86    +43.4704
iter:  24 21:18:27  -890.894097  -2.70  -1.89    +45.1334
iter:  25 21:20:18  -900.344532  -2.40  -1.90    +44.6910
iter:  26 21:22:19  -894.442221  -2.25  -1.62    +44.8991
iter:  27 21:24:56  -891.483413  -2.53  -1.84    +43.7527
iter:  28 21:27:35  -891.713551  -2.60  -2.01    +44.8630
iter:  29 21:30:14  -892.442506  -2.63  -2.07    +44.9654
iter:  30 21:32:53  -892.839828  -2.89  -2.03    +45.7022
iter:  31 21:35:32  -893.167767  -2.72  -2.02    +45.1881
iter:  32 21:38:11  -892.191891  -3.34  -2.01    +46.2364
iter:  33 21:40:51  -892.755696  -3.12  -2.20    +47.4617
iter:  34 21:43:31  -893.036712  -3.09  -2.22    +48.8043
iter:  35 21:46:10  -893.516805  -2.99  -2.25    +49.7941
iter:  36 21:48:50  -893.543630  -3.27  -2.23    +50.0919
iter:  37 21:51:30  -901.785580  -2.45  -2.28    +50.7065
iter:  38 21:54:09  -893.468858  -2.84  -1.72    +50.2259
iter:  39 21:56:47  -893.713604  -3.23  -2.41    +50.3334
iter:  40 21:59:27  -893.969795  -3.21  -2.46    +50.3027
iter:  41 22:02:07  -893.792360  -3.38  -2.36    +50.5535
iter:  42 22:04:46  -893.758802  -3.67  -2.48    +50.5281
iter:  43 22:07:26  -893.797312c -3.71  -2.57    +50.3993
iter:  44 22:10:06  -894.211203  -3.61  -2.73    +50.1120
iter:  45 22:12:46  -893.919370  -3.76  -2.39    +50.3816
iter:  46 22:15:25  -893.933301  -4.10  -2.67    +50.3035
iter:  47 22:18:05  -893.984310c -3.90  -2.74    +49.8482
iter:  48 22:20:44  -894.047057  -3.96  -2.76    +49.5946
iter:  49 22:23:23  -894.093888  -4.30  -2.70    +49.6037
iter:  50 22:26:02  -894.280106  -3.73  -2.65    +49.3905
iter:  51 22:28:42  -894.153822  -4.03  -2.47    +49.6103
iter:  52 22:31:21  -894.218478  -4.03  -2.66    +49.5418
iter:  53 22:34:00  -894.146055c -3.83  -2.60    +49.0514
iter:  54 22:36:39  -894.237448c -4.09  -2.65    +48.5778
iter:  55 22:39:19  -894.171625c -4.43  -2.55    +48.4392
iter:  56 22:41:58  -895.975275  -3.07  -2.67    +48.0975
iter:  57 22:44:38  -894.200057  -3.35  -2.06    +48.2762
iter:  58 22:47:19  -894.158454  -3.99  -2.67    +48.2675
iter:  59 22:50:00  -894.150346c -4.22  -2.82    +48.0877
iter:  60 22:52:41  -894.151012c -4.42  -2.90    +48.1168
iter:  61 22:55:22  -894.172292c -4.37  -2.96    +48.2065
iter:  62 22:58:02  -894.172643c -4.46  -2.87    +48.1695
iter:  63 23:00:43  -894.180790c -4.60  -2.94    +48.2602
iter:  64 23:03:24  -894.168355c -4.82  -2.90    +48.2251
iter:  65 23:06:04  -894.174621c -4.83  -3.06    +48.2443
iter:  66 23:08:44  -894.178817c -5.01  -3.09    +48.3077
iter:  67 23:11:23  -894.185183c -4.81  -3.08    +48.2996
iter:  68 23:14:02  -894.192147c -4.87  -3.13    +48.3646
iter:  69 23:16:42  -894.232896c -4.50  -3.04    +48.3675
iter:  70 23:19:23  -894.193902c -4.84  -2.84    +48.3971
iter:  71 23:22:03  -894.197841c -4.80  -3.24    +48.4028
iter:  72 23:24:44  -894.201415c -4.87  -3.20    +48.4214
iter:  73 23:27:24  -894.199064c -5.11  -3.18    +48.4837
iter:  74 23:30:05  -894.206635c -5.17  -3.33    +48.5518
iter:  75 23:32:46  -894.203828c -5.74  -3.22    +48.5947
iter:  76 23:35:27  -894.208069c -5.37  -3.32    +48.6373
iter:  77 23:38:07  -894.212063c -5.13  -3.32    +48.6450
iter:  78 23:40:47  -894.214125c -5.32  -3.31    +48.6771
iter:  79 23:43:28  -894.214722c -5.17  -3.30    +48.7214
iter:  80 23:46:08  -894.215612c -5.54  -3.29    +48.7668
iter:  81 23:48:49  -894.218148c -5.47  -3.35    +48.8233
iter:  82 23:51:29  -894.215841c -5.74  -3.25    +48.8037
iter:  83 23:54:10  -894.218249c -5.62  -3.39    +48.8444
iter:  84 23:56:50  -894.219696c -5.52  -3.39    +48.8748
iter:  85 23:59:31  -894.224746c -5.02  -3.41    +48.8517
iter:  86 00:02:09  -894.221381c -5.06  -3.32    +48.8553
iter:  87 00:04:50  -894.244804c -4.91  -3.32    +48.8821
iter:  88 00:07:31  -894.221825c -5.17  -2.99    +48.9498
iter:  89 00:10:11  -894.220670c -5.51  -3.51    +48.9586
iter:  90 00:12:52  -894.220266c -6.12  -3.56    +48.9309
iter:  91 00:15:33  -894.221104c -6.20  -3.65    +48.9470
iter:  92 00:18:13  -894.222597c -5.73  -3.66    +48.9662
iter:  93 00:20:53  -894.230906c -5.48  -3.66    +48.9674
iter:  94 00:23:34  -894.224351c -5.44  -3.23    +48.9887
iter:  95 00:26:15  -894.222832c -5.83  -3.54    +48.9962
iter:  96 00:28:54  -894.224033c -6.02  -4.05c   +49.0105
iter:  97 00:31:33  -894.223666c -6.48  -4.01c   +49.0190
iter:  98 00:34:14  -894.224070c -6.47  -4.15c   +49.0300
iter:  99 00:36:55  -894.224312c -6.78  -4.24c   +49.0289
iter: 100 00:39:36  -894.224842c -6.55  -4.19c   +49.0215
iter: 101 00:42:19  -894.224946c -6.88  -4.13c   +49.0251
iter: 102 00:45:00  -894.225542c -6.43  -4.23c   +49.0298
iter: 103 00:47:41  -894.224470c -6.33  -4.20c   +49.0300
iter: 104 00:50:22  -894.225327c -6.67  -4.20c   +49.0344
iter: 105 00:53:04  -894.225139c -7.47c -4.17c   +49.0345

Converged after 105 iterations.

Dipole moment: (62.445239, 50.450927, 0.036711) |e|*Ang

Total magnetic moment: (0.000000, 0.000000, 49.034539)
Local magnetic moments:
   0 Co ( 0.000000,  0.000000,  1.492250)
   1 Al ( 0.000000,  0.000000, -0.037683)
   2 Cr ( 0.000000,  0.000000, -2.265499)
   3 Cr ( 0.000000,  0.000000,  2.418557)
   4 Ni ( 0.000000,  0.000000,  0.429768)
   5 Co ( 0.000000,  0.000000,  1.143425)
   6 Cr ( 0.000000,  0.000000,  2.095031)
   7 Cr ( 0.000000,  0.000000, -2.655125)
   8 Co ( 0.000000,  0.000000,  0.922104)
   9 Al ( 0.000000,  0.000000, -0.040065)
  10 Co ( 0.000000,  0.000000,  1.094728)
  11 Al ( 0.000000,  0.000000, -0.019769)
  12 Co ( 0.000000,  0.000000,  1.096227)
  13 Fe ( 0.000000,  0.000000,  2.324501)
  14 Cr ( 0.000000,  0.000000, -2.847082)
  15 Fe ( 0.000000,  0.000000,  2.479890)
  16 Fe ( 0.000000,  0.000000, -2.534758)
  17 Co ( 0.000000,  0.000000,  1.164423)
  18 Fe ( 0.000000,  0.000000,  2.482830)
  19 Fe ( 0.000000,  0.000000,  2.548371)
  20 Al ( 0.000000,  0.000000, -0.035933)
  21 Fe ( 0.000000,  0.000000,  2.606892)
  22 Ni ( 0.000000,  0.000000,  0.353716)
  23 Co ( 0.000000,  0.000000,  1.661272)
  24 Co ( 0.000000,  0.000000,  1.696027)
  25 Co ( 0.000000,  0.000000,  1.648313)
  26 Co ( 0.000000,  0.000000,  1.393469)
  27 Fe ( 0.000000,  0.000000,  2.447618)
  28 Ni ( 0.000000,  0.000000,  0.337876)
  29 Ni ( 0.000000,  0.000000,  0.334572)
  30 Ni ( 0.000000,  0.000000,  0.391854)
  31 Fe ( 0.000000,  0.000000,  1.777942)
  32 Al ( 0.000000,  0.000000, -0.001651)
  33 Al ( 0.000000,  0.000000, -0.032143)
  34 Fe ( 0.000000,  0.000000,  2.269851)
  35 Al ( 0.000000,  0.000000, -0.043193)
  36 Ni ( 0.000000,  0.000000,  0.097224)
  37 Ni ( 0.000000,  0.000000,  0.206891)
  38 Cr ( 0.000000,  0.000000, -1.583308)
  39 Fe ( 0.000000,  0.000000,  1.987260)
  40 Co ( 0.000000,  0.000000,  1.201202)
  41 Ni ( 0.000000,  0.000000,  0.327343)
  42 Cr ( 0.000000,  0.000000,  0.921400)
  43 Ni ( 0.000000,  0.000000,  0.276872)
  44 Cr ( 0.000000,  0.000000,  1.025843)
  45 Co ( 0.000000,  0.000000,  1.134477)
  46 Fe ( 0.000000,  0.000000,  2.400416)
  47 Al ( 0.000000,  0.000000, -0.035578)
  48 Cr ( 0.000000,  0.000000, -1.707284)
  49 Co ( 0.000000,  0.000000,  1.436125)
  50 Ni ( 0.000000,  0.000000,  0.358038)
  51 Al ( 0.000000,  0.000000, -0.022487)
  52 Ni ( 0.000000,  0.000000,  0.212220)
  53 Cr ( 0.000000,  0.000000,  1.341687)
  54 Co ( 0.000000,  0.000000,  0.976843)
  55 Co ( 0.000000,  0.000000,  0.880094)
  56 Fe ( 0.000000,  0.000000, -1.889153)
  57 Fe ( 0.000000,  0.000000,  1.134569)
  58 Co ( 0.000000,  0.000000,  0.740530)
  59 Al ( 0.000000,  0.000000, -0.031746)
  60 Ni ( 0.000000,  0.000000,  0.111157)
  61 Fe ( 0.000000,  0.000000,  2.200376)
  62 Al ( 0.000000,  0.000000, -0.011587)
  63 Co ( 0.000000,  0.000000,  0.881959)
  64 Fe ( 0.000000,  0.000000,  2.265991)
  65 Al ( 0.000000,  0.000000, -0.015068)
  66 Co ( 0.000000,  0.000000,  1.073153)
  67 Co ( 0.000000,  0.000000,  0.829660)
  68 Cr ( 0.000000,  0.000000, -0.078216)
  69 Ni ( 0.000000,  0.000000,  0.128750)
  70 Ni ( 0.000000,  0.000000,  0.170390)
  71 Co ( 0.000000,  0.000000,  1.424338)
  72 Ni ( 0.000000,  0.000000,  0.299931)
  73 Fe ( 0.000000,  0.000000,  2.189917)
  74 Cr ( 0.000000,  0.000000, -1.857208)
  75 Ni ( 0.000000,  0.000000, -0.060151)
  76 Ni ( 0.000000,  0.000000,  0.098416)
  77 Co ( 0.000000,  0.000000, -0.705269)
  78 Al ( 0.000000,  0.000000,  0.023318)
  79 Al ( 0.000000,  0.000000,  0.014635)
  80 Cr ( 0.000000,  0.000000, -1.743022)
  81 Cr ( 0.000000,  0.000000,  1.461172)
  82 Al ( 0.000000,  0.000000, -0.011651)
  83 Cr ( 0.000000,  0.000000, -1.018652)
  84 Fe ( 0.000000,  0.000000,  1.695381)
  85 Al ( 0.000000,  0.000000, -0.004541)
  86 Cr ( 0.000000,  0.000000, -1.639811)
  87 Ni ( 0.000000,  0.000000,  0.152226)
  88 Cr ( 0.000000,  0.000000,  0.862604)
  89 Cr ( 0.000000,  0.000000,  0.717810)
  90 Ni ( 0.000000,  0.000000,  0.040901)
  91 Ni ( 0.000000,  0.000000,  0.131320)
  92 Cr ( 0.000000,  0.000000, -1.571004)
  93 Co ( 0.000000,  0.000000,  0.504753)
  94 Ni ( 0.000000,  0.000000,  0.134680)
  95 Al ( 0.000000,  0.000000,  0.021611)
  96 Ni ( 0.000000,  0.000000,  0.094835)
  97 Co ( 0.000000,  0.000000,  1.035506)
  98 Al ( 0.000000,  0.000000, -0.006505)
  99 Fe ( 0.000000,  0.000000, -1.689478)
 100 Fe ( 0.000000,  0.000000, -2.384222)
 101 Al ( 0.000000,  0.000000, -0.007838)
 102 Fe ( 0.000000,  0.000000,  2.076726)
 103 Cr ( 0.000000,  0.000000, -2.058471)
 104 Fe ( 0.000000,  0.000000, -2.683338)
 105 Al ( 0.000000,  0.000000,  0.017175)
 106 Ni ( 0.000000,  0.000000,  0.097966)
 107 Co ( 0.000000,  0.000000, -0.344634)
 108 Fe ( 0.000000,  0.000000, -2.336246)
 109 Co ( 0.000000,  0.000000, -1.199824)
 110 Fe ( 0.000000,  0.000000,  2.170255)
 111 Al ( 0.000000,  0.000000, -0.010925)
 112 Cr ( 0.000000,  0.000000,  2.134567)
 113 Al ( 0.000000,  0.000000, -0.006425)
 114 Ni ( 0.000000,  0.000000, -0.004776)
 115 Fe ( 0.000000,  0.000000, -2.016018)
 116 Al ( 0.000000,  0.000000, -0.004047)
 117 Al ( 0.000000,  0.000000, -0.014440)
 118 Fe ( 0.000000,  0.000000,  1.849979)
 119 Al ( 0.000000,  0.000000, -0.020048)
 120 Cr ( 0.000000,  0.000000,  2.486129)
 121 Ni ( 0.000000,  0.000000, -0.014975)
 122 Cr ( 0.000000,  0.000000,  1.767973)
 123 Cr ( 0.000000,  0.000000,  1.314876)
 124 Cr ( 0.000000,  0.000000,  1.970071)

Energy contributions relative to reference atoms: (reference = -3726899.091688)

Kinetic:       +418.076390
Potential:     -383.074609
External:        +0.000000
XC:            -961.963809
Entropy (-ST):   -5.045940
Local:          +35.259860
--------------------------
Free energy:   -896.748109
Extrapolated:  -894.225139

Dipole-layer corrected work functions: 4.846810, 4.799233 eV

Spin contamination: 45.045569 electrons
Showing all kpts
                      Up                     Down
 Kpt  Band  Eigenvalues  Occupancy  Eigenvalues  Occupancy
  0   523      0.07418    0.97661      0.71308    0.06555
  0   524      0.09335    0.97181      0.72537    0.05841
  0   525      0.10388    0.96878      0.73145    0.05516
  0   526      0.11536    0.96511      0.75063    0.04597

  1   523      0.07610    0.97617      0.70953    0.06776
  1   524      0.08962    0.97281      0.72050    0.06115
  1   525      0.10241    0.96922      0.73013    0.05585
  1   526      0.10646    0.96798      0.74170    0.05005


Fermi level: 0.44736

No gap

Forces in eV/Ang:
  0 Co    0.22303   -0.20601    0.47511
  1 Al   -1.10137   -0.46602   -0.66481
  2 Cr   -0.05530   -0.94270   -0.78534
  3 Cr   -0.05471   -0.25803   -1.17002
  4 Ni   -0.10891   -0.08155   -0.40110
  5 Co   -0.22166    0.22407    0.51336
  6 Cr    0.55813   -0.34364   -1.22899
  7 Cr    0.64819    0.32469    0.15285
  8 Co   -0.10999    0.11184    0.21615
  9 Al    0.01712   -0.63685   -1.89356
 10 Co   -0.49051    0.08200    0.18096
 11 Al    0.50044    0.41044   -0.91038
 12 Co    0.30853    0.20428   -0.04155
 13 Fe   -0.32555   -0.24776   -0.48330
 14 Cr    0.36422    0.56972    0.47631
 15 Fe   -0.65723    0.36728    0.25193
 16 Fe    0.45483   -0.06092    0.57949
 17 Co   -0.35241   -0.07969   -0.16108
 18 Fe    0.47766    0.52912   -0.52844
 19 Fe   -0.05499    0.50650   -0.20725
 20 Al   -0.32811    0.22711   -0.54027
 21 Fe    0.26133   -0.14457    0.51222
 22 Ni    0.30293    0.03537    0.33825
 23 Co    0.28447   -0.31363    1.22990
 24 Co   -0.64573   -0.43719    1.38061
 25 Co    0.94413    0.19163    0.58841
 26 Co   -0.47091    0.44833    0.02301
 27 Fe   -0.41008   -0.49156   -0.87982
 28 Ni   -0.00944   -0.05791    0.03816
 29 Ni    0.04563   -0.13215    0.27039
 30 Ni    0.39327   -0.49240    0.35854
 31 Fe    0.07428   -0.18708    0.57395
 32 Al   -0.25247    0.15587    0.93142
 33 Al    0.47410   -0.21242   -0.25021
 34 Fe    0.31906   -0.94475    0.27200
 35 Al   -1.01448   -0.26870    1.21560
 36 Ni   -0.34309   -0.12210    0.43439
 37 Ni   -0.05593   -0.17035   -0.35711
 38 Cr    0.52916    0.91600   -0.09313
 39 Fe    0.66815   -0.09215    0.31901
 40 Co   -0.68647    0.61490    0.07972
 41 Ni   -0.15477    0.05301   -0.09628
 42 Cr   -0.53955   -0.54138   -0.36767
 43 Ni    0.62425   -0.06681    0.47594
 44 Cr    0.19046    0.66194    0.42203
 45 Co   -0.06148    0.45205    0.11138
 46 Fe   -0.61868    0.55808    0.05222
 47 Al   -0.25513    1.09601    0.32985
 48 Cr    1.07907   -0.13693   -0.25024
 49 Co    0.06972    0.18282   -0.12704
 50 Ni   -0.17027   -0.08667   -0.36371
 51 Al   -0.10412   -0.24795   -0.37625
 52 Ni   -0.19555   -0.35252   -0.03092
 53 Cr    0.54183   -0.87610   -0.22692
 54 Co   -0.00751   -0.40926   -0.48620
 55 Co   -0.49633    0.70082   -0.30770
 56 Fe   -0.34288    0.33087    0.17443
 57 Fe    0.04601   -0.17176    0.12115
 58 Co   -0.11690   -0.23615   -0.30257
 59 Al    0.55652   -0.23162   -0.12391
 60 Ni   -0.42960   -0.25457   -0.47651
 61 Fe   -0.34557   -0.00521   -0.31126
 62 Al   -0.20724    0.22253    0.14463
 63 Co    0.43119    0.65203    0.07890
 64 Fe   -0.24720   -0.30313   -0.37391
 65 Al    0.28828    0.14614   -0.57182
 66 Co    0.45318    0.17951   -0.30252
 67 Co    0.57930    0.02212    0.47682
 68 Cr   -0.37573   -0.44898    0.37124
 69 Ni   -0.57123   -0.02709   -0.72424
 70 Ni    0.00133    0.29885   -0.68122
 71 Co   -0.25671   -0.02167   -0.21272
 72 Ni    0.27374   -0.47223    0.35693
 73 Fe    0.35002   -0.81096   -0.26876
 74 Cr   -1.06498    0.86823   -0.92362
 75 Ni    0.15732    0.54566    0.25552
 76 Ni   -0.38106    0.37850   -0.18423
 77 Co    0.01882    0.11519    0.42871
 78 Al   -0.65626   -0.62906    0.50905
 79 Al    1.25701   -0.39768    0.50505
 80 Cr    0.01924    0.22266   -0.40694
 81 Cr   -0.56559   -0.33415   -0.39295
 82 Al   -0.20743   -0.06908   -0.18289
 83 Cr    0.39651    0.71708    0.53042
 84 Fe    0.39220    0.05088    0.17247
 85 Al    0.43849    0.34703   -1.04355
 86 Cr   -0.29225   -0.69501    0.08606
 87 Ni   -0.02910    0.45669    0.00268
 88 Cr    0.85564    0.53268   -0.05850
 89 Cr   -1.15885   -0.00107   -0.93578
 90 Ni   -0.12020    0.35908    0.14829
 91 Ni   -0.04796    0.05996   -0.00086
 92 Cr    0.55654    0.37736   -0.79723
 93 Co    0.43639   -0.00626   -0.21334
 94 Ni   -0.22041    0.60434   -0.40776
 95 Al    0.36174    0.31339   -0.59742
 96 Ni   -0.02105    0.33503   -0.20059
 97 Co    0.53800   -0.66298    0.29912
 98 Al   -0.47996   -1.35366   -0.96185
 99 Fe   -0.65481    0.29285    0.46653
100 Fe   -1.04005    0.57629    0.16043
101 Al    0.12637   -0.33890    0.78394
102 Fe    0.11940    0.26457   -0.15756
103 Cr   -0.00036   -0.07791    0.60702
104 Fe    0.04772    0.54238   -0.93481
105 Al   -0.76173    0.45175    0.74603
106 Ni    0.29322    0.35681    0.28108
107 Co    0.45225   -0.00576   -0.02206
108 Fe    0.44113    0.29834   -0.29961
109 Co   -0.48016   -0.37987   -0.48631
110 Fe   -0.23101    0.20320   -0.29779
111 Al   -0.90796   -0.31079    0.74174
112 Cr    0.95072   -1.06949    0.42007
113 Al    0.46061   -0.68822    0.72095
114 Ni   -0.12490   -0.35074    0.02027
115 Fe    0.23153   -0.06959   -0.57375
116 Al    0.19820    0.40874    1.30471
117 Al    0.67560   -0.01595    0.81984
118 Fe   -0.49008    0.04678   -0.30494
119 Al   -0.07621   -0.52610    2.25655
120 Cr   -0.36417    0.04264    1.43211
121 Ni    0.34530   -0.33833    0.24481
122 Cr    0.65725   -0.51514   -0.44361
123 Cr   -0.35602    0.10249   -0.04975
124 Cr    0.22658    0.57746    0.03919

Timing:                              incl.     excl.
-----------------------------------------------------------
Forces:                             42.933    42.933   0.3% |
Hamiltonian:                         1.255     0.010   0.0% |
 Atomic:                             0.328     0.001   0.0% |
  XC Correction:                     0.327     0.327   0.0% |
 Calculate atomic Hamiltonians:      0.451     0.451   0.0% |
 Communicate:                        0.087     0.087   0.0% |
 Initialize Hamiltonian:             0.001     0.001   0.0% |
 Poisson:                            0.081     0.081   0.0% |
 XC 3D grid:                         0.297     0.297   0.0% |
LCAO initialization:               209.714     0.459   0.0% |
 LCAO eigensolver:                  10.515     0.009   0.0% |
  Calculate projections:             0.000     0.000   0.0% |
  DenseAtomicCorrection:             0.000     0.000   0.0% |
  Distribute overlap matrix:         7.014     7.014   0.0% |
  Orbital Layouts:                   3.468     3.468   0.0% |
  Potential matrix:                  0.002     0.002   0.0% |
  Sum over cells:                    0.021     0.021   0.0% |
 LCAO to grid:                     196.864   196.864   1.2% |
 Set positions (LCAO WFS):           1.876     1.628   0.0% |
  Basic WFS set positions:           0.003     0.003   0.0% |
  Basis functions set positions:     0.000     0.000   0.0% |
  P tci:                             0.000     0.000   0.0% |
  ST tci:                            0.094     0.094   0.0% |
  mktci:                             0.149     0.149   0.0% |
PWDescriptor:                        0.090     0.090   0.0% |
SCF-cycle:                       15569.090     1.047   0.0% |
 Davidson:                       15118.661  4842.562  30.6% |-----------|
  Apply H:                         311.581   306.080   1.9% ||
   HMM T:                            5.501     5.501   0.0% |
  Subspace diag:                  1589.245     0.044   0.0% |
   calc_h_matrix:                  693.596   407.493   2.6% ||
    Apply H:                       286.103   280.391   1.8% ||
     HMM T:                          5.712     5.712   0.0% |
   diagonalize:                    125.160   125.160   0.8% |
   rotate_psi:                     770.445   770.445   4.9% |-|
  calc. matrices:                 3715.138  3181.644  20.1% |-------|
   Apply H:                        533.494   522.398   3.3% ||
    HMM T:                          11.096    11.096   0.1% |
  diagonalize:                    3032.078  3032.078  19.2% |-------|
  rotate_psi:                     1628.058  1628.058  10.3% |---|
 Density:                          253.265     0.004   0.0% |
  Atomic density matrices:           2.713     2.713   0.0% |
  Mix:                             101.341   101.341   0.6% |
  Multipole moments:                 0.079     0.079   0.0% |
  Pseudo density:                  149.128   149.123   0.9% |
   Symmetrize density:               0.005     0.005   0.0% |
 Hamiltonian:                      181.638     1.551   0.0% |
  Atomic:                           39.124     0.146   0.0% |
   XC Correction:                   38.979    38.979   0.2% |
  Calculate atomic Hamiltonians:    81.776    81.776   0.5% |
  Communicate:                      12.625    12.625   0.1% |
  Poisson:                           4.369     4.369   0.0% |
  XC 3D grid:                       42.193    42.193   0.3% |
 Orthonormalize:                    14.479     0.000   0.0% |
  calc_s_matrix:                     1.722     1.722   0.0% |
  inverse-cholesky:                  0.624     0.624   0.0% |
  projections:                       9.158     9.158   0.1% |
  rotate_psi_s:                      2.975     2.975   0.0% |
Set symmetry:                        0.001     0.001   0.0% |
Other:                               7.426     7.426   0.0% |
-----------------------------------------------------------
Total:                                     15830.510 100.0%

Date: Thu Apr 20 00:53:51 2023
