
  ___ ___ ___ _ _ _  
 |   |   |_  | | | | 
 | | | | | . | | | | 
 |__ |  _|___|_____|  22.8.0
 |___|_|             

User:   c.zeng@d0136
Date:   Sat Apr  8 03:55:50 2023
Arch:   x86_64
Pid:    86699
CWD:    /home/c.zeng/projects/hea-corrosion/hea-mlp/data-curation/volume/dft-jobs/131
Python: 3.8.1
gpaw:   /home/c.zeng/usr/installs/gpaw/source/gpaw-22.8.0/gpaw
_gpaw:  /home/c.zeng/usr/installs/gpaw/source/gpaw-22.8.0/
        _gpaw.cpython-38-x86_64-linux-gnu.so
ase:    /home/c.zeng/.local/lib/python3.8/site-packages/ase-3.22.1-py3.8.egg/ase (version 3.22.1)
numpy:  /shared/centos7/python/3.8.1/lib/python3.8/site-packages/numpy (version 1.17.4)
scipy:  /shared/centos7/python/3.8.1/lib/python3.8/site-packages/scipy (version 1.4.1)
libxc:  4.2.3
units:  Angstrom and eV
cores: 64
OpenMP: False
OMP_NUM_THREADS: 1

Input parameters:
  convergence: {energy: 0.0001}
  kpts: [2 2 2]
  maxiter: 666
  mode: {ecut: 350.0,
         name: pw}
  occupations: {fixmagmom: False,
                name: fermi-dirac,
                width: 0.1}
  spinpol: True
  xc: PBE

System changes: positions, numbers, cell, pbc, initial_charges, initial_magmoms 

Initialize ...

species:
  Al:
    name: Aluminium
    id: 0292cae29f5d6237e50f6abdd43a7bdd
    Z: 13.0
    valence: 3
    core: 10
    charge: 0.0
    file: /home/c.zeng/usr/data/gpaw-setups-0.9.20000/Al.PBE.gz
    compensation charges: {type: gauss,
                           rc: 0.34,
                           lmax: 2}
    cutoffs: {filter: 1.91,
              core: 2.36}
    valence states:
      #              energy  rcut
      - 3s(2.00)    -7.753   1.085
      - 3p(1.00)    -2.712   1.085
      -  s          19.459   1.085
      -  p          24.499   1.085
      -  d           0.000   1.085
  
    # Using partial waves for Al as LCAO basis

  Fe:
    name: Iron
    id: 37abbd8d6c3c35915a9b583b742da910
    Z: 26.0
    valence: 8
    core: 18
    charge: 0.0
    file: /home/c.zeng/usr/data/gpaw-setups-0.9.20000/Fe.PBE.gz
    compensation charges: {type: gauss,
                           rc: 0.33,
                           lmax: 2}
    cutoffs: {filter: 2.06,
              core: 2.67}
    valence states:
      #              energy  rcut
      - 4s(2.00)    -5.291   1.164
      - 4p(0.00)    -1.326   1.058
      - 3d(6.00)    -7.505   1.058
      -  s          21.920   1.164
      -  p          25.885   1.058
      -  d          19.706   1.058
  
    # Using partial waves for Fe as LCAO basis

  Cr:
    name: Chromium
    id: 33f258bda2ca9f93018e70263a35547b
    Z: 24.0
    valence: 6
    core: 18
    charge: 0.0
    file: /home/c.zeng/usr/data/gpaw-setups-0.9.20000/Cr.PBE.gz
    compensation charges: {type: gauss,
                           rc: 0.35,
                           lmax: 2}
    cutoffs: {filter: 2.14,
              core: 3.04}
    valence states:
      #              energy  rcut
      - 4s(1.00)    -4.007   1.164
      - 4p(0.00)    -0.989   1.217
      - 3d(5.00)    -2.913   1.111
      -  s          23.205   1.164
      -  p          26.223   1.217
      -  d          24.299   1.111
  
    # Using partial waves for Cr as LCAO basis

  Ni:
    name: Nickel
    id: 0d9f38a9d6e76a2886f07bb4381f212b
    Z: 28.0
    valence: 16
    core: 12
    charge: 0.0
    file: /home/c.zeng/usr/data/gpaw-setups-0.9.20000/Ni.PBE.gz
    compensation charges: {type: gauss,
                           rc: 0.36,
                           lmax: 2}
    cutoffs: {filter: 2.14,
              core: 1.98}
    valence states:
      #              energy  rcut
      - 4s(2.00)    -5.642   1.164
      - 3p(6.00)   -71.394   1.207
      - 4p(0.00)    -1.226   1.207
      - 3d(8.00)    -8.875   1.138
      -  s          21.570   1.164
      -  d          18.337   1.138
  
    # Using partial waves for Ni as LCAO basis

  Co:
    name: Cobalt
    id: 339d20d5b0b93d2de9531a1bee871d91
    Z: 27.0
    valence: 9
    core: 18
    charge: 0.0
    file: /home/c.zeng/usr/data/gpaw-setups-0.9.20000/Co.PBE.gz
    compensation charges: {type: gauss,
                           rc: 0.32,
                           lmax: 2}
    cutoffs: {filter: 1.87,
              core: 2.55}
    valence states:
      #              energy  rcut
      - 4s(2.00)    -5.469   1.005
      - 4p(0.00)    -1.277   1.058
      - 3d(7.00)    -8.205   1.005
      -  s          21.742   1.005
      -  p          25.934   1.058
      -  d          19.007   1.005
  
    # Using partial waves for Co as LCAO basis

Reference energy: -3235165.067515  # eV

Spin-polarized calculation.
Magnetic moment: 121.100000

Convergence criteria:
 Maximum [total energy] change in last 3 cyles: 0.0001 eV / electron
 Maximum integral of absolute [dens]ity change: 0.0001 electrons / valence electron
 Maximum integral of absolute [eigenst]ate change: 4e-08 eV^2 / valence electron
 Maximum number of scf [iter]ations: 666
 (Square brackets indicate name in SCF output, whereas a 'c' in
 the SCF output indicates the quantity has converged.)

Symmetries present (total): 1

  ( 1  0  0)
  ( 0  1  0)
  ( 0  0  1)

8 k-points: 2 x 2 x 2 Monkhorst-Pack grid
4 k-points in the irreducible part of the Brillouin zone
       k-points in crystal coordinates                weights
   0:     0.25000000   -0.25000000   -0.25000000          2/8
   1:     0.25000000   -0.25000000    0.25000000          2/8
   2:     0.25000000    0.25000000   -0.25000000          2/8
   3:     0.25000000    0.25000000    0.25000000          2/8

Wave functions: Plane wave expansion
  Cutoff energy: 350.000 eV
  Number of coefficients (min, max): 19084, 19084
  Pulay-stress correction: 0.000000 eV/Ang^3 (de/decut=0.000000)
  Using FFTW library
  ScaLapack parameters: grid=1x1, blocksize=None
  Wavefunction extrapolation:
    Improved wavefunction reuse through dual PAW basis 

Occupation numbers: Fermi-Dirac:
  width: 0.1000  # eV
 

Eigensolver
   Davidson(niter=2) 

Densities:
  Coarse grid: 48*48*48 grid
  Fine grid: 96*96*96 grid
  Total Charge: 0.000000 

Density mixing:
  Method: difference
  Backend: pulay
  Linear mixing parameter: 0.05
  old densities: 5
  Damping of long wavelength oscillations: 50 

Hamiltonian:
  XC and Coulomb potentials evaluated on a 96*96*96 grid
  Using the PBE Exchange-Correlation functional
  External potential:
    NoExternalPotential
 

XC parameters: PBE with 2 nearest neighbor stencil

Memory estimate:
  Process memory now: 178.05 MiB
  Calculator: 619.44 MiB
    Density: 5.13 MiB
      Arrays: 1.85 MiB
      Localized functions: 2.55 MiB
      Mixer: 0.74 MiB
    Hamiltonian: 1.45 MiB
      Arrays: 1.37 MiB
      XC: 0.00 MiB
      Poisson: 0.00 MiB
      vbar: 0.08 MiB
    Wavefunctions: 612.85 MiB
      Arrays psit_nG: 363.42 MiB
      Eigensolver: 242.60 MiB
      Projections: 2.19 MiB
      Projectors: 0.35 MiB
      PW-descriptor: 4.31 MiB

Total number of cores used: 64
Parallelization over k-points: 4
Domain decomposition: 4 x 2 x 2

Number of atoms: 108
Number of atomic orbitals: 933
Number of bands in calculation: 624
Number of valence electrons: 912
Bands to converge: occupied

... initialized

Initializing position-dependent things.

Density initialized from atomic densities
Creating initial wave functions:
  624 bands from LCAO basis set

        .--------Ni----------------.  
       /|           Ni             |  
      / |    CrFe     Co           |  
     / Al       Co       Ni        |  
    /   |Co      CoAl       Al     |  
   /    | FeFe      FCr            |  
  /    Cr  CorAlNi    Co Fe  CrCr  |  
 *      Cr     FeCoFe   CoNi     Al|  
 |      |AlAl   NiNiFe   NiFeAl   Cr  
 |      | FeCr   AlCoCrNi AlFeCr   |  
 |     Co  Fe NiCr  CrCr Fe  CrFe  |  
 |      Al  Cr AlNiNi AlNiNiCo   Co|  
 |      |CoAl   NiCoCo   CrCrCo   Al  
 |      .-NiCo-----NiAl-Cr--FeFe---.  
 |     Ni  Cr AlAl    Co Ni  Ni Co/   
 |    / Cr              Co       Ni   
 |   /           Fee      AlFe  /     
 |  /      Al       Co     FeFe/      
 | /                   Ni     /e      
 |/                          /        
 *--------------------------Al        

Positions:
   0 Al    10.801250    0.092464    0.087458    ( 0.0000,  0.0000,  0.0000)
   1 Fe    10.832138    1.843746    1.870775    ( 0.0000,  0.0000,  2.0000)
   2 Cr     1.788939   10.848457    1.830243    ( 0.0000,  0.0000,  0.0000)
   3 Cr     1.770782    1.870286   -0.030405    ( 0.0000,  0.0000,  0.0000)
   4 Ni     3.619769   10.822287   10.832834    ( 0.0000,  0.0000,  1.5000)
   5 Al     3.568550    1.885616    1.706853    ( 0.0000,  0.0000,  0.0000)
   6 Al     5.519193   10.788290    1.665212    ( 0.0000,  0.0000,  0.0000)
   7 Ni     5.520628    1.814206   10.830300    ( 0.0000,  0.0000,  1.5000)
   8 Fe     7.329431    0.010570   10.816830    ( 0.0000,  0.0000,  2.0000)
   9 Co     7.281223    1.808977    1.791103    ( 0.0000,  0.0000,  2.1000)
  10 Ni     9.030859    0.021651    1.812043    ( 0.0000,  0.0000,  1.5000)
  11 Fe     9.009212    1.864621   10.825854    ( 0.0000,  0.0000,  2.0000)
  12 Fe    10.861830    3.648853    0.013112    ( 0.0000,  0.0000,  2.0000)
  13 Co    10.868288    5.463439    1.818642    ( 0.0000,  0.0000,  2.1000)
  14 Cr     1.755126    3.649451    1.845671    ( 0.0000,  0.0000,  0.0000)
  15 Co     1.789341    5.439151   10.869875    ( 0.0000,  0.0000,  2.1000)
  16 Fe     3.685438    3.621498   -0.049275    ( 0.0000,  0.0000,  2.0000)
  17 Al     3.664846    5.390149    1.745015    ( 0.0000,  0.0000,  0.0000)
  18 Fe     5.496633    3.635327    1.790124    ( 0.0000,  0.0000,  2.0000)
  19 Fe     5.524161    5.449164    0.001497    ( 0.0000,  0.0000,  2.0000)
  20 Cr     7.223165    3.611909   10.834062    ( 0.0000,  0.0000,  0.0000)
  21 Co     7.218327    5.475203    1.805052    ( 0.0000,  0.0000,  2.1000)
  22 Al     9.075913    3.654593    1.772826    ( 0.0000,  0.0000,  0.0000)
  23 Fe     9.011647    5.420527    0.007520    ( 0.0000,  0.0000,  2.0000)
  24 Ni    10.861613    7.180100    0.015561    ( 0.0000,  0.0000,  1.5000)
  25 Al    -0.015393    8.971648    1.879070    ( 0.0000,  0.0000,  0.0000)
  26 Ni     1.817359    7.224056    1.803715    ( 0.0000,  0.0000,  1.5000)
  27 Cr     1.881680    8.995513   10.874257    ( 0.0000,  0.0000,  0.0000)
  28 Fe     3.682154    7.261055   -0.001138    ( 0.0000,  0.0000,  2.0000)
  29 Ni     3.610202    9.025227    1.762813    ( 0.0000,  0.0000,  1.5000)
  30 Ni     5.480770    7.273623    1.809944    ( 0.0000,  0.0000,  1.5000)
  31 Ni     5.458721    9.047363   10.834845    ( 0.0000,  0.0000,  1.5000)
  32 Co     7.246171    7.258652    0.057396    ( 0.0000,  0.0000,  2.1000)
  33 Cr     7.299923    9.003895    1.788733    ( 0.0000,  0.0000,  0.0000)
  34 Fe     9.030445    7.181774    1.814674    ( 0.0000,  0.0000,  2.0000)
  35 Ni     9.030869    9.043090    0.022054    ( 0.0000,  0.0000,  1.5000)
  36 Fe    -0.031036    0.003354    3.646896    ( 0.0000,  0.0000,  2.0000)
  37 Co    10.824136    1.804584    5.435041    ( 0.0000,  0.0000,  2.1000)
  38 Cr     1.744102   10.850044    5.483173    ( 0.0000,  0.0000,  0.0000)
  39 Ni     1.768651    1.792701    3.635632    ( 0.0000,  0.0000,  1.5000)
  40 Al     3.517341   10.720012    3.664868    ( 0.0000,  0.0000,  0.0000)
  41 Al     3.644569    1.788058    5.587732    ( 0.0000,  0.0000,  0.0000)
  42 Cr     5.485238   10.815677    5.505243    ( 0.0000,  0.0000,  0.0000)
  43 Al     5.456960    1.844377    3.657898    ( 0.0000,  0.0000,  0.0000)
  44 Al     7.360156   10.815764    3.671337    ( 0.0000,  0.0000,  0.0000)
  45 Co     7.265469    1.812249    5.486967    ( 0.0000,  0.0000,  2.1000)
  46 Cr     9.076250    0.024353    5.492066    ( 0.0000,  0.0000,  0.0000)
  47 Ni     9.066009    1.823959    3.670597    ( 0.0000,  0.0000,  1.5000)
  48 Fe    -0.047904    3.648755    3.616497    ( 0.0000,  0.0000,  2.0000)
  49 Fe    10.807762    5.435759    5.378962    ( 0.0000,  0.0000,  2.0000)
  50 Al     1.749549    3.624934    5.343735    ( 0.0000,  0.0000,  0.0000)
  51 Co     1.804204    5.470376    3.620269    ( 0.0000,  0.0000,  2.1000)
  52 Co     3.647744    3.634055    3.631000    ( 0.0000,  0.0000,  2.1000)
  53 Ni     3.658246    5.432160    5.433388    ( 0.0000,  0.0000,  1.5000)
  54 Ni     5.413710    3.673989    5.480411    ( 0.0000,  0.0000,  1.5000)
  55 Co     5.413927    5.464059    3.638709    ( 0.0000,  0.0000,  2.1000)
  56 Al     7.224404    3.733004    3.718424    ( 0.0000,  0.0000,  0.0000)
  57 Cr     7.222828    5.482238    5.484945    ( 0.0000,  0.0000,  0.0000)
  58 Ni     9.067542    3.623661    5.470289    ( 0.0000,  0.0000,  1.5000)
  59 Cr     9.064780    5.503145    3.636654    ( 0.0000,  0.0000,  0.0000)
  60 Co    -0.006909    7.209324    3.672282    ( 0.0000,  0.0000,  2.1000)
  61 Cr    -0.032608    9.094864    5.397988    ( 0.0000,  0.0000,  0.0000)
  62 Fe     1.823024    7.247649    5.439923    ( 0.0000,  0.0000,  2.0000)
  63 Fe     1.742156    8.990381    3.678219    ( 0.0000,  0.0000,  2.0000)
  64 Al     3.644449    7.303033    3.692831    ( 0.0000,  0.0000,  0.0000)
  65 Ni     3.652473    9.050951    5.520269    ( 0.0000,  0.0000,  1.5000)
  66 Co     5.474942    7.264229    5.482683    ( 0.0000,  0.0000,  2.1000)
  67 Cr     5.473377    9.033261    3.663867    ( 0.0000,  0.0000,  0.0000)
  68 Ni     7.219653    7.242191    3.634023    ( 0.0000,  0.0000,  1.5000)
  69 Ni     7.240158    9.038121    5.472061    ( 0.0000,  0.0000,  1.5000)
  70 Fe     8.973007    7.233863    5.399467    ( 0.0000,  0.0000,  2.0000)
  71 Cr     9.065063    8.978269    3.651092    ( 0.0000,  0.0000,  0.0000)
  72 Co    10.856546    0.017525    7.207900    ( 0.0000,  0.0000,  2.1000)
  73 Al    10.826017    1.879929    8.981770    ( 0.0000,  0.0000,  0.0000)
  74 Cr     1.863567   10.856133    9.007983    ( 0.0000,  0.0000,  0.0000)
  75 Co     1.768010    1.801823    7.236483    ( 0.0000,  0.0000,  2.1000)
  76 Co     3.639198   10.798118    7.273145    ( 0.0000,  0.0000,  2.1000)
  77 Al     3.667499    1.776577    9.019780    ( 0.0000,  0.0000,  0.0000)
  78 Co     5.482096   10.844500    9.070890    ( 0.0000,  0.0000,  2.1000)
  79 Cr     5.527021    1.774479    7.254173    ( 0.0000,  0.0000,  0.0000)
  80 Ni     7.259282    0.006048    7.255401    ( 0.0000,  0.0000,  1.5000)
  81 Fe     7.265730    1.801029    9.017790    ( 0.0000,  0.0000,  2.0000)
  82 Ni     9.022835    0.025147    9.027097    ( 0.0000,  0.0000,  1.5000)
  83 Fe     9.015355    1.813924    7.226742    ( 0.0000,  0.0000,  2.0000)
  84 Cr    10.803043    3.611876    7.199844    ( 0.0000,  0.0000,  0.0000)
  85 Cr    10.835215    5.395640    9.099278    ( 0.0000,  0.0000,  0.0000)
  86 Cr     1.818316    3.627554    9.066226    ( 0.0000,  0.0000,  0.0000)
  87 Al     1.808825    5.462624    7.231286    ( 0.0000,  0.0000,  0.0000)
  88 Cr     3.671445    3.635860    7.249095    ( 0.0000,  0.0000,  0.0000)
  89 Al     3.678012    5.410774    9.120957    ( 0.0000,  0.0000,  0.0000)
  90 Co     5.499438    3.592414    9.046439    ( 0.0000,  0.0000,  2.1000)
  91 Ni     5.469463    5.446870    7.222752    ( 0.0000,  0.0000,  1.5000)
  92 Cr     7.243061    3.617790    7.227883    ( 0.0000,  0.0000,  0.0000)
  93 Co     7.216402    5.386964    9.050907    ( 0.0000,  0.0000,  2.1000)
  94 Ni     8.995958    3.654745    9.041100    ( 0.0000,  0.0000,  1.5000)
  95 Fe     9.006798    5.422886    7.225470    ( 0.0000,  0.0000,  2.0000)
  96 Al    -0.069852    7.292845    7.108940    ( 0.0000,  0.0000,  0.0000)
  97 Al     0.074862    9.107824    9.066107    ( 0.0000,  0.0000,  0.0000)
  98 Fe     1.861925    7.258521    9.054451    ( 0.0000,  0.0000,  2.0000)
  99 Co     1.859935    9.054843    7.223926    ( 0.0000,  0.0000,  2.1000)
 100 Fe     3.682981    7.292834    7.234711    ( 0.0000,  0.0000,  2.0000)
 101 Co     3.628184    9.069901    9.049874    ( 0.0000,  0.0000,  2.1000)
 102 Al     5.529521    7.332627    9.041198    ( 0.0000,  0.0000,  0.0000)
 103 Fe     5.475714    9.095962    7.249128    ( 0.0000,  0.0000,  2.0000)
 104 Co     7.257586    7.264001    7.207628    ( 0.0000,  0.0000,  2.1000)
 105 Ni     7.272210    9.137146    9.056822    ( 0.0000,  0.0000,  1.5000)
 106 Al     8.938259    7.191863    9.110346    ( 0.0000,  0.0000,  0.0000)
 107 Cr     8.993708    9.113097    7.217783    ( 0.0000,  0.0000,  0.0000)

Unit cell:
           periodic     x           y           z      points  spacing
  1. axis:    yes   10.872300    0.000000    0.000000    48     0.2265
  2. axis:    yes    0.000000   10.872300    0.000000    48     0.2265
  3. axis:    yes    0.000000    0.000000   10.872300    48     0.2265

  Lengths:  10.872300  10.872300  10.872300
  Angles:   90.000000  90.000000  90.000000

Effective grid spacing dv^(1/3) = 0.2265

     iter     time        total  log10-change:  magmom
                         energy  eigst   dens
iter:   1 03:58:06  -974.527162                  +121.3860
iter:   2 03:59:07  -859.606610  -0.18  -1.16    +64.8577
iter:   3 04:00:08  -844.827830  -0.85  -1.20    +55.9607
iter:   4 04:01:14  -831.557948  -1.24  -1.26    +51.9717
iter:   5 04:02:00  -819.858994  -1.53  -1.29    +49.7914
iter:   6 04:02:54  -813.393602  -1.35  -1.35    +50.0609
iter:   7 04:03:54  -816.065372  -1.35  -1.48    +49.4583
iter:   8 04:04:55  -810.687721  -1.66  -1.52    +49.9761
iter:   9 04:05:58  -806.622516  -2.07  -1.64    +51.0065
iter:  10 04:07:01  -806.634141  -2.53  -1.77    +51.9355
iter:  11 04:08:05  -807.093790  -2.50  -1.80    +52.9517
iter:  12 04:09:07  -808.008235  -2.40  -1.85    +54.1770
iter:  13 04:10:12  -807.859631  -2.52  -1.87    +54.5824
iter:  14 04:11:15  -807.613823  -2.68  -1.93    +55.2860
iter:  15 04:12:17  -807.595413  -2.92  -1.99    +55.7181
iter:  16 04:13:21  -807.848443  -2.94  -2.04    +55.9743
iter:  17 04:14:24  -807.818302  -2.87  -2.08    +56.3841
iter:  18 04:15:29  -807.625869  -3.10  -2.14    +56.3085
iter:  19 04:16:32  -807.734071  -3.16  -2.25    +56.3589
iter:  20 04:17:34  -807.717750  -3.30  -2.27    +56.3796
iter:  21 04:18:38  -807.710593c -3.38  -2.33    +56.2097
iter:  22 04:19:41  -807.769029c -3.35  -2.40    +56.0550
iter:  23 04:20:44  -807.770724c -3.64  -2.43    +55.9815
iter:  24 04:21:45  -807.809168c -3.70  -2.48    +55.6701
iter:  25 04:22:45  -807.873567  -3.70  -2.51    +55.4308
iter:  26 04:23:46  -807.900781  -3.88  -2.53    +55.2634
iter:  27 04:24:50  -807.920559c -3.87  -2.56    +54.9356
iter:  28 04:25:53  -807.979042c -3.96  -2.62    +54.6575
iter:  29 04:26:57  -808.005765c -4.00  -2.64    +54.4549
iter:  30 04:28:01  -808.034410c -4.19  -2.67    +54.1106
iter:  31 04:29:03  -808.080238c -4.11  -2.71    +53.7927
iter:  32 04:30:08  -808.122045c -4.22  -2.74    +53.4259
iter:  33 04:31:12  -808.172716  -4.09  -2.77    +52.9621
iter:  34 04:32:15  -808.240673  -3.85  -2.80    +52.3317
iter:  35 04:33:19  -808.274462  -4.02  -2.81    +52.0037
iter:  36 04:34:22  -808.316007c -3.98  -2.81    +51.5723
iter:  37 04:35:25  -808.370920  -3.70  -2.77    +51.0079
iter:  38 04:36:30  -808.359510c -4.30  -2.76    +51.1448
iter:  39 04:37:33  -808.358323c -4.57  -2.83    +51.1006
iter:  40 04:38:37  -808.363659c -4.89  -2.86    +51.1043
iter:  41 04:39:40  -808.364289c -4.52  -2.84    +51.0824
iter:  42 04:40:44  -808.353619c -4.42  -2.86    +51.0922
iter:  43 04:41:48  -808.354557c -5.11  -2.91    +51.0629
iter:  44 04:42:51  -808.361208c -4.61  -2.95    +51.0430
iter:  45 04:43:54  -808.361249c -4.47  -2.96    +51.0428
iter:  46 04:44:59  -808.356126c -4.69  -3.03    +51.0490
iter:  47 04:46:03  -808.353786c -4.83  -3.12    +51.0263
iter:  48 04:47:07  -808.353284c -4.97  -3.20    +51.0375
iter:  49 04:48:11  -808.353525c -5.08  -3.29    +51.0701
iter:  50 04:49:14  -808.352836c -5.30  -3.35    +51.0753
iter:  51 04:50:17  -808.352680c -5.47  -3.40    +51.0811
iter:  52 04:51:22  -808.353163c -5.44  -3.48    +51.0923
iter:  53 04:52:25  -808.352852c -5.80  -3.53    +51.0921
iter:  54 04:53:29  -808.353611c -5.80  -3.61    +51.1006
iter:  55 04:54:33  -808.354054c -5.89  -3.62    +51.0971
iter:  56 04:55:34  -808.354028c -6.02  -3.67    +51.0965
iter:  57 04:56:35  -808.354552c -6.01  -3.71    +51.0998
iter:  58 04:57:37  -808.355009c -6.33  -3.78    +51.0971
iter:  59 04:58:38  -808.355183c -6.28  -3.82    +51.0952
iter:  60 04:59:38  -808.355898c -6.25  -3.83    +51.0955
iter:  61 05:00:42  -808.356240c -6.39  -3.87    +51.0888
iter:  62 05:01:43  -808.356372c -6.31  -3.92    +51.0874
iter:  63 05:02:46  -808.356991c -6.39  -3.94    +51.0833
iter:  64 05:03:50  -808.357327c -6.52  -4.00    +51.0779
iter:  65 05:04:53  -808.357464c -6.50  -4.06c   +51.0752
iter:  66 05:05:56  -808.357998c -6.58  -4.08c   +51.0723
iter:  67 05:06:58  -808.358364c -6.55  -4.13c   +51.0660
iter:  68 05:07:59  -808.358623c -6.48  -4.17c   +51.0640
iter:  69 05:08:58  -808.359019c -6.58  -4.17c   +51.0617
iter:  70 05:10:02  -808.359749c -6.15  -4.19c   +51.0586
iter:  71 05:11:06  -808.361304c -5.64  -4.15c   +51.0604
iter:  72 05:12:11  -808.360964c -6.85  -3.98    +51.0671
iter:  73 05:13:15  -808.361514c -6.49  -3.98    +51.0690
iter:  74 05:14:19  -808.362701c -5.68  -3.94    +51.0836
iter:  75 05:15:24  -808.362693c -6.50  -3.88    +51.0909
iter:  76 05:16:28  -808.362533c -6.71  -3.91    +51.0939
iter:  77 05:17:33  -808.362459c -7.04  -3.91    +51.0937
iter:  78 05:18:37  -808.362186c -6.95  -3.93    +51.0968
iter:  79 05:19:42  -808.362374c -5.73  -3.94    +51.0988
iter:  80 05:20:45  -808.362249c -5.94  -3.77    +51.1026
iter:  81 05:21:50  -808.361649c -6.56  -3.90    +51.0894
iter:  82 05:22:54  -808.361741c -7.05  -4.05c   +51.0805
iter:  83 05:23:58  -808.361303c -6.58  -4.11c   +51.0771
iter:  84 05:25:02  -808.361748c -6.72  -4.08c   +51.0769
iter:  85 05:26:07  -808.361405c -6.72  -4.19c   +51.0721
iter:  86 05:27:11  -808.361407c -6.82  -4.33c   +51.0718
iter:  87 05:28:15  -808.361485c -6.85  -4.33c   +51.0724
iter:  88 05:29:19  -808.361270c -7.08  -4.35c   +51.0720
iter:  89 05:30:22  -808.361265c -7.39  -4.41c   +51.0701
iter:  90 05:31:27  -808.361129c -7.58c -4.56c   +51.0705

Converged after 90 iterations.

Dipole moment: (29.300561, 17.110044, 7.338895) |e|*Ang

Total magnetic moment: (0.000000, 0.000000, 51.070534)
Local magnetic moments:
   0 Al ( 0.000000,  0.000000, -0.004616)
   1 Fe ( 0.000000,  0.000000,  2.087918)
   2 Cr ( 0.000000,  0.000000, -2.122283)
   3 Cr ( 0.000000,  0.000000,  1.605604)
   4 Ni ( 0.000000,  0.000000,  0.066727)
   5 Al ( 0.000000,  0.000000, -0.009391)
   6 Al ( 0.000000,  0.000000, -0.014662)
   7 Ni ( 0.000000,  0.000000,  0.303456)
   8 Fe ( 0.000000,  0.000000,  2.324916)
   9 Co ( 0.000000,  0.000000,  0.957689)
  10 Ni ( 0.000000,  0.000000,  0.255169)
  11 Fe ( 0.000000,  0.000000,  2.060680)
  12 Fe ( 0.000000,  0.000000,  2.061059)
  13 Co ( 0.000000,  0.000000,  1.327872)
  14 Cr ( 0.000000,  0.000000, -2.055659)
  15 Co ( 0.000000,  0.000000,  0.941313)
  16 Fe ( 0.000000,  0.000000,  2.058582)
  17 Al ( 0.000000,  0.000000, -0.037800)
  18 Fe ( 0.000000,  0.000000,  2.247252)
  19 Fe ( 0.000000,  0.000000,  2.202910)
  20 Cr ( 0.000000,  0.000000, -1.951496)
  21 Co ( 0.000000,  0.000000,  1.128811)
  22 Al ( 0.000000,  0.000000, -0.035490)
  23 Fe ( 0.000000,  0.000000,  2.192241)
  24 Ni ( 0.000000,  0.000000,  0.084109)
  25 Al ( 0.000000,  0.000000, -0.013733)
  26 Ni ( 0.000000,  0.000000,  0.296822)
  27 Cr ( 0.000000,  0.000000, -1.299158)
  28 Fe ( 0.000000,  0.000000,  2.356917)
  29 Ni ( 0.000000,  0.000000,  0.205855)
  30 Ni ( 0.000000,  0.000000,  0.323571)
  31 Ni ( 0.000000,  0.000000,  0.267924)
  32 Co ( 0.000000,  0.000000,  1.188851)
  33 Cr ( 0.000000,  0.000000, -2.025152)
  34 Fe ( 0.000000,  0.000000,  2.093694)
  35 Ni ( 0.000000,  0.000000,  0.165008)
  36 Fe ( 0.000000,  0.000000,  1.910989)
  37 Co ( 0.000000,  0.000000,  0.840628)
  38 Cr ( 0.000000,  0.000000, -1.716538)
  39 Ni ( 0.000000,  0.000000, -0.006728)
  40 Al ( 0.000000,  0.000000,  0.001817)
  41 Al ( 0.000000,  0.000000, -0.000207)
  42 Cr ( 0.000000,  0.000000, -1.779794)
  43 Al ( 0.000000,  0.000000, -0.005400)
  44 Al ( 0.000000,  0.000000, -0.003494)
  45 Co ( 0.000000,  0.000000,  0.268994)
  46 Cr ( 0.000000,  0.000000, -1.628319)
  47 Ni ( 0.000000,  0.000000,  0.233484)
  48 Fe ( 0.000000,  0.000000,  2.197430)
  49 Fe ( 0.000000,  0.000000,  1.961141)
  50 Al ( 0.000000,  0.000000, -0.029905)
  51 Co ( 0.000000,  0.000000,  1.264381)
  52 Co ( 0.000000,  0.000000,  1.019322)
  53 Ni ( 0.000000,  0.000000,  0.360955)
  54 Ni ( 0.000000,  0.000000,  0.099239)
  55 Co ( 0.000000,  0.000000,  1.144578)
  56 Al ( 0.000000,  0.000000, -0.009682)
  57 Cr ( 0.000000,  0.000000, -1.514064)
  58 Ni ( 0.000000,  0.000000,  0.118245)
  59 Cr ( 0.000000,  0.000000, -1.685667)
  60 Co ( 0.000000,  0.000000,  1.015774)
  61 Cr ( 0.000000,  0.000000, -1.096664)
  62 Fe ( 0.000000,  0.000000,  2.204886)
  63 Fe ( 0.000000,  0.000000,  2.131760)
  64 Al ( 0.000000,  0.000000, -0.028514)
  65 Ni ( 0.000000,  0.000000,  0.329778)
  66 Co ( 0.000000,  0.000000,  1.080448)
  67 Cr ( 0.000000,  0.000000,  2.101912)
  68 Ni ( 0.000000,  0.000000,  0.171558)
  69 Ni ( 0.000000,  0.000000,  0.184615)
  70 Fe ( 0.000000,  0.000000,  1.666450)
  71 Cr ( 0.000000,  0.000000,  1.225169)
  72 Co ( 0.000000,  0.000000,  0.477569)
  73 Al ( 0.000000,  0.000000, -0.014388)
  74 Cr ( 0.000000,  0.000000, -1.874500)
  75 Co ( 0.000000,  0.000000,  0.052935)
  76 Co ( 0.000000,  0.000000,  0.967325)
  77 Al ( 0.000000,  0.000000, -0.021074)
  78 Co ( 0.000000,  0.000000,  1.350125)
  79 Cr ( 0.000000,  0.000000,  0.995577)
  80 Ni ( 0.000000,  0.000000,  0.322690)
  81 Fe ( 0.000000,  0.000000,  2.063033)
  82 Ni ( 0.000000,  0.000000,  0.248181)
  83 Fe ( 0.000000,  0.000000,  2.155276)
  84 Cr ( 0.000000,  0.000000, -1.415565)
  85 Cr ( 0.000000,  0.000000, -1.493886)
  86 Cr ( 0.000000,  0.000000, -1.539529)
  87 Al ( 0.000000,  0.000000, -0.019114)
  88 Cr ( 0.000000,  0.000000,  1.700995)
  89 Al ( 0.000000,  0.000000, -0.045384)
  90 Co ( 0.000000,  0.000000,  1.079836)
  91 Ni ( 0.000000,  0.000000,  0.178966)
  92 Cr ( 0.000000,  0.000000, -1.658316)
  93 Co ( 0.000000,  0.000000,  1.278429)
  94 Ni ( 0.000000,  0.000000,  0.222669)
  95 Fe ( 0.000000,  0.000000,  1.984989)
  96 Al ( 0.000000,  0.000000, -0.033071)
  97 Al ( 0.000000,  0.000000, -0.008889)
  98 Fe ( 0.000000,  0.000000,  2.063123)
  99 Co ( 0.000000,  0.000000,  1.034124)
 100 Fe ( 0.000000,  0.000000,  2.331152)
 101 Co ( 0.000000,  0.000000,  1.219479)
 102 Al ( 0.000000,  0.000000, -0.046156)
 103 Fe ( 0.000000,  0.000000,  2.332051)
 104 Co ( 0.000000,  0.000000,  1.115032)
 105 Ni ( 0.000000,  0.000000,  0.322832)
 106 Al ( 0.000000,  0.000000, -0.029641)
 107 Cr ( 0.000000,  0.000000,  1.517625)

Energy contributions relative to reference atoms: (reference = -3235165.067515)

Kinetic:       +244.813053
Potential:     -238.701216
External:        +0.000000
XC:            -843.850844
Entropy (-ST):   -3.917642
Local:          +31.336699
--------------------------
Free energy:   -810.319950
Extrapolated:  -808.361129

Spin contamination: 32.153261 electrons
Showing only first 2 kpts
                      Up                     Down
 Kpt  Band  Eigenvalues  Occupancy  Eigenvalues  Occupancy
  0   454      9.01981    0.99492      9.88177    0.03412
  0   455      9.03930    0.99383      9.88940    0.03169
  0   456      9.05448    0.99282      9.90399    0.02751
  0   457      9.07743    0.99099      9.91584    0.02451

  1   454      9.02514    0.99464      9.87340    0.03699
  1   455      9.04273    0.99361      9.88176    0.03412
  1   456      9.05851    0.99253      9.89411    0.03028
  1   457      9.07323    0.99136      9.90990    0.02597


Fermi level: 9.54746

No gap

Forces in eV/Ang:
  0 Al   -0.43272   -0.60185   -0.37457
  1 Fe    0.26639    0.01378    0.21763
  2 Cr   -0.10811    0.19851   -0.25386
  3 Cr    0.07340   -0.30088   -0.43683
  4 Ni   -0.21901    0.18332    0.05294
  5 Al    0.52685   -0.14127    0.29550
  6 Al   -0.67598    0.24427   -0.28482
  7 Ni   -0.28472   -0.12960    0.14472
  8 Fe    0.20609   -0.02381   -0.01654
  9 Co   -0.14136    0.12344    0.19836
 10 Ni    0.02609   -0.11715    0.13153
 11 Fe   -0.17827    0.12958    0.40470
 12 Fe   -0.02131    0.31938   -0.16506
 13 Co    0.57048    0.05840    0.00726
 14 Cr   -0.87189   -0.01415   -0.12121
 15 Co   -0.12113   -0.15994   -0.11275
 16 Fe    0.03614    0.32834    0.01122
 17 Al   -0.05959    0.36699    0.34942
 18 Fe    0.09880   -0.09090    0.11860
 19 Fe    0.30121   -0.06679   -0.10505
 20 Cr   -0.40151    0.06996   -0.18187
 21 Co   -0.10777   -0.04009    0.25372
 22 Al   -0.12938   -0.25124    0.37343
 23 Fe   -0.15547   -0.01662   -0.19162
 24 Ni    0.20607    0.34407   -0.29623
 25 Al   -0.26469   -0.34494   -0.59343
 26 Ni    0.00769   -0.22425    0.08334
 27 Cr    0.27603   -0.10532   -0.22461
 28 Fe   -0.42299    0.29306   -0.06370
 29 Ni    0.16724    0.11547    0.46062
 30 Ni   -0.30462   -0.28194   -0.11729
 31 Ni   -0.01170    0.03451    0.09002
 32 Co   -0.02530   -0.14821    0.23877
 33 Cr    0.34920   -0.36053   -0.18616
 34 Fe   -0.24277   -0.34213   -0.14998
 35 Ni    0.56747    0.15868   -0.28846
 36 Fe    0.15743    0.47386    0.18604
 37 Co    0.24040   -0.38988    0.16088
 38 Cr   -0.79608   -0.08964    0.75060
 39 Ni    0.24664   -0.13048    0.00537
 40 Al    0.52531    0.15388    0.03863
 41 Al   -0.50321   -0.09020   -0.70612
 42 Cr   -0.00577   -0.03005    0.01318
 43 Al    0.20161    0.25087    0.24692
 44 Al   -0.05800    0.79113   -0.20804
 45 Co   -0.29225   -0.22887   -0.13629
 46 Cr    0.29078    0.11060    0.36266
 47 Ni    0.03525    0.04828   -0.40812
 48 Fe   -0.08108    0.07331   -0.06409
 49 Fe    0.03159   -0.12288    0.09395
 50 Al    0.42894   -0.15105   -0.31859
 51 Co   -0.17907   -0.08930    0.11358
 52 Co    0.04262    0.17775   -0.22858
 53 Ni   -0.12492   -0.01176    0.10756
 54 Ni    0.28648   -0.29643   -0.28214
 55 Co    0.03466   -0.13292   -0.07910
 56 Al    0.21318   -0.71681   -0.28791
 57 Cr   -0.30341    0.99903    0.31163
 58 Ni   -0.28324    0.11555   -0.12421
 59 Cr    0.57502    0.66738    0.13290
 60 Co    0.03433   -0.19693   -0.05319
 61 Cr    0.05132    0.05280   -0.28223
 62 Fe   -0.27070    0.09018   -0.03593
 63 Fe   -0.12662    0.07717    0.08975
 64 Al   -0.15484   -0.34581   -0.26763
 65 Ni   -0.42074    0.23138   -0.02208
 66 Co    0.04483   -0.22800    0.21752
 67 Cr    0.80668    0.15835    0.14030
 68 Ni   -0.02435   -0.14656    0.13986
 69 Ni    0.24999    0.08229   -0.16157
 70 Fe    0.08003   -0.31145   -0.27352
 71 Cr   -0.17092   -0.18953    0.81730
 72 Co    0.37459   -0.20217   -0.28568
 73 Al   -0.43157   -0.58684    0.05310
 74 Cr    0.08108    0.18560    0.10971
 75 Co    0.04324    0.34683   -0.08341
 76 Co   -0.06442   -0.25519    0.08586
 77 Al    0.45134   -0.20787    0.42984
 78 Co   -0.04608   -0.22808   -0.01579
 79 Cr    0.49758    0.09247    0.02271
 80 Ni   -0.20944   -0.05716   -0.29565
 81 Fe   -0.15039    0.16067    0.22345
 82 Ni    0.46571   -0.04775    0.27742
 83 Fe    0.16096    0.14921   -0.33064
 84 Cr   -0.32591    0.37958   -0.42589
 85 Cr    0.30441   -0.09658    0.48219
 86 Cr    0.00906   -0.04956    0.24289
 87 Al    0.17126    0.24999   -0.21537
 88 Cr    0.01562    0.41000    0.40118
 89 Al    0.22078    0.27301   -0.02808
 90 Co    0.14313    0.20470    0.00552
 91 Ni   -0.28396    0.00202    0.34648
 92 Cr    0.05285   -0.30085    0.13168
 93 Co    0.01918   -0.20666   -0.11616
 94 Ni    0.24657    0.12427   -0.11954
 95 Fe    0.05539   -0.31644    0.04853
 96 Al    0.28892   -0.55230    0.55861
 97 Al   -0.84273   -0.18386   -0.15593
 98 Fe   -0.23368   -0.03681    0.27646
 99 Co   -0.14719   -0.01842   -0.09034
100 Fe   -0.25420   -0.14764   -0.09285
101 Co   -0.26726    0.35511   -0.12960
102 Al    0.51805   -0.13044    0.12964
103 Fe    0.07723    0.35922   -0.30088
104 Co   -0.03256   -0.04192   -0.28555
105 Ni   -0.07636   -0.30116    0.05085
106 Al   -0.29660    0.60044    0.17286
107 Cr    0.18580    0.19924   -0.32936

Timing:                              incl.     excl.
-----------------------------------------------------------
Forces:                             15.458    15.458   0.3% |
Hamiltonian:                         0.870     0.006   0.0% |
 Atomic:                             0.307     0.250   0.0% |
  XC Correction:                     0.058     0.058   0.0% |
 Calculate atomic Hamiltonians:      0.428     0.428   0.0% |
 Communicate:                        0.019     0.019   0.0% |
 Initialize Hamiltonian:             0.000     0.000   0.0% |
 Poisson:                            0.001     0.001   0.0% |
 XC 3D grid:                         0.108     0.108   0.0% |
LCAO initialization:                57.413     1.054   0.0% |
 LCAO eigensolver:                   5.920     0.009   0.0% |
  Calculate projections:             0.113     0.113   0.0% |
  DenseAtomicCorrection:             0.093     0.093   0.0% |
  Distribute overlap matrix:         1.066     1.066   0.0% |
  Orbital Layouts:                   2.910     2.910   0.1% |
  Potential matrix:                  1.268     1.268   0.0% |
  Sum over cells:                    0.462     0.462   0.0% |
 LCAO to grid:                      47.297    47.297   0.8% |
 Set positions (LCAO WFS):           3.142     2.400   0.0% |
  Basic WFS set positions:           0.004     0.004   0.0% |
  Basis functions set positions:     0.001     0.001   0.0% |
  P tci:                             0.173     0.173   0.0% |
  ST tci:                            0.196     0.196   0.0% |
  mktci:                             0.367     0.367   0.0% |
PWDescriptor:                        0.057     0.057   0.0% |
SCF-cycle:                        5676.187    58.528   1.0% |
 Davidson:                        5462.012  1207.673  21.0% |-------|
  Apply H:                          46.376    43.957   0.8% |
   HMM T:                            2.419     2.419   0.0% |
  Subspace diag:                   391.224     0.045   0.0% |
   calc_h_matrix:                  155.492   101.735   1.8% ||
    Apply H:                        53.757    51.845   0.9% |
     HMM T:                          1.912     1.912   0.0% |
   diagonalize:                     66.304    66.304   1.2% |
   rotate_psi:                     169.382   169.382   2.9% ||
  calc. matrices:                  881.782   803.656  14.0% |-----|
   Apply H:                         78.126    72.835   1.3% ||
    HMM T:                           5.291     5.291   0.1% |
  diagonalize:                    2567.523  2567.523  44.6% |-----------------|
  rotate_psi:                      367.434   367.434   6.4% |--|
 Density:                           76.344     0.003   0.0% |
  Atomic density matrices:           1.467     1.467   0.0% |
  Mix:                              51.690    51.690   0.9% |
  Multipole moments:                 0.076     0.076   0.0% |
  Pseudo density:                   23.108    23.101   0.4% |
   Symmetrize density:               0.007     0.007   0.0% |
 Hamiltonian:                       71.203     0.550   0.0% |
  Atomic:                           18.131    11.678   0.2% |
   XC Correction:                    6.454     6.454   0.1% |
  Calculate atomic Hamiltonians:    40.383    40.383   0.7% |
  Communicate:                       1.812     1.812   0.0% |
  Poisson:                           0.051     0.051   0.0% |
  XC 3D grid:                       10.276    10.276   0.2% |
 Orthonormalize:                     8.100     0.001   0.0% |
  calc_s_matrix:                     0.571     0.571   0.0% |
  inverse-cholesky:                  0.879     0.879   0.0% |
  projections:                       5.683     5.683   0.1% |
  rotate_psi_s:                      0.966     0.966   0.0% |
Set symmetry:                        0.001     0.001   0.0% |
Other:                               4.072     4.072   0.1% |
-----------------------------------------------------------
Total:                                      5754.057 100.0%

Date: Sat Apr  8 05:31:44 2023
