
  ___ ___ ___ _ _ _  
 |   |   |_  | | | | 
 | | | | | . | | | | 
 |__ |  _|___|_____|  22.8.0
 |___|_|             

User:   c.zeng@d0120
Date:   Mon Apr 17 04:30:33 2023
Arch:   x86_64
Pid:    21761
CWD:    /home/c.zeng/projects/hea-corrosion/hea-mlp/data-curation/surface-md/dft-jobs/14
Python: 3.8.1
gpaw:   /home/c.zeng/usr/installs/gpaw/source/gpaw-22.8.0/gpaw
_gpaw:  /home/c.zeng/usr/installs/gpaw/source/gpaw-22.8.0/
        _gpaw.cpython-38-x86_64-linux-gnu.so
ase:    /home/c.zeng/.local/lib/python3.8/site-packages/ase-3.22.1-py3.8.egg/ase (version 3.22.1)
numpy:  /home/c.zeng/.local/lib/python3.8/site-packages/numpy (version 1.24.2)
scipy:  /home/c.zeng/.local/lib/python3.8/site-packages/scipy (version 1.10.1)
libxc:  4.2.3
units:  Angstrom and eV
cores: 30
OpenMP: False
OMP_NUM_THREADS: 1

Input parameters:
  convergence: {energy: 0.0001}
  kpts: [2 2 1]
  maxiter: 666
  mode: {ecut: 350.0,
         name: pw}
  occupations: {fixmagmom: False,
                name: fermi-dirac,
                width: 0.1}
  poissonsolver: {dipolelayer: xy}
  spinpol: True
  symmetry: {point_group: False}
  xc: PBE

System changes: positions, numbers, cell, pbc, initial_charges, initial_magmoms 

Initialize ...

species:
  Cr:
    name: Chromium
    id: 33f258bda2ca9f93018e70263a35547b
    Z: 24.0
    valence: 6
    core: 18
    charge: 0.0
    file: /home/c.zeng/usr/data/gpaw-setups-0.9.20000/Cr.PBE.gz
    compensation charges: {type: gauss,
                           rc: 0.35,
                           lmax: 2}
    cutoffs: {filter: 2.14,
              core: 3.04}
    valence states:
      #              energy  rcut
      - 4s(1.00)    -4.007   1.164
      - 4p(0.00)    -0.989   1.217
      - 3d(5.00)    -2.913   1.111
      -  s          23.205   1.164
      -  p          26.223   1.217
      -  d          24.299   1.111
  
    # Using partial waves for Cr as LCAO basis

  Fe:
    name: Iron
    id: 37abbd8d6c3c35915a9b583b742da910
    Z: 26.0
    valence: 8
    core: 18
    charge: 0.0
    file: /home/c.zeng/usr/data/gpaw-setups-0.9.20000/Fe.PBE.gz
    compensation charges: {type: gauss,
                           rc: 0.33,
                           lmax: 2}
    cutoffs: {filter: 2.06,
              core: 2.67}
    valence states:
      #              energy  rcut
      - 4s(2.00)    -5.291   1.164
      - 4p(0.00)    -1.326   1.058
      - 3d(6.00)    -7.505   1.058
      -  s          21.920   1.164
      -  p          25.885   1.058
      -  d          19.706   1.058
  
    # Using partial waves for Fe as LCAO basis

  Ni:
    name: Nickel
    id: 0d9f38a9d6e76a2886f07bb4381f212b
    Z: 28.0
    valence: 16
    core: 12
    charge: 0.0
    file: /home/c.zeng/usr/data/gpaw-setups-0.9.20000/Ni.PBE.gz
    compensation charges: {type: gauss,
                           rc: 0.36,
                           lmax: 2}
    cutoffs: {filter: 2.14,
              core: 1.98}
    valence states:
      #              energy  rcut
      - 4s(2.00)    -5.642   1.164
      - 3p(6.00)   -71.394   1.207
      - 4p(0.00)    -1.226   1.207
      - 3d(8.00)    -8.875   1.138
      -  s          21.570   1.164
      -  d          18.337   1.138
  
    # Using partial waves for Ni as LCAO basis

  Co:
    name: Cobalt
    id: 339d20d5b0b93d2de9531a1bee871d91
    Z: 27.0
    valence: 9
    core: 18
    charge: 0.0
    file: /home/c.zeng/usr/data/gpaw-setups-0.9.20000/Co.PBE.gz
    compensation charges: {type: gauss,
                           rc: 0.32,
                           lmax: 2}
    cutoffs: {filter: 1.87,
              core: 2.55}
    valence states:
      #              energy  rcut
      - 4s(2.00)    -5.469   1.005
      - 4p(0.00)    -1.277   1.058
      - 3d(7.00)    -8.205   1.005
      -  s          21.742   1.005
      -  p          25.934   1.058
      -  d          19.007   1.005
  
    # Using partial waves for Co as LCAO basis

Reference energy: -4451268.207082  # eV

Spin-polarized calculation.
Magnetic moment: 175.600000

Convergence criteria:
 Maximum [total energy] change in last 3 cyles: 0.0001 eV / electron
 Maximum integral of absolute [dens]ity change: 0.0001 electrons / valence electron
 Maximum integral of absolute [eigenst]ate change: 4e-08 eV^2 / valence electron
 Maximum number of scf [iter]ations: 666
 (Square brackets indicate name in SCF output, whereas a 'c' in
 the SCF output indicates the quantity has converged.)

Symmetries present (total): 1

  ( 1  0  0)
  ( 0  1  0)
  ( 0  0  1)

4 k-points: 2 x 2 x 1 Monkhorst-Pack grid
2 k-points in the irreducible part of the Brillouin zone
       k-points in crystal coordinates                weights
   0:     0.25000000   -0.25000000    0.00000000          2/4
   1:     0.25000000    0.25000000    0.00000000          2/4

Wave functions: Plane wave expansion
  Cutoff energy: 350.000 eV
  Number of coefficients (min, max): 58495, 58567
  Pulay-stress correction: 0.000000 eV/Ang^3 (de/decut=0.000000)
  Using FFTW library
  ScaLapack parameters: grid=1x1, blocksize=None
  Wavefunction extrapolation:
    Improved wavefunction reuse through dual PAW basis 

Occupation numbers: Fermi-Dirac:
  width: 0.1000  # eV
 

Eigensolver
   Davidson(niter=2) 

Densities:
  Coarse grid: 54*54*128 grid
  Fine grid: 108*108*256 grid
  Total Charge: 0.000000 

Density mixing:
  Method: difference
  Backend: pulay
  Linear mixing parameter: 0.05
  old densities: 5
  Damping of long wavelength oscillations: 50 

Hamiltonian:
  XC and Coulomb potentials evaluated on a 108*108*256 grid
  Using the PBE Exchange-Correlation functional
  External potential:
    NoExternalPotential
 

XC parameters: PBE with 2 nearest neighbor stencil

Memory estimate:
  Process memory now: 355.99 MiB
  Calculator: 2405.48 MiB
    Density: 16.73 MiB
      Arrays: 6.75 MiB
      Localized functions: 7.29 MiB
      Mixer: 2.70 MiB
    Hamiltonian: 5.22 MiB
      Arrays: 5.01 MiB
      XC: 0.00 MiB
      Poisson: 0.00 MiB
      vbar: 0.21 MiB
    Wavefunctions: 2383.52 MiB
      Arrays psit_nG: 1501.35 MiB
      Eigensolver: 862.84 MiB
      Projections: 3.85 MiB
      Projectors: 0.98 MiB
      PW-descriptor: 14.51 MiB

Total number of cores used: 30
Parallelization over k-points: 2
Domain decomposition: 1 x 3 x 5

Number of atoms: 125
Number of atomic orbitals: 1218
Number of bands in calculation: 840
Number of valence electrons: 1217
Bands to converge: occupied

... initialized

Initializing position-dependent things.

Density initialized from atomic densities
Creating initial wave functions:
  840 bands from LCAO basis set

                                                                  
                                                                  
                                                                  
                                                                  
                                          Ni                      
                                                      Co          
                         Ni         Co     Cr     Cr              
                               Ni     Co     Cr                   
                Co  Cr     Ni   Cr          Co    Fe    Co        
                      Ni        Co Ni FCo    Fe    Fe             
                  Ni    FeCoNi   Ni  CrFeCr                       
            Co    Fe  Ni   CrCNi              Ni   Fe             
                       FNiFe   Co NFe    Fe    Cr                 
        Co        CNi       Ni      CFe Ni Co       Fe            
              Ni        CrFe   CCo     Fe Fe    Fe    Cr          
                  FCo     Co  Ni Co CFe    Co                     
              Fe     Cr  Ni   NCo     Cr         Fe   Cr          
                    Ni    CrFe   FCr Ni   NCo    Cr               
          Co   NFe    Fe Ni     Ni    FCr   Cr                    
          Fe    Co   Cr    CCr   CFe                              
                      CCr    Cr       Fe    Ni                    
            Co    Co    Co          Co                            
             Fe  Fe            Ni   Cr  Cr                        
                   Ni                                             
                                                                  
                                                                  
                                                                  
                                                                  
                                                                  

Positions:
   0 Cr    11.949706    1.170559   10.306824    ( 0.0000,  0.0000,  0.0000)
   1 Fe     2.221136    1.701713    9.878972    ( 0.0000,  0.0000,  2.0000)
   2 Ni     4.923373    1.693525    9.560421    ( 0.0000,  0.0000,  1.5000)
   3 Co     7.068658    1.465052   10.727634    ( 0.0000,  0.0000,  2.1000)
   4 Ni     9.637171    1.425368   10.031925    ( 0.0000,  0.0000,  1.5000)
   5 Cr    13.077669    3.311543    9.697701    ( 0.0000,  0.0000,  0.0000)
   6 Fe     3.463309    3.701619    9.402726    ( 0.0000,  0.0000,  2.0000)
   7 Cr     5.748035    3.415535   11.018751    ( 0.0000,  0.0000,  0.0000)
   8 Cr     8.329533    3.585501   10.451646    ( 0.0000,  0.0000,  0.0000)
   9 Cr    11.060685    3.426016   10.413203    ( 0.0000,  0.0000,  0.0000)
  10 Ni    13.899631    5.648233    9.825645    ( 0.0000,  0.0000,  1.5000)
  11 Cr     4.434793    5.504432   10.977792    ( 0.0000,  0.0000,  0.0000)
  12 Cr     7.146384    5.534623   10.684171    ( 0.0000,  0.0000,  0.0000)
  13 Cr     9.277117    5.817002   10.403086    ( 0.0000,  0.0000,  0.0000)
  14 Fe    11.552311    5.464084    9.398095    ( 0.0000,  0.0000,  2.0000)
  15 Cr    15.453676    7.269990   11.056208    ( 0.0000,  0.0000,  0.0000)
  16 Ni     5.783106    7.701249   10.604356    ( 0.0000,  0.0000,  1.5000)
  17 Ni     8.442176    7.954318    9.839204    ( 0.0000,  0.0000,  1.5000)
  18 Fe    10.862481    7.841776   10.254742    ( 0.0000,  0.0000,  2.0000)
  19 Cr    13.314282    8.012959    9.754186    ( 0.0000,  0.0000,  0.0000)
  20 Cr    17.100511    9.792387   10.537079    ( 0.0000,  0.0000,  0.0000)
  21 Ni     7.153227   10.074158   10.354182    ( 0.0000,  0.0000,  1.5000)
  22 Cr     9.730558   10.284815    9.884783    ( 0.0000,  0.0000,  0.0000)
  23 Ni    12.151542   10.055994    9.962966    ( 0.0000,  0.0000,  1.5000)
  24 Fe    14.692971    9.987343   10.797754    ( 0.0000,  0.0000,  2.0000)
  25 Co    12.259074   -0.426147   12.381580    ( 0.0000,  0.0000,  2.1000)
  26 Co     2.208182   -0.088792   12.128681    ( 0.0000,  0.0000,  2.1000)
  27 Co     4.723349    0.160437   11.784681    ( 0.0000,  0.0000,  2.1000)
  28 Cr     6.930419   -0.017658   13.074332    ( 0.0000,  0.0000,  0.0000)
  29 Fe    16.024278   10.588899   12.901051    ( 0.0000,  0.0000,  2.0000)
  30 Fe     1.045794    2.146181   12.009399    ( 0.0000,  0.0000,  2.0000)
  31 Co     3.571313    2.107735   11.978541    ( 0.0000,  0.0000,  2.1000)
  32 Fe     5.900839    2.071608   13.154433    ( 0.0000,  0.0000,  2.0000)
  33 Cr     8.430768    1.929867   12.636618    ( 0.0000,  0.0000,  0.0000)
  34 Fe    10.986456    1.891396   12.359630    ( 0.0000,  0.0000,  2.0000)
  35 Ni     2.428505    4.424989   11.818018    ( 0.0000,  0.0000,  1.5000)
  36 Ni     4.653077    4.136549   12.840026    ( 0.0000,  0.0000,  1.5000)
  37 Cr     7.054576    4.227084   12.575419    ( 0.0000,  0.0000,  0.0000)
  38 Fe     9.789745    3.784766   12.734694    ( 0.0000,  0.0000,  2.0000)
  39 Cr    12.345245    4.348034   12.286423    ( 0.0000,  0.0000,  0.0000)
  40 Fe     3.357553    6.274896   13.308876    ( 0.0000,  0.0000,  2.0000)
  41 Ni     5.997754    6.323184   12.906658    ( 0.0000,  0.0000,  1.5000)
  42 Co     8.473856    6.461990   12.575846    ( 0.0000,  0.0000,  2.1000)
  43 Ni    11.044026    6.391120   12.139987    ( 0.0000,  0.0000,  1.5000)
  44 Co    13.383364    6.717587   11.754996    ( 0.0000,  0.0000,  2.1000)
  45 Cr    17.164368    8.452313   12.801565    ( 0.0000,  0.0000,  0.0000)
  46 Ni     7.379055    8.475299   12.400969    ( 0.0000,  0.0000,  1.5000)
  47 Co     9.734335    8.733760   12.132061    ( 0.0000,  0.0000,  2.1000)
  48 Ni    12.634711    9.063774   11.792221    ( 0.0000,  0.0000,  1.5000)
  49 Fe    14.577204    8.713157   13.000354    ( 0.0000,  0.0000,  2.0000)
  50 Co     1.460853    0.431526   14.182955    ( 0.0000,  0.0000,  2.1000)
  51 Fe     3.839444    0.748168   14.146732    ( 0.0000,  0.0000,  2.0000)
  52 Cr     6.019161    0.669630   15.561619    ( 0.0000,  0.0000,  0.0000)
  53 Fe     8.744206    0.747145   14.810476    ( 0.0000,  0.0000,  2.0000)
  54 Cr    11.086128    0.612469   14.762562    ( 0.0000,  0.0000,  0.0000)
  55 Fe     2.534336    2.906408   14.067606    ( 0.0000,  0.0000,  2.0000)
  56 Co     4.662118    2.798764   15.427992    ( 0.0000,  0.0000,  2.1000)
  57 Co     7.554591    2.758573   15.102607    ( 0.0000,  0.0000,  2.1000)
  58 Co    10.054618    2.880712   14.932468    ( 0.0000,  0.0000,  2.1000)
  59 Cr    12.411526    2.606596   14.243787    ( 0.0000,  0.0000,  0.0000)
  60 Co     3.464245    4.948768   15.508282    ( 0.0000,  0.0000,  2.1000)
  61 Cr     5.800186    4.814041   14.942450    ( 0.0000,  0.0000,  0.0000)
  62 Co     8.862982    4.926997   14.903205    ( 0.0000,  0.0000,  2.1000)
  63 Fe    11.451267    4.976700   14.347472    ( 0.0000,  0.0000,  2.0000)
  64 Co    13.694503    4.885223   14.116385    ( 0.0000,  0.0000,  2.1000)
  65 Fe     4.915925    7.126549   15.091564    ( 0.0000,  0.0000,  2.0000)
  66 Ni     7.330102    6.639288   14.671421    ( 0.0000,  0.0000,  1.5000)
  67 Cr    10.201298    7.414758   14.483616    ( 0.0000,  0.0000,  0.0000)
  68 Fe    12.552513    7.033209   14.117725    ( 0.0000,  0.0000,  2.0000)
  69 Cr    14.751827    7.005198   15.261435    ( 0.0000,  0.0000,  0.0000)
  70 Cr     6.065117    9.233308   14.948667    ( 0.0000,  0.0000,  0.0000)
  71 Ni     8.851530    9.323466   14.420750    ( 0.0000,  0.0000,  1.5000)
  72 Ni    11.294826    9.397730   13.795394    ( 0.0000,  0.0000,  1.5000)
  73 Co    13.645348    9.243536   15.144701    ( 0.0000,  0.0000,  2.1000)
  74 Fe    15.973630    9.186066   15.067169    ( 0.0000,  0.0000,  2.0000)
  75 Fe    12.805636    1.531588   16.825193    ( 0.0000,  0.0000,  2.0000)
  76 Ni     2.570813    1.643798   16.364963    ( 0.0000,  0.0000,  1.5000)
  77 Ni     4.793347    1.482194   17.424784    ( 0.0000,  0.0000,  1.5000)
  78 Fe     7.772499    1.602451   17.021107    ( 0.0000,  0.0000,  2.0000)
  79 Co    10.257085    1.621992   17.099044    ( 0.0000,  0.0000,  2.1000)
  80 Co    14.033141    3.749092   16.314803    ( 0.0000,  0.0000,  2.1000)
  81 Fe     4.061312    3.599037   17.855535    ( 0.0000,  0.0000,  2.0000)
  82 Ni     6.393260    3.590339   17.096696    ( 0.0000,  0.0000,  1.5000)
  83 Co     9.082735    3.895991   17.045806    ( 0.0000,  0.0000,  2.1000)
  84 Fe    11.491810    3.630991   16.727135    ( 0.0000,  0.0000,  2.0000)
  85 Ni    14.894750    5.556957   17.516804    ( 0.0000,  0.0000,  1.5000)
  86 Ni     5.015578    5.703802   17.160308    ( 0.0000,  0.0000,  1.5000)
  87 Co     7.667340    5.901516   16.956115    ( 0.0000,  0.0000,  2.1000)
  88 Fe    10.384768    5.642183   16.613968    ( 0.0000,  0.0000,  2.0000)
  89 Fe    12.768414    5.952747   16.144187    ( 0.0000,  0.0000,  2.0000)
  90 Fe    16.019518    7.879987   17.157702    ( 0.0000,  0.0000,  2.0000)
  91 Co     6.250397    7.599872   16.873932    ( 0.0000,  0.0000,  2.1000)
  92 Ni     8.818077    7.906990   16.427542    ( 0.0000,  0.0000,  1.5000)
  93 Fe    11.451248    8.007604   16.330639    ( 0.0000,  0.0000,  2.0000)
  94 Fe    13.739658    7.822254   17.343493    ( 0.0000,  0.0000,  2.0000)
  95 Co    17.718058   10.107137   17.007682    ( 0.0000,  0.0000,  2.1000)
  96 Co     7.765083   10.149007   16.391695    ( 0.0000,  0.0000,  2.1000)
  97 Fe    10.142117   10.226345   16.369990    ( 0.0000,  0.0000,  2.0000)
  98 Co    12.720376   10.078725   17.406091    ( 0.0000,  0.0000,  2.1000)
  99 Fe    15.276889   10.256056   16.924131    ( 0.0000,  0.0000,  2.0000)
 100 Co     0.522032    0.162706   18.591406    ( 0.0000,  0.0000,  2.1000)
 101 Co     9.291814   11.128740   18.521645    ( 0.0000,  0.0000,  2.1000)
 102 Ni    11.647263   10.986729   19.586029    ( 0.0000,  0.0000,  1.5000)
 103 Fe     7.996037    0.228074   19.266762    ( 0.0000,  0.0000,  2.0000)
 104 Co    16.703744   11.030675   18.950380    ( 0.0000,  0.0000,  2.1000)
 105 Co     1.851825    2.465560   18.355868    ( 0.0000,  0.0000,  2.1000)
 106 Ni     4.076381    2.177646   19.873583    ( 0.0000,  0.0000,  1.5000)
 107 Fe     6.463928    2.429743   19.273981    ( 0.0000,  0.0000,  2.0000)
 108 Ni     8.954629    2.346619   18.845156    ( 0.0000,  0.0000,  1.5000)
 109 Cr    12.000773    2.402530   19.197118    ( 0.0000,  0.0000,  0.0000)
 110 Co     2.877659    4.198479   20.138912    ( 0.0000,  0.0000,  2.1000)
 111 Ni     5.389549    4.588157   19.466645    ( 0.0000,  0.0000,  1.5000)
 112 Ni     7.760360    4.452706   18.831018    ( 0.0000,  0.0000,  1.5000)
 113 Ni    10.335951    4.753104   19.000518    ( 0.0000,  0.0000,  1.5000)
 114 Cr    13.177106    4.567050   18.347847    ( 0.0000,  0.0000,  0.0000)
 115 Cr     4.076916    6.622543   19.191375    ( 0.0000,  0.0000,  0.0000)
 116 Ni     6.564951    6.878223   19.235387    ( 0.0000,  0.0000,  1.5000)
 117 Cr     8.975710    6.574244   18.763321    ( 0.0000,  0.0000,  0.0000)
 118 Co    11.821260    6.636443   18.315748    ( 0.0000,  0.0000,  2.1000)
 119 Cr    14.230629    6.367006   19.740874    ( 0.0000,  0.0000,  0.0000)
 120 Ni     5.311348    8.968204   19.203216    ( 0.0000,  0.0000,  1.5000)
 121 Ni     7.980097    8.885391   18.402915    ( 0.0000,  0.0000,  1.5000)
 122 Co    10.536855    8.982629   18.459395    ( 0.0000,  0.0000,  2.1000)
 123 Cr    12.838272    8.664621   19.480431    ( 0.0000,  0.0000,  0.0000)
 124 Cr    15.398006    8.886364   19.238007    ( 0.0000,  0.0000,  0.0000)

Unit cell:
           periodic     x           y           z      points  spacing
  1. axis:    yes   12.446800    0.000000    0.000000    54     0.1996
  2. axis:    yes    6.223010   10.778600    0.000000    54     0.1996
  3. axis:    no     0.000000    0.000000   29.353100   128     0.2293

  Lengths:  12.446800  12.446046  29.353100
  Angles:   90.000000  90.000000  60.000070

Effective grid spacing dv^(1/3) = 0.2193

     iter     time        total  log10-change:  magmom
                         energy  eigst   dens
iter:   1 04:41:33 -1248.505780                  +175.9175
iter:   2 04:45:26 -1132.767504  -0.02  -1.11    +98.4931
iter:   3 04:49:20 -1108.678552  -0.46  -1.11    +81.1835
iter:   4 04:53:12 -1007.689459  -1.02  -1.12    +74.6813
iter:   5 04:56:58 -1099.968097  -1.16  -1.31    +68.5903
iter:   6 05:00:43 -1014.494182  -1.40  -1.10    +66.3276
iter:   7 05:04:29  -997.023998  -1.58  -1.27    +62.4934
iter:   8 05:08:13  -992.944838  -1.73  -1.32    +63.6254
iter:   9 05:11:59  -984.619212  -1.51  -1.33    +66.4901
iter:  10 05:15:44  -994.908807  -1.35  -1.41    +68.0295
iter:  11 05:19:30 -1131.492303  -1.16  -1.40    +69.4760
iter:  12 05:23:15 -1214.093998  -0.88  -1.13    +68.5534
iter:  13 05:27:00 -1012.672694  -1.53  -1.04    +57.2750
iter:  14 05:30:47 -1011.892416  -1.91  -1.40    +60.4811
iter:  15 05:34:33  -998.743144  -2.25  -1.37    +63.0332
iter:  16 05:38:17  -977.012071  -2.13  -1.41    +65.7616
iter:  17 05:42:12 -1200.081570  -1.09  -1.55    +69.9973
iter:  18 05:46:03  -988.966017  -1.23  -1.06    +66.3602
iter:  19 05:50:10  -973.246059  -2.27  -1.48    +67.1195
iter:  20 05:54:08  -974.255899  -2.31  -1.62    +72.9046
iter:  21 05:57:53  -981.204704  -1.98  -1.62    +75.9024
iter:  22 06:01:38  -973.172473  -2.26  -1.56    +77.0029
iter:  23 06:05:23  -975.892764  -1.85  -1.65    +78.8293
iter:  24 06:09:09  -973.465090  -1.92  -1.68    +79.1425
iter:  25 06:12:54  -986.280762  -2.11  -1.72    +80.0348
iter:  26 06:16:39  -970.007714  -2.27  -1.57    +83.1147
iter:  27 06:20:24  -979.295250  -2.31  -1.87    +82.1536
iter:  28 06:24:17  -971.765749  -2.21  -1.69    +84.1441
iter:  29 06:28:04  -968.138655  -2.61  -1.81    +84.9482
iter:  30 06:31:53  -970.578769  -2.58  -2.03    +83.6749
iter:  31 06:35:40  -971.592395  -2.60  -1.98    +82.6543
iter:  32 06:39:27  -970.588983  -2.69  -2.01    +82.4592
iter:  33 06:43:15  -970.041235  -3.06  -2.06    +84.0286
iter:  34 06:47:02  -972.375014  -2.75  -2.20    +84.2630
iter:  35 06:50:48  -971.714219  -2.89  -2.04    +84.4639
iter:  36 06:54:33  -970.857083  -3.03  -2.08    +84.2832
iter:  37 06:58:21  -970.660409  -3.14  -2.24    +84.5975
iter:  38 07:02:09  -971.616392  -3.07  -2.28    +85.0676
iter:  39 07:05:56  -970.646727  -3.33  -2.15    +84.4647
iter:  40 07:09:43  -971.100761  -3.37  -2.36    +84.4129
iter:  41 07:13:30  -971.570872  -3.08  -2.28    +84.1190
iter:  42 07:17:17  -970.630085  -3.46  -2.19    +84.2914
iter:  43 07:21:02  -971.230323  -3.40  -2.49    +84.5226
iter:  44 07:24:48  -970.676571  -3.68  -2.32    +84.4980
iter:  45 07:28:15  -970.807606  -3.51  -2.56    +84.7510
iter:  46 07:31:17  -970.745878  -3.90  -2.52    +84.7518
iter:  47 07:34:20  -971.628612  -3.61  -2.62    +84.7560
iter:  48 07:37:24  -970.898071  -4.07  -2.25    +84.6816
iter:  49 07:40:29  -970.893996  -3.92  -2.56    +84.4537
iter:  50 07:43:33  -970.910355c -4.45  -2.64    +84.4778
iter:  51 07:46:38  -971.056132  -3.88  -2.67    +84.3156
iter:  52 07:49:42  -971.027462  -4.09  -2.68    +84.4036
iter:  53 07:52:47  -972.256581  -3.43  -2.69    +84.3374
iter:  54 07:55:52  -971.168009  -3.59  -2.23    +84.3772
iter:  55 07:58:58  -971.585012  -3.58  -2.69    +84.4693
iter:  56 08:02:04  -971.268665  -3.88  -2.43    +84.1297
iter:  57 08:05:11  -971.316117  -4.01  -2.77    +84.0185
iter:  58 08:08:17  -971.418287  -4.11  -2.78    +83.7795
iter:  59 08:11:24  -971.923790  -2.87  -2.75    +82.6935
iter:  60 08:14:30  -971.736564  -3.54  -2.48    +83.5699
iter:  61 08:17:36  -971.719391  -3.94  -2.61    +83.3000
iter:  62 08:20:43  -971.741671c -4.12  -2.70    +83.2421
iter:  63 08:23:50  -972.073280  -3.72  -2.70    +83.0992
iter:  64 08:26:56  -972.275675  -3.70  -2.43    +83.1443
iter:  65 08:30:03  -971.926277  -3.72  -2.36    +83.5694
iter:  66 08:33:09  -971.838000  -3.56  -2.55    +83.6328
iter:  67 08:36:16  -972.051291  -3.92  -2.59    +83.3356
iter:  68 08:39:23  -973.360468  -3.13  -2.46    +83.2787
iter:  69 08:42:29  -971.815385  -3.50  -2.14    +83.2222
iter:  70 08:45:36  -971.797785  -3.72  -2.65    +83.1025
iter:  71 08:48:43  -971.698525c -4.01  -2.66    +82.9738
iter:  72 08:51:50  -971.789468c -3.96  -2.86    +82.5480
iter:  73 08:54:56  -971.687974c -4.15  -2.71    +82.7000
iter:  74 08:58:03  -972.288411  -3.85  -2.92    +82.6137
iter:  75 09:01:09  -971.786103  -3.77  -2.38    +82.6251
iter:  76 09:04:15  -971.681548  -4.62  -2.67    +82.5353
iter:  77 09:07:22  -971.769544c -4.16  -3.00    +82.3626
iter:  78 09:10:28  -971.702300c -4.30  -2.76    +82.2346
iter:  79 09:13:35  -971.717452c -4.12  -2.99    +81.8914
iter:  80 09:16:41  -971.720841c -4.56  -2.93    +81.9903
iter:  81 09:19:48  -972.052776  -3.89  -2.89    +81.9020
iter:  82 09:22:54  -971.690850  -4.33  -2.48    +82.0463
iter:  83 09:26:01  -971.682053  -4.87  -3.15    +82.1131
iter:  84 09:29:07  -971.678126c -5.33  -3.27    +82.1448
iter:  85 09:32:14  -971.683352c -5.12  -3.35    +82.1684
iter:  86 09:35:21  -971.678228c -5.51  -3.23    +82.1500
iter:  87 09:38:27  -971.679137c -5.34  -3.43    +82.1593
iter:  88 09:41:34  -971.684723c -5.10  -3.44    +82.1535
iter:  89 09:44:41  -971.694853c -4.94  -3.32    +82.1466
iter:  90 09:47:47  -971.697273c -4.97  -3.14    +82.1464
iter:  91 09:50:54  -971.684419c -5.03  -3.16    +82.1535
iter:  92 09:54:00  -971.680451c -5.24  -3.43    +82.2393
iter:  93 09:57:07  -971.679208c -5.90  -3.38    +82.1757
iter:  94 10:00:13  -971.680442c -5.82  -3.57    +82.1648
iter:  95 10:03:20  -971.677870c -6.18  -3.47    +82.1409
iter:  96 10:06:27  -971.679882c -5.98  -3.72    +82.1407
iter:  97 10:09:33  -971.678388c -6.34  -3.58    +82.1285
iter:  98 10:12:40  -971.698874c -5.28  -3.78    +82.1378
iter:  99 10:15:47  -971.678988c -5.67  -3.18    +82.1432
iter: 100 10:18:54  -971.679150c -6.21  -3.95    +82.1394
iter: 101 10:22:00  -971.679399c -6.61  -3.94    +82.1575
iter: 102 10:25:07  -971.679515c -6.52  -4.07c   +82.1735
iter: 103 10:28:14  -971.679655c -6.93  -4.07c   +82.1758
iter: 104 10:31:21  -971.680038c -6.76  -4.17c   +82.1774
iter: 105 10:34:29  -971.679702c -7.11  -4.30c   +82.1890
iter: 106 10:37:36  -971.680057c -6.69  -4.11c   +82.1963
iter: 107 10:40:43  -971.680324c -6.97  -4.25c   +82.1985
iter: 108 10:43:50  -971.680332c -6.84  -4.28c   +82.2124
iter: 109 10:46:58  -971.680549c -6.82  -4.21c   +82.2178
iter: 110 10:50:05  -971.680682c -6.93  -4.41c   +82.2256
iter: 111 10:53:13  -971.681008c -7.17  -4.41c   +82.2308
iter: 112 10:56:20  -971.680798c -7.41c -4.31c   +82.2270

Converged after 112 iterations.

Dipole moment: (-10.634522, -2.804798, 0.071096) |e|*Ang

Total magnetic moment: (0.000000, 0.000000, 82.226970)
Local magnetic moments:
   0 Cr ( 0.000000,  0.000000, -0.676484)
   1 Fe ( 0.000000,  0.000000,  2.407486)
   2 Ni ( 0.000000,  0.000000,  0.470390)
   3 Co ( 0.000000,  0.000000,  1.118480)
   4 Ni ( 0.000000,  0.000000,  0.094653)
   5 Cr ( 0.000000,  0.000000, -1.956237)
   6 Fe ( 0.000000,  0.000000,  2.972452)
   7 Cr ( 0.000000,  0.000000,  0.108713)
   8 Cr ( 0.000000,  0.000000, -1.781148)
   9 Cr ( 0.000000,  0.000000,  0.980006)
  10 Ni ( 0.000000,  0.000000,  0.322769)
  11 Cr ( 0.000000,  0.000000, -1.977310)
  12 Cr ( 0.000000,  0.000000,  1.080768)
  13 Cr ( 0.000000,  0.000000, -1.163064)
  14 Fe ( 0.000000,  0.000000,  2.765303)
  15 Cr ( 0.000000,  0.000000,  1.908667)
  16 Ni ( 0.000000,  0.000000,  0.007943)
  17 Ni ( 0.000000,  0.000000,  0.321276)
  18 Fe ( 0.000000,  0.000000,  2.643616)
  19 Cr ( 0.000000,  0.000000, -2.823894)
  20 Cr ( 0.000000,  0.000000, -2.493854)
  21 Ni ( 0.000000,  0.000000,  0.173358)
  22 Cr ( 0.000000,  0.000000, -2.969890)
  23 Ni ( 0.000000,  0.000000,  0.347951)
  24 Fe ( 0.000000,  0.000000,  2.587503)
  25 Co ( 0.000000,  0.000000,  0.363846)
  26 Co ( 0.000000,  0.000000,  1.623396)
  27 Co ( 0.000000,  0.000000,  1.449267)
  28 Cr ( 0.000000,  0.000000,  0.166808)
  29 Fe ( 0.000000,  0.000000,  1.711028)
  30 Fe ( 0.000000,  0.000000,  2.318062)
  31 Co ( 0.000000,  0.000000,  1.589761)
  32 Fe ( 0.000000,  0.000000,  1.987238)
  33 Cr ( 0.000000,  0.000000, -1.518258)
  34 Fe ( 0.000000,  0.000000,  1.635215)
  35 Ni ( 0.000000,  0.000000,  0.293571)
  36 Ni ( 0.000000,  0.000000,  0.122184)
  37 Cr ( 0.000000,  0.000000, -0.236610)
  38 Fe ( 0.000000,  0.000000,  2.164778)
  39 Cr ( 0.000000,  0.000000, -1.621734)
  40 Fe ( 0.000000,  0.000000,  2.327328)
  41 Ni ( 0.000000,  0.000000,  0.167716)
  42 Co ( 0.000000,  0.000000,  1.363242)
  43 Ni ( 0.000000,  0.000000,  0.372838)
  44 Co ( 0.000000,  0.000000,  1.125592)
  45 Cr ( 0.000000,  0.000000, -1.909671)
  46 Ni ( 0.000000,  0.000000,  0.367037)
  47 Co ( 0.000000,  0.000000,  1.619067)
  48 Ni ( 0.000000,  0.000000,  0.317827)
  49 Fe ( 0.000000,  0.000000,  2.126201)
  50 Co ( 0.000000,  0.000000,  1.573993)
  51 Fe ( 0.000000,  0.000000,  2.597560)
  52 Cr ( 0.000000,  0.000000, -2.341432)
  53 Fe ( 0.000000,  0.000000,  1.763932)
  54 Cr ( 0.000000,  0.000000,  0.952464)
  55 Fe ( 0.000000,  0.000000,  2.629620)
  56 Co ( 0.000000,  0.000000,  1.365992)
  57 Co ( 0.000000,  0.000000,  1.380850)
  58 Co ( 0.000000,  0.000000,  1.424656)
  59 Cr ( 0.000000,  0.000000, -2.122183)
  60 Co ( 0.000000,  0.000000,  1.197924)
  61 Cr ( 0.000000,  0.000000, -2.167803)
  62 Co ( 0.000000,  0.000000,  1.651805)
  63 Fe ( 0.000000,  0.000000,  1.872196)
  64 Co ( 0.000000,  0.000000,  1.129979)
  65 Fe ( 0.000000,  0.000000,  2.031491)
  66 Ni ( 0.000000,  0.000000,  0.430852)
  67 Cr ( 0.000000,  0.000000, -2.233744)
  68 Fe ( 0.000000,  0.000000,  2.221782)
  69 Cr ( 0.000000,  0.000000, -1.855464)
  70 Cr ( 0.000000,  0.000000, -1.932957)
  71 Ni ( 0.000000,  0.000000,  0.375180)
  72 Ni ( 0.000000,  0.000000,  0.366038)
  73 Co ( 0.000000,  0.000000,  1.299855)
  74 Fe ( 0.000000,  0.000000,  1.889148)
  75 Fe ( 0.000000,  0.000000,  2.455263)
  76 Ni ( 0.000000,  0.000000,  0.652292)
  77 Ni ( 0.000000,  0.000000,  0.556669)
  78 Fe ( 0.000000,  0.000000,  2.469711)
  79 Co ( 0.000000,  0.000000,  1.533087)
  80 Co ( 0.000000,  0.000000,  1.387344)
  81 Fe ( 0.000000,  0.000000,  2.791244)
  82 Ni ( 0.000000,  0.000000,  0.522073)
  83 Co ( 0.000000,  0.000000,  1.469593)
  84 Fe ( 0.000000,  0.000000,  2.345401)
  85 Ni ( 0.000000,  0.000000,  0.217206)
  86 Ni ( 0.000000,  0.000000,  0.376235)
  87 Co ( 0.000000,  0.000000,  1.528982)
  88 Fe ( 0.000000,  0.000000,  2.395158)
  89 Fe ( 0.000000,  0.000000,  1.865399)
  90 Fe ( 0.000000,  0.000000,  2.004915)
  91 Co ( 0.000000,  0.000000,  1.570853)
  92 Ni ( 0.000000,  0.000000,  0.423856)
  93 Fe ( 0.000000,  0.000000,  2.346922)
  94 Fe ( 0.000000,  0.000000,  2.027380)
  95 Co ( 0.000000,  0.000000,  1.427853)
  96 Co ( 0.000000,  0.000000,  1.479917)
  97 Fe ( 0.000000,  0.000000,  2.629797)
  98 Co ( 0.000000,  0.000000,  1.300300)
  99 Fe ( 0.000000,  0.000000,  2.440991)
 100 Co ( 0.000000,  0.000000,  1.618665)
 101 Co ( 0.000000,  0.000000,  1.796998)
 102 Ni ( 0.000000,  0.000000,  0.635006)
 103 Fe ( 0.000000,  0.000000,  2.672822)
 104 Co ( 0.000000,  0.000000,  1.573574)
 105 Co ( 0.000000,  0.000000,  1.277622)
 106 Ni ( 0.000000,  0.000000,  0.733258)
 107 Fe ( 0.000000,  0.000000,  2.962971)
 108 Ni ( 0.000000,  0.000000,  0.717338)
 109 Cr ( 0.000000,  0.000000, -3.294475)
 110 Co ( 0.000000,  0.000000,  1.801985)
 111 Ni ( 0.000000,  0.000000,  0.503581)
 112 Ni ( 0.000000,  0.000000,  0.555958)
 113 Ni ( 0.000000,  0.000000,  0.414564)
 114 Cr ( 0.000000,  0.000000, -1.984094)
 115 Cr ( 0.000000,  0.000000, -2.481221)
 116 Ni ( 0.000000,  0.000000,  0.334995)
 117 Cr ( 0.000000,  0.000000, -2.825062)
 118 Co ( 0.000000,  0.000000,  1.384963)
 119 Cr ( 0.000000,  0.000000,  2.758754)
 120 Ni ( 0.000000,  0.000000,  0.287830)
 121 Ni ( 0.000000,  0.000000,  0.550870)
 122 Co ( 0.000000,  0.000000,  1.680623)
 123 Cr ( 0.000000,  0.000000, -3.036108)
 124 Cr ( 0.000000,  0.000000, -2.457304)

Energy contributions relative to reference atoms: (reference = -4451268.207082)

Kinetic:       +271.145407
Potential:     -315.477282
External:        +0.000000
XC:            -968.604268
Entropy (-ST):   -5.534377
Local:          +44.022533
--------------------------
Free energy:   -974.447987
Extrapolated:  -971.680798

Dipole-layer corrected work functions: 4.728407, 4.632514 eV

Spin contamination: 58.858830 electrons
Showing all kpts
                      Up                     Down
 Kpt  Band  Eigenvalues  Occupancy  Eigenvalues  Occupancy
  0   606      0.08087    0.99859      1.08100    0.03106
  0   607      0.08129    0.99858      1.08497    0.02989
  0   608      0.09225    0.99842      1.09411    0.02735
  0   609      0.11222    0.99807      1.10641    0.02426

  1   606      0.09615    0.99835      1.07686    0.03234
  1   607      0.10307    0.99824      1.09067    0.02828
  1   608      0.12370    0.99783      1.09493    0.02713
  1   609      0.13194    0.99765      1.10365    0.02493


Fermi level: 0.73699

No gap

Forces in eV/Ang:
  0 Cr    0.57963    0.35571    0.41975
  1 Fe    0.42408   -0.83213    0.59526
  2 Ni   -0.68625   -0.51434    0.74887
  3 Co    0.07857   -0.59468    0.41183
  4 Ni   -0.64880   -0.31759    1.13558
  5 Cr    0.52919    0.62185    0.31592
  6 Fe   -0.16064    0.12813    1.00884
  7 Cr    0.32988   -0.65198   -1.04789
  8 Cr    0.40152   -0.79628    0.11514
  9 Cr   -0.98760    0.02044    0.40134
 10 Ni    0.78466   -1.00910   -0.28681
 11 Cr    0.32447    0.94294   -0.85746
 12 Cr   -0.42730    0.80879   -0.33471
 13 Cr    0.96050   -0.35725    0.52832
 14 Fe    0.15057    0.97770    0.58125
 15 Cr    1.36910    0.96203   -0.68253
 16 Ni    0.18562   -0.26556    0.66177
 17 Ni   -0.36241    0.16184    1.10408
 18 Fe    0.15413    0.21725   -0.31640
 19 Cr    0.39373   -0.57377   -0.63426
 20 Cr   -1.19071   -0.04445   -0.11165
 21 Ni    0.24805   -0.69898   -1.01078
 22 Cr   -0.42719   -0.41592   -0.28157
 23 Ni   -0.20046    1.95069   -2.06784
 24 Fe   -0.18410    0.48270    0.23838
 25 Co   -0.88821    1.67703    1.04229
 26 Co    0.94522    0.49406    0.10412
 27 Co    0.42911    0.02737    0.87690
 28 Cr    1.07419    1.26059    0.69409
 29 Fe    0.08527    0.12860   -0.72939
 30 Fe   -0.01811   -0.10423    0.17081
 31 Co   -0.28642    0.53848   -0.62942
 32 Fe    0.15770   -0.31012    0.52836
 33 Cr    0.09097   -0.29211   -0.18853
 34 Fe    0.34891   -0.74089    0.14248
 35 Ni   -0.72355   -0.20463   -0.11787
 36 Ni   -1.36204    0.25225    2.26776
 37 Cr    1.16173   -0.42667    0.52528
 38 Fe   -0.54323    2.07640   -0.30515
 39 Cr    0.14997    0.17790   -1.20782
 40 Fe   -0.19189   -0.45903   -0.21593
 41 Ni   -1.03919    0.30912   -1.04523
 42 Co    0.99033   -0.74708   -0.05790
 43 Ni   -1.02614   -0.08498    0.36251
 44 Co   -0.25719   -0.41980    1.60698
 45 Cr   -0.43245   -0.60200    0.00651
 46 Ni   -0.52161   -0.42254    0.22154
 47 Co    0.54805   -0.78488   -0.36612
 48 Ni   -1.07615   -2.47068    1.11259
 49 Fe    0.27104   -1.34722    0.57350
 50 Co   -1.70113    2.25751    0.78483
 51 Fe    0.19685    0.24021   -0.32660
 52 Cr    0.61205   -0.30093   -1.76097
 53 Fe   -0.88339   -0.25308    0.25226
 54 Cr    1.14482   -0.40272    0.07920
 55 Fe    0.50301   -0.32867   -0.21325
 56 Co    0.12266   -0.38293   -0.64755
 57 Co   -0.54066    1.03549   -1.35499
 58 Co   -0.38419   -0.28841   -0.24595
 59 Cr    0.38627   -0.05340    0.66801
 60 Co    0.37632   -0.47243   -1.28047
 61 Cr    0.49348   -0.13129   -0.04808
 62 Co   -0.13834    0.21786   -0.86529
 63 Fe   -2.05161   -0.53388    0.34373
 64 Co    1.64060    0.42598   -0.31359
 65 Fe   -0.33769   -0.43691   -0.56129
 66 Ni    0.82910    2.00270    1.05659
 67 Cr   -0.45612   -2.10089   -0.57478
 68 Fe    0.23505    1.83506   -1.11977
 69 Cr   -0.08573    0.34394   -0.22811
 70 Cr    0.90117   -0.00849   -1.06335
 71 Ni    0.10333   -0.89435   -0.45580
 72 Ni    0.39904    0.49153    1.13376
 73 Co   -1.29319    0.43134    0.38878
 74 Fe    0.98974   -0.26680   -1.11151
 75 Fe   -1.39099    0.01825   -1.34054
 76 Ni    1.77918   -1.13895   -1.70320
 77 Ni    1.47598   -0.34586    1.00123
 78 Fe   -0.62095   -0.63323    0.44246
 79 Co    0.38573   -0.30414   -0.94726
 80 Co   -0.64326   -0.26605   -0.72455
 81 Fe   -1.60073    0.28423   -0.24396
 82 Ni   -0.12085    0.25081   -0.27909
 83 Co   -0.65114   -1.59341   -0.66960
 84 Fe    1.06172   -0.08361    0.25168
 85 Ni    1.87318    1.56029   -0.40671
 86 Ni    0.12266   -0.25205    0.19846
 87 Co   -0.25915   -1.34677   -0.32243
 88 Fe   -0.55422    2.18558   -0.04803
 89 Fe    0.36902   -0.94693    0.87783
 90 Fe    1.64444   -0.21247    0.30478
 91 Co    0.46629    2.46084    0.62468
 92 Ni    0.43338   -0.08179   -0.21380
 93 Fe    0.28532    0.82907   -0.16637
 94 Fe   -0.46843    0.92127    0.53898
 95 Co   -0.10715   -0.49108   -0.48725
 96 Co   -0.69383    0.24475    0.66210
 97 Fe    0.41856   -0.45621   -0.15195
 98 Co   -0.25697   -0.05337    0.58589
 99 Fe   -0.71335   -0.31275    1.36698
100 Co    0.31789   -0.15461    1.08015
101 Co   -0.54271   -0.70340    0.08697
102 Ni    0.16652   -0.39842   -0.83249
103 Fe   -0.83704   -0.39931   -0.57123
104 Co   -0.29543    0.53021    0.31437
105 Co    0.46130    0.30600    1.87836
106 Ni    0.05166    0.18428   -0.85333
107 Fe   -0.06759   -0.70512   -0.21834
108 Ni    0.56645    0.52622    1.75735
109 Cr   -1.08376   -0.43576   -0.57655
110 Co    0.16633    0.00190   -1.49836
111 Ni    0.05569    0.06927    0.16973
112 Ni   -0.02542    0.46902    1.47378
113 Ni    0.71250   -1.19265   -0.74567
114 Cr   -1.76613    0.24063    1.09586
115 Cr    0.08587   -0.40873    0.55779
116 Ni    0.10324   -0.66967   -0.85969
117 Cr    0.66580    1.36029   -0.27948
118 Co   -0.43756    0.12980    0.72860
119 Cr   -0.37597    1.01481    0.12217
120 Ni    0.60881   -0.89709   -0.73516
121 Ni   -0.25886   -0.04500    0.86842
122 Co   -0.01399   -0.21559   -0.38786
123 Cr   -0.95530    0.06222    0.03201
124 Cr   -0.11616    0.57741   -0.24461

Timing:                              incl.     excl.
-----------------------------------------------------------
Forces:                             49.620    49.620   0.2% |
Hamiltonian:                         2.319     0.016   0.0% |
 Atomic:                             0.442     0.004   0.0% |
  XC Correction:                     0.439     0.439   0.0% |
 Calculate atomic Hamiltonians:      1.159     1.159   0.0% |
 Communicate:                        0.068     0.068   0.0% |
 Initialize Hamiltonian:             0.001     0.001   0.0% |
 Poisson:                            0.181     0.181   0.0% |
 XC 3D grid:                         0.453     0.453   0.0% |
LCAO initialization:               402.107     0.501   0.0% |
 LCAO eigensolver:                  26.814     0.031   0.0% |
  Calculate projections:             0.000     0.000   0.0% |
  DenseAtomicCorrection:             0.000     0.000   0.0% |
  Distribute overlap matrix:        11.589    11.589   0.0% |
  Orbital Layouts:                  14.771    14.771   0.1% |
  Potential matrix:                  0.002     0.002   0.0% |
  Sum over cells:                    0.421     0.421   0.0% |
 LCAO to grid:                     372.101   372.101   1.6% ||
 Set positions (LCAO WFS):           2.691     2.278   0.0% |
  Basic WFS set positions:           0.004     0.004   0.0% |
  Basis functions set positions:     0.001     0.001   0.0% |
  P tci:                             0.001     0.001   0.0% |
  ST tci:                            0.171     0.171   0.0% |
  mktci:                             0.236     0.236   0.0% |
PWDescriptor:                        0.149     0.149   0.0% |
SCF-cycle:                       22737.992   359.089   1.5% ||
 Davidson:                       21696.978  6645.733  28.6% |----------|
  Apply H:                         425.727   420.195   1.8% ||
   HMM T:                            5.532     5.532   0.0% |
  Subspace diag:                  2140.252     0.055   0.0% |
   calc_h_matrix:                  878.139   537.794   2.3% ||
    Apply H:                       340.345   333.659   1.4% ||
     HMM T:                          6.686     6.686   0.0% |
   diagonalize:                    260.444   260.444   1.1% |
   rotate_psi:                    1001.614  1001.614   4.3% |-|
  calc. matrices:                 5266.780  4635.775  20.0% |-------|
   Apply H:                        631.004   618.478   2.7% ||
    HMM T:                          12.527    12.527   0.1% |
  diagonalize:                    4942.794  4942.794  21.3% |--------|
  rotate_psi:                     2275.692  2275.692   9.8% |---|
 Density:                          381.231     0.004   0.0% |
  Atomic density matrices:           3.486     3.486   0.0% |
  Mix:                             196.372   196.372   0.8% |
  Multipole moments:                 0.080     0.080   0.0% |
  Pseudo density:                  181.289   181.284   0.8% |
   Symmetrize density:               0.006     0.006   0.0% |
 Hamiltonian:                      277.824     1.349   0.0% |
  Atomic:                           46.693     0.187   0.0% |
   XC Correction:                   46.506    46.506   0.2% |
  Calculate atomic Hamiltonians:   166.832   166.832   0.7% |
  Communicate:                      14.455    14.455   0.1% |
  Poisson:                           5.905     5.905   0.0% |
  XC 3D grid:                       42.590    42.590   0.2% |
 Orthonormalize:                    22.871     0.001   0.0% |
  calc_s_matrix:                     3.003     3.003   0.0% |
  inverse-cholesky:                  1.087     1.087   0.0% |
  projections:                      13.860    13.860   0.1% |
  rotate_psi_s:                      4.920     4.920   0.0% |
Set symmetry:                        0.001     0.001   0.0% |
Other:                               9.359     9.359   0.0% |
-----------------------------------------------------------
Total:                                     23201.548 100.0%

Date: Mon Apr 17 10:57:14 2023
