
  ___ ___ ___ _ _ _  
 |   |   |_  | | | | 
 | | | | | . | | | | 
 |__ |  _|___|_____|  22.8.0
 |___|_|             

User:   c.zeng@d0110
Date:   Tue Apr 18 12:49:57 2023
Arch:   x86_64
Pid:    98700
CWD:    /home/c.zeng/projects/hea-corrosion/hea-mlp/data-curation/surface-mcmc/dft-jobs/100
Python: 3.8.1
gpaw:   /home/c.zeng/usr/installs/gpaw/source/gpaw-22.8.0/gpaw
_gpaw:  /home/c.zeng/usr/installs/gpaw/source/gpaw-22.8.0/
        _gpaw.cpython-38-x86_64-linux-gnu.so
ase:    /home/c.zeng/.local/lib/python3.8/site-packages/ase-3.22.1-py3.8.egg/ase (version 3.22.1)
numpy:  /home/c.zeng/.local/lib/python3.8/site-packages/numpy (version 1.24.2)
scipy:  /home/c.zeng/.local/lib/python3.8/site-packages/scipy (version 1.10.1)
libxc:  4.2.3
units:  Angstrom and eV
cores: 30
OpenMP: False
OMP_NUM_THREADS: 1

Input parameters:
  convergence: {energy: 0.0001}
  kpts: [2 2 1]
  maxiter: 666
  mode: {ecut: 350.0,
         name: pw}
  occupations: {fixmagmom: False,
                name: fermi-dirac,
                width: 0.1}
  poissonsolver: {dipolelayer: xy}
  spinpol: True
  symmetry: {point_group: False}
  xc: PBE

System changes: positions, numbers, cell, pbc, initial_charges, initial_magmoms 

Initialize ...

species:
  Fe:
    name: Iron
    id: 37abbd8d6c3c35915a9b583b742da910
    Z: 26.0
    valence: 8
    core: 18
    charge: 0.0
    file: /home/c.zeng/usr/data/gpaw-setups-0.9.20000/Fe.PBE.gz
    compensation charges: {type: gauss,
                           rc: 0.33,
                           lmax: 2}
    cutoffs: {filter: 2.06,
              core: 2.67}
    valence states:
      #              energy  rcut
      - 4s(2.00)    -5.291   1.164
      - 4p(0.00)    -1.326   1.058
      - 3d(6.00)    -7.505   1.058
      -  s          21.920   1.164
      -  p          25.885   1.058
      -  d          19.706   1.058
  
    # Using partial waves for Fe as LCAO basis

  Cr:
    name: Chromium
    id: 33f258bda2ca9f93018e70263a35547b
    Z: 24.0
    valence: 6
    core: 18
    charge: 0.0
    file: /home/c.zeng/usr/data/gpaw-setups-0.9.20000/Cr.PBE.gz
    compensation charges: {type: gauss,
                           rc: 0.35,
                           lmax: 2}
    cutoffs: {filter: 2.14,
              core: 3.04}
    valence states:
      #              energy  rcut
      - 4s(1.00)    -4.007   1.164
      - 4p(0.00)    -0.989   1.217
      - 3d(5.00)    -2.913   1.111
      -  s          23.205   1.164
      -  p          26.223   1.217
      -  d          24.299   1.111
  
    # Using partial waves for Cr as LCAO basis

  Al:
    name: Aluminium
    id: 0292cae29f5d6237e50f6abdd43a7bdd
    Z: 13.0
    valence: 3
    core: 10
    charge: 0.0
    file: /home/c.zeng/usr/data/gpaw-setups-0.9.20000/Al.PBE.gz
    compensation charges: {type: gauss,
                           rc: 0.34,
                           lmax: 2}
    cutoffs: {filter: 1.91,
              core: 2.36}
    valence states:
      #              energy  rcut
      - 3s(2.00)    -7.753   1.085
      - 3p(1.00)    -2.712   1.085
      -  s          19.459   1.085
      -  p          24.499   1.085
      -  d           0.000   1.085
  
    # Using partial waves for Al as LCAO basis

  Co:
    name: Cobalt
    id: 339d20d5b0b93d2de9531a1bee871d91
    Z: 27.0
    valence: 9
    core: 18
    charge: 0.0
    file: /home/c.zeng/usr/data/gpaw-setups-0.9.20000/Co.PBE.gz
    compensation charges: {type: gauss,
                           rc: 0.32,
                           lmax: 2}
    cutoffs: {filter: 1.87,
              core: 2.55}
    valence states:
      #              energy  rcut
      - 4s(2.00)    -5.469   1.005
      - 4p(0.00)    -1.277   1.058
      - 3d(7.00)    -8.205   1.005
      -  s          21.742   1.005
      -  p          25.934   1.058
      -  d          19.007   1.005
  
    # Using partial waves for Co as LCAO basis

  Ni:
    name: Nickel
    id: 0d9f38a9d6e76a2886f07bb4381f212b
    Z: 28.0
    valence: 16
    core: 12
    charge: 0.0
    file: /home/c.zeng/usr/data/gpaw-setups-0.9.20000/Ni.PBE.gz
    compensation charges: {type: gauss,
                           rc: 0.36,
                           lmax: 2}
    cutoffs: {filter: 2.14,
              core: 1.98}
    valence states:
      #              energy  rcut
      - 4s(2.00)    -5.642   1.164
      - 3p(6.00)   -71.394   1.207
      - 4p(0.00)    -1.226   1.207
      - 3d(8.00)    -8.875   1.138
      -  s          21.570   1.164
      -  d          18.337   1.138
  
    # Using partial waves for Ni as LCAO basis

Reference energy: -4103091.665053  # eV

Spin-polarized calculation.
Magnetic moment: 158.800000

Convergence criteria:
 Maximum [total energy] change in last 3 cyles: 0.0001 eV / electron
 Maximum integral of absolute [dens]ity change: 0.0001 electrons / valence electron
 Maximum integral of absolute [eigenst]ate change: 4e-08 eV^2 / valence electron
 Maximum number of scf [iter]ations: 666
 (Square brackets indicate name in SCF output, whereas a 'c' in
 the SCF output indicates the quantity has converged.)

Symmetries present (total): 1

  ( 1  0  0)
  ( 0  1  0)
  ( 0  0  1)

4 k-points: 2 x 2 x 1 Monkhorst-Pack grid
2 k-points in the irreducible part of the Brillouin zone
       k-points in crystal coordinates                weights
   0:     0.25000000   -0.25000000    0.00000000          2/4
   1:     0.25000000    0.25000000    0.00000000          2/4

Wave functions: Plane wave expansion
  Cutoff energy: 350.000 eV
  Number of coefficients (min, max): 59263, 59339
  Pulay-stress correction: 0.000000 eV/Ang^3 (de/decut=0.000000)
  Using FFTW library
  ScaLapack parameters: grid=1x1, blocksize=None
  Wavefunction extrapolation:
    Improved wavefunction reuse through dual PAW basis 

Occupation numbers: Fermi-Dirac:
  width: 0.1000  # eV
 

Eigensolver
   Davidson(niter=2) 

Densities:
  Coarse grid: 56*56*128 grid
  Fine grid: 112*112*256 grid
  Total Charge: 0.000000 

Density mixing:
  Method: difference
  Backend: pulay
  Linear mixing parameter: 0.05
  old densities: 5
  Damping of long wavelength oscillations: 50 

Hamiltonian:
  XC and Coulomb potentials evaluated on a 112*112*256 grid
  Using the PBE Exchange-Correlation functional
  External potential:
    NoExternalPotential
 

XC parameters: PBE with 2 nearest neighbor stencil

Memory estimate:
  Process memory now: 368.13 MiB
  Calculator: 2263.81 MiB
    Density: 18.78 MiB
      Arrays: 7.39 MiB
      Localized functions: 8.44 MiB
      Mixer: 2.95 MiB
    Hamiltonian: 5.74 MiB
      Arrays: 5.49 MiB
      XC: 0.00 MiB
      Poisson: 0.00 MiB
      vbar: 0.26 MiB
    Wavefunctions: 2239.28 MiB
      Arrays psit_nG: 1414.30 MiB
      Eigensolver: 804.77 MiB
      Projections: 3.48 MiB
      Projectors: 1.15 MiB
      PW-descriptor: 15.58 MiB

Total number of cores used: 30
Parallelization over k-points: 2
Domain decomposition: 1 x 3 x 5

Number of atoms: 125
Number of atomic orbitals: 1149
Number of bands in calculation: 781
Number of valence electrons: 1136
Bands to converge: occupied

... initialized

Initializing position-dependent things.

Density initialized from atomic densities
Creating initial wave functions:
  781 bands from LCAO basis set

                                                                  
                                                                  
                                                                  
                                                                  
                                               Cr     Al          
                         Co    Ni    Al    Ni    Cr               
                                                                  
                          Cr    NNi   CFe   CNi   CNi   Co        
                Al    Cr   AFe   CFe    FFe   Co    Fe            
           Ni     Fe    Fe    Ni    Ni                            
                       Ni   FCo   CCr    Al    Co    Ni           
       Co    Fe   NCr   NNi   CAl    Cr   CCo   Co                
              Ni    Fe    Fe     Fe Ni Cr      Fe     Fe          
                   Fe    CCr   FCo   CCr   FCr   Al               
               Cr    Al    Ni     Co   FCr                        
           Cr    Ni    Co    Co NCoCr Cr    NNi   FCo   Al        
                      Ni   CNi   NCo    CFe   FNi   Co            
                  Ni    Fe   FAl   ACr   NCr    Ni                
       Co    Co        Cr                                         
                  FCr    Al    Co    Cr    Fe                     
              Cr    Fe    Fe     Cr    Fe                         
                                                                  
                                                                  
                                                                  
                                                                  
                                                                  

Positions:
   0 Fe    12.533128    1.440034   10.429626    ( 0.0000,  0.0000,  0.0000)
   1 Cr     2.529984    1.448599   10.596851    ( 0.0000,  0.0000,  1.5000)
   2 Fe     5.001844    1.491107   10.507206    ( 0.0000,  0.0000,  2.0000)
   3 Fe     7.517470    1.481371   10.443804    ( 0.0000,  0.0000,  0.0000)
   4 Cr     9.992855    1.449769   10.527665    ( 0.0000,  0.0000,  1.5000)
   5 Fe    13.789466    3.650838   10.562420    ( 0.0000,  0.0000,  0.0000)
   6 Fe     3.743028    3.607376   10.509643    ( 0.0000,  0.0000,  2.0000)
   7 Al     6.277985    3.603907   10.508586    ( 0.0000,  0.0000,  2.1000)
   8 Co     8.774670    3.629318   10.567703    ( 0.0000,  0.0000,  2.0000)
   9 Cr    11.256667    3.628289   10.556285    ( 0.0000,  0.0000,  1.5000)
  10 Ni    15.035471    5.774902   10.514867    ( 0.0000,  0.0000,  1.5000)
  11 Cr     5.000253    5.778068   10.458099    ( 0.0000,  0.0000,  0.0000)
  12 Fe     7.492975    5.732719   10.527548    ( 0.0000,  0.0000,  2.1000)
  13 Al    10.032594    5.738715   10.521208    ( 0.0000,  0.0000,  0.0000)
  14 Ni    12.531668    5.773428   10.506590    ( 0.0000,  0.0000,  0.0000)
  15 Co    16.282097    7.932335   10.424460    ( 0.0000,  0.0000,  1.5000)
  16 Cr     6.249076    7.915716   10.493733    ( 0.0000,  0.0000,  2.1000)
  17 Ni     8.739103    7.939274   10.318290    ( 0.0000,  0.0000,  0.0000)
  18 Co    11.262833    7.889621   10.504036    ( 0.0000,  0.0000,  2.1000)
  19 Fe    13.767197    7.897384   10.366605    ( 0.0000,  0.0000,  2.0000)
  20 Al    17.517670   10.103092   10.481904    ( 0.0000,  0.0000,  0.0000)
  21 Ni     7.497936   10.110681   10.626409    ( 0.0000,  0.0000,  2.0000)
  22 Cr     9.976265   10.147183   10.547802    ( 0.0000,  0.0000,  2.1000)
  23 Ni    12.481525   10.098897   10.273937    ( 0.0000,  0.0000,  0.0000)
  24 Fe    15.038329   10.106659   10.411838    ( 0.0000,  0.0000,  1.5000)
  25 Co     0.029584    0.040775   12.611442    ( 0.0000,  0.0000,  2.0000)
  26 Co     2.524286    0.017743   12.625649    ( 0.0000,  0.0000,  2.0000)
  27 Cr     5.009931    0.016306   12.476653    ( 0.0000,  0.0000,  2.0000)
  28 Fe    13.725795   10.834823   12.477504    ( 0.0000,  0.0000,  0.0000)
  29 Fe    16.291616   10.839907   12.543255    ( 0.0000,  0.0000,  2.0000)
  30 Cr    13.787334    2.177261   12.583938    ( 0.0000,  0.0000,  2.0000)
  31 Ni     3.767898    2.156913   12.580445    ( 0.0000,  0.0000,  0.0000)
  32 Fe     6.250320    2.155536   12.545368    ( 0.0000,  0.0000,  0.0000)
  33 Al     8.760760    2.165922   12.631314    ( 0.0000,  0.0000,  0.0000)
  34 Cr    11.291091    2.189404   12.569467    ( 0.0000,  0.0000,  2.0000)
  35 Ni    15.015728    4.333177   12.562892    ( 0.0000,  0.0000,  2.0000)
  36 Ni     5.006820    4.331518   12.549301    ( 0.0000,  0.0000,  0.0000)
  37 Ni     7.536414    4.362058   12.589016    ( 0.0000,  0.0000,  0.0000)
  38 Co    10.033535    4.360377   12.602577    ( 0.0000,  0.0000,  1.5000)
  39 Fe    12.523539    4.334760   12.563508    ( 0.0000,  0.0000,  2.0000)
  40 Co    16.274251    6.492117   12.533950    ( 0.0000,  0.0000,  1.5000)
  41 Co     6.308192    6.475432   12.559751    ( 0.0000,  0.0000,  2.1000)
  42 Co     8.776271    6.490035   12.490008    ( 0.0000,  0.0000,  2.0000)
  43 Fe    11.278289    6.490805   12.557021    ( 0.0000,  0.0000,  1.5000)
  44 Ni    13.752272    6.468516   12.517952    ( 0.0000,  0.0000,  2.1000)
  45 Cr     5.108056    8.658624   12.557785    ( 0.0000,  0.0000,  0.0000)
  46 Fe     7.566363    8.646547   12.581003    ( 0.0000,  0.0000,  1.5000)
  47 Co     9.994311    8.654038   12.473248    ( 0.0000,  0.0000,  2.0000)
  48 Fe    12.478693    8.644812   12.462622    ( 0.0000,  0.0000,  2.1000)
  49 Al    14.946058    8.624518   12.480087    ( 0.0000,  0.0000,  0.0000)
  50 Cr     1.256201    0.763084   14.702997    ( 0.0000,  0.0000,  2.1000)
  51 Ni     3.741141    0.768517   14.684241    ( 0.0000,  0.0000,  1.5000)
  52 Co     6.299995    0.774666   14.698271    ( 0.0000,  0.0000,  0.0000)
  53 Co     8.776010    0.777622   14.780255    ( 0.0000,  0.0000,  2.1000)
  54 Cr    11.299537    0.773215   14.649927    ( 0.0000,  0.0000,  1.5000)
  55 Cr     2.503641    2.894650   14.677166    ( 0.0000,  0.0000,  1.5000)
  56 Al     5.003149    2.898769   14.726979    ( 0.0000,  0.0000,  1.5000)
  57 Ni     7.507897    2.915183   14.810283    ( 0.0000,  0.0000,  0.0000)
  58 Co    10.051236    2.911302   14.719875    ( 0.0000,  0.0000,  1.5000)
  59 Cr    12.558998    2.904027   14.656326    ( 0.0000,  0.0000,  2.0000)
  60 Fe     3.714729    5.068312   14.654653    ( 0.0000,  0.0000,  0.0000)
  61 Cr     6.295139    5.069515   14.699915    ( 0.0000,  0.0000,  0.0000)
  62 Co     8.776914    5.060506   14.664779    ( 0.0000,  0.0000,  2.1000)
  63 Cr    11.297436    5.056712   14.652715    ( 0.0000,  0.0000,  0.0000)
  64 Cr    13.775594    5.062599   14.637129    ( 0.0000,  0.0000,  0.0000)
  65 Ni     5.020095    7.203792   14.693017    ( 0.0000,  0.0000,  1.5000)
  66 Cr     7.527582    7.223934   14.646111    ( 0.0000,  0.0000,  2.0000)
  67 Ni    10.007193    7.208139   14.579832    ( 0.0000,  0.0000,  2.1000)
  68 Co    12.551373    7.215565   14.635837    ( 0.0000,  0.0000,  1.5000)
  69 Co    15.022437    7.200789   14.781399    ( 0.0000,  0.0000,  2.1000)
  70 Fe     6.300157    9.420840   14.712918    ( 0.0000,  0.0000,  2.1000)
  71 Co     8.732283    9.401749   14.673585    ( 0.0000,  0.0000,  0.0000)
  72 Co    11.263746    9.439649   14.574753    ( 0.0000,  0.0000,  0.0000)
  73 Cr    13.786012    9.419517   14.774443    ( 0.0000,  0.0000,  0.0000)
  74 Ni    16.298882    9.432071   14.813071    ( 0.0000,  0.0000,  0.0000)
  75 Cr    12.551235    1.460849   16.768751    ( 0.0000,  0.0000,  2.0000)
  76 Ni     2.485776    1.461489   16.791235    ( 0.0000,  0.0000,  2.0000)
  77 Fe     4.988873    1.437953   16.800129    ( 0.0000,  0.0000,  0.0000)
  78 Fe     7.521264    1.441801   16.853904    ( 0.0000,  0.0000,  2.1000)
  79 Fe    10.041408    1.441801   16.816508    ( 0.0000,  0.0000,  0.0000)
  80 Co    13.786651    3.599104   16.753634    ( 0.0000,  0.0000,  2.1000)
  81 Ni     3.751487    3.571785   16.825197    ( 0.0000,  0.0000,  0.0000)
  82 Ni     6.255931    3.593012   16.814131    ( 0.0000,  0.0000,  1.5000)
  83 Al     8.779489    3.570907   16.858483    ( 0.0000,  0.0000,  2.0000)
  84 Cr    11.301319    3.615409   16.751961    ( 0.0000,  0.0000,  1.5000)
  85 Co    14.996321    5.774306   16.825755    ( 0.0000,  0.0000,  1.5000)
  86 Ni     4.982905    5.789733   16.828220    ( 0.0000,  0.0000,  0.0000)
  87 Co     7.569540    5.790156   16.758477    ( 0.0000,  0.0000,  0.0000)
  88 Cr    10.026136    5.746347   16.763908    ( 0.0000,  0.0000,  0.0000)
  89 Al    12.543367    5.747160   16.772185    ( 0.0000,  0.0000,  2.1000)
  90 Fe    16.270128    7.958744   16.878796    ( 0.0000,  0.0000,  2.0000)
  91 Al     6.261908    7.982584   16.782048    ( 0.0000,  0.0000,  2.1000)
  92 Co     8.742457    7.968610   16.764142    ( 0.0000,  0.0000,  2.1000)
  93 Fe    11.277906    7.926015   16.857984    ( 0.0000,  0.0000,  0.0000)
  94 Co    13.798645    7.959796   16.862475    ( 0.0000,  0.0000,  1.5000)
  95 Co    17.564450   10.140147   16.843601    ( 0.0000,  0.0000,  1.5000)
  96 Ni     7.506508   10.131539   16.775003    ( 0.0000,  0.0000,  1.5000)
  97 Co     9.982830   10.139106   16.778819    ( 0.0000,  0.0000,  1.5000)
  98 Co    12.538883   10.154728   16.858689    ( 0.0000,  0.0000,  2.0000)
  99 Cr    15.023737   10.130021   16.876066    ( 0.0000,  0.0000,  2.1000)
 100 Co     0.021688    0.020369   18.796081    ( 0.0000,  0.0000,  2.1000)
 101 Fe     2.494821    0.007467   18.769576    ( 0.0000,  0.0000,  2.1000)
 102 Cr     4.985998    0.002849   18.819329    ( 0.0000,  0.0000,  0.0000)
 103 Cr    13.754781   10.818030   18.872752    ( 0.0000,  0.0000,  2.1000)
 104 Al    16.317444   10.810593   18.850326    ( 0.0000,  0.0000,  1.5000)
 105 Ni     1.256161    2.173586   18.792882    ( 0.0000,  0.0000,  2.0000)
 106 Fe     3.725304    2.151503   18.833213    ( 0.0000,  0.0000,  2.0000)
 107 Fe     6.222195    2.156804   18.811081    ( 0.0000,  0.0000,  2.1000)
 108 Ni     8.770579    2.162528   19.045201    ( 0.0000,  0.0000,  0.0000)
 109 Ni    11.307466    2.180958   18.775534    ( 0.0000,  0.0000,  2.0000)
 110 Al     2.502140    4.316579   18.803537    ( 0.0000,  0.0000,  2.0000)
 111 Cr     4.984546    4.312123   18.946281    ( 0.0000,  0.0000,  0.0000)
 112 Fe     7.501088    4.367044   18.820386    ( 0.0000,  0.0000,  0.0000)
 113 Fe    10.059972    4.352084   18.800162    ( 0.0000,  0.0000,  2.0000)
 114 Fe    12.539763    4.316026   18.767286    ( 0.0000,  0.0000,  2.1000)
 115 Ni    16.262819    6.510059   18.894150    ( 0.0000,  0.0000,  2.0000)
 116 Cr     6.269967    6.534842   18.850238    ( 0.0000,  0.0000,  1.5000)
 117 Ni     8.788984    6.511186   18.794614    ( 0.0000,  0.0000,  1.5000)
 118 Fe    11.281904    6.480051   18.877595    ( 0.0000,  0.0000,  2.1000)
 119 Ni    13.777508    6.479303   18.838585    ( 0.0000,  0.0000,  0.0000)
 120 Co     5.014689    8.654765   18.845336    ( 0.0000,  0.0000,  2.0000)
 121 Ni     7.516337    8.678810   18.792882    ( 0.0000,  0.0000,  2.1000)
 122 Al     9.994976    8.686659   18.888573    ( 0.0000,  0.0000,  1.5000)
 123 Ni    12.542280    8.675037   18.940675    ( 0.0000,  0.0000,  0.0000)
 124 Cr    15.038373    8.673617   18.869083    ( 0.0000,  0.0000,  2.1000)

Unit cell:
           periodic     x           y           z      points  spacing
  1. axis:    yes   12.530300    0.000000    0.000000    56     0.1938
  2. axis:    yes    6.259130   10.841100    0.000000    56     0.1936
  3. axis:    no     0.000000    0.000000   29.353100   128     0.2293

  Lengths:  12.530300  12.518233  29.353100
  Angles:   90.000000  90.000000  59.999929

Effective grid spacing dv^(1/3) = 0.2150

     iter     time        total  log10-change:  magmom
                         energy  eigst   dens
iter:   1 12:58:18 -1069.536328                  +158.2790
iter:   2 13:00:59 -1096.702120  -0.29  -1.20    +125.6875
iter:   3 13:03:39 -1567.789128  -0.25  -1.14    +101.2077
iter:   4 13:06:19 -1216.192943  -0.20  -0.86    +73.7262
iter:   5 13:08:59 -1010.075441  -1.03  -1.02    +52.9117
iter:   6 13:11:40  -966.731820  -1.58  -1.27    +44.6308
iter:   7 13:14:20  -962.462720  -2.00  -1.36    +41.2015
iter:   8 13:17:00  -954.463125  -1.82  -1.38    +41.0707
iter:   9 13:19:40 -1098.517793  -1.20  -1.42    +42.3734
iter:  10 13:22:21 -1027.723074  -1.13  -1.10    +41.0576
iter:  11 13:25:01  -957.817865  -1.59  -1.22    +36.6089
iter:  12 13:27:41  -945.360127  -1.70  -1.44    +37.9515
iter:  13 13:30:21  -952.753786  -1.66  -1.59    +39.0719
iter:  14 13:33:02  -953.911836  -1.78  -1.56    +40.5755
iter:  15 13:35:42  -961.523149  -1.56  -1.52    +41.6554
iter:  16 13:38:22  -945.814562  -1.86  -1.54    +42.0942
iter:  17 13:41:02 -1031.673928  -1.66  -1.67    +44.5705
iter:  18 13:43:42  -944.671127  -1.84  -1.24    +45.7590
iter:  19 13:46:22  -943.365059  -2.39  -1.75    +47.1432
iter:  20 13:49:03  -944.684311  -2.28  -1.80    +49.1027
iter:  21 13:51:43  -946.998019  -2.35  -1.79    +51.7162
iter:  22 13:54:23  -941.817361  -2.61  -1.76    +52.7004
iter:  23 13:57:03  -970.181950  -2.11  -1.95    +55.4039
iter:  24 13:59:43  -942.848775  -2.36  -1.48    +56.5955
iter:  25 14:02:23  -943.530252  -2.68  -1.97    +59.4054
iter:  26 14:05:04  -943.762449  -2.75  -1.99    +61.0391
iter:  27 14:07:44  -943.494231  -3.08  -1.99    +62.2831
iter:  28 14:10:24  -945.148998  -2.76  -2.07    +64.7313
iter:  29 14:13:05  -945.678984  -2.82  -2.02    +64.6231
iter:  30 14:15:44  -948.827961  -2.48  -2.03    +66.2045
iter:  31 14:18:25  -947.746800  -2.58  -1.87    +67.1250
iter:  32 14:21:05  -948.803603  -2.49  -1.94    +68.2041
iter:  33 14:23:45  -945.577893  -2.88  -1.91    +68.2673
iter:  34 14:26:26  -945.271124  -3.30  -2.17    +69.0741
iter:  35 14:29:06  -945.605629  -3.35  -2.23    +70.3365
iter:  36 14:31:46  -946.108897  -3.16  -2.24    +71.7664
iter:  37 14:34:27  -947.563620  -2.99  -2.23    +71.8880
iter:  38 14:37:07  -948.429287  -2.86  -2.08    +72.1758
iter:  39 14:39:47  -946.580824  -3.08  -2.03    +72.1818
iter:  40 14:42:28  -946.536631  -3.34  -2.33    +72.5316
iter:  41 14:45:08  -946.959361  -3.32  -2.50    +73.0706
iter:  42 14:47:48  -946.897464  -3.42  -2.41    +73.3655
iter:  43 14:50:29  -947.270208  -3.35  -2.51    +73.5330
iter:  44 14:53:09  -947.095350  -3.63  -2.37    +73.8150
iter:  45 14:55:49  -947.065370  -3.86  -2.51    +74.0142
iter:  46 14:58:29  -947.249374  -3.95  -2.59    +74.2399
iter:  47 15:01:09  -947.380057  -3.65  -2.51    +74.5010
iter:  48 15:03:50  -947.408920  -3.72  -2.50    +74.5463
iter:  49 15:06:30  -948.452352  -3.46  -2.49    +74.6213
iter:  50 15:09:10  -947.397420  -3.47  -2.18    +74.6510
iter:  51 15:11:51  -947.857627  -3.46  -2.48    +74.5698
iter:  52 15:14:31  -947.392906  -3.76  -2.32    +74.5676
iter:  53 15:17:11  -947.357810  -4.02  -2.53    +74.2984
iter:  54 15:19:52  -947.382683c -4.02  -2.64    +74.2971
iter:  55 15:22:32  -947.317052c -4.04  -2.68    +74.2187
iter:  56 15:25:13  -947.319238c -4.31  -2.97    +74.0769
iter:  57 15:27:54  -947.340652c -4.51  -3.06    +74.0556
iter:  58 15:30:34  -947.362699c -4.58  -3.07    +74.0190
iter:  59 15:33:14  -947.362381c -4.77  -3.00    +73.9305
iter:  60 15:35:55  -947.372792c -4.94  -3.11    +73.8917
iter:  61 15:38:35  -947.404217c -4.68  -3.10    +73.8503
iter:  62 15:41:16  -947.385958c -5.01  -2.96    +73.8534
iter:  63 15:43:56  -947.402246c -4.91  -3.04    +73.8778
iter:  64 15:46:37  -947.437398c -4.84  -3.01    +73.8855
iter:  65 15:49:17  -947.411203c -4.85  -2.87    +73.8594
iter:  66 15:51:58  -947.417283c -4.64  -2.95    +73.8899
iter:  67 15:54:38  -947.428836c -4.78  -3.01    +73.8727
iter:  68 15:57:19  -947.443495c -5.05  -3.00    +73.8928
iter:  69 15:59:59  -947.438933c -4.63  -2.94    +73.9076
iter:  70 16:02:40  -947.435101c -5.00  -3.00    +73.9054
iter:  71 16:05:20  -947.483838c -4.37  -3.02    +73.8881
iter:  72 16:08:01  -947.452242c -4.45  -2.83    +73.8851
iter:  73 16:10:41  -947.465300c -4.39  -3.03    +73.8072
iter:  74 16:13:22  -948.022414  -3.69  -2.98    +73.8063
iter:  75 16:16:02  -947.441512  -4.07  -2.35    +73.8234
iter:  76 16:18:42  -947.441570  -4.73  -3.22    +73.8328
iter:  77 16:21:23  -947.445484c -5.24  -3.20    +73.8012
iter:  78 16:24:03  -947.440778c -5.01  -3.17    +73.7995
iter:  79 16:26:44  -947.440231c -5.21  -3.26    +73.7930
iter:  80 16:29:24  -947.550019c -4.42  -3.35    +73.7602
iter:  81 16:32:04  -947.447881c -4.60  -2.72    +73.7561
iter:  82 16:34:45  -947.443104c -5.21  -3.19    +73.7431
iter:  83 16:37:25  -947.440789c -5.51  -3.32    +73.7662
iter:  84 16:40:05  -947.447775c -5.34  -3.44    +73.7507
iter:  85 16:42:46  -947.444233c -5.61  -3.27    +73.7406
iter:  86 16:45:26  -947.445567c -5.51  -3.36    +73.7359
iter:  87 16:48:06  -947.567206  -4.38  -3.31    +73.7217
iter:  88 16:50:47  -947.442094  -4.74  -2.69    +73.7091
iter:  89 16:53:27  -947.443173  -5.51  -3.63    +73.7055
iter:  90 16:56:08  -947.441246c -5.88  -3.52    +73.6919
iter:  91 16:58:48  -947.442282c -5.88  -3.69    +73.6799
iter:  92 17:01:28  -947.442023c -6.18  -3.67    +73.6566
iter:  93 17:04:09  -947.442192c -6.35  -3.76    +73.6389
iter:  94 17:06:49  -947.442633c -6.16  -3.82    +73.6111
iter:  95 17:09:30  -947.446851c -5.84  -3.79    +73.6106
iter:  96 17:12:10  -947.442992c -5.92  -3.38    +73.6049
iter:  97 17:14:51  -947.442471c -6.29  -3.94    +73.5906
iter:  98 17:17:31  -947.442919c -6.37  -4.09c   +73.5671
iter:  99 17:20:12  -947.442803c -6.81  -3.92    +73.5632
iter: 100 17:22:52  -947.443019c -6.80  -4.20c   +73.5487
iter: 101 17:25:34  -947.443234c -6.67  -4.25c   +73.5191
iter: 102 17:28:20  -947.443484c -6.86  -4.21c   +73.5005
iter: 103 17:31:05  -947.443472c -7.07  -4.20c   +73.4997
iter: 104 17:33:50  -947.444081c -6.80  -4.15c   +73.4832
iter: 105 17:36:40  -947.443852c -7.24  -3.91    +73.4842
iter: 106 17:39:29  -947.444687c -6.56  -4.04c   +73.4719
iter: 107 17:42:19  -947.443812c -6.94  -3.76    +73.4751
iter: 108 17:45:09  -947.444406c -6.46  -4.04c   +73.4610
iter: 109 17:47:58  -947.444015c -6.36  -4.03c   +73.4499
iter: 110 17:50:46  -947.444177c -6.69  -4.02c   +73.4363
iter: 111 17:53:34  -947.444542c -6.82  -4.18c   +73.4244
iter: 112 17:56:24  -947.444279c -7.18  -3.97    +73.4194
iter: 113 17:59:11  -947.444418c -7.11  -4.16c   +73.4018
iter: 114 18:02:01  -947.444531c -7.19  -4.16c   +73.3946
iter: 115 18:04:50  -947.444518c -6.57  -4.19c   +73.3805
iter: 116 18:07:39  -947.444894c -6.68  -4.27c   +73.3729
iter: 117 18:10:29  -947.445858c -6.37  -4.18c   +73.3675
iter: 118 18:13:16  -947.445129c -6.48  -3.70    +73.3699
iter: 119 18:16:07  -947.445041c -7.01  -4.06c   +73.3550
iter: 120 18:18:55  -947.445177c -7.07  -4.33c   +73.3394
iter: 121 18:21:44  -947.445138c -7.42c -4.23c   +73.3396

Converged after 121 iterations.

Dipole moment: (45.174828, 31.235585, 0.015184) |e|*Ang

Total magnetic moment: (0.000000, 0.000000, 73.339587)
Local magnetic moments:
   0 Fe ( 0.000000,  0.000000, -2.290286)
   1 Cr ( 0.000000,  0.000000, -0.906977)
   2 Fe ( 0.000000,  0.000000,  2.067597)
   3 Fe ( 0.000000,  0.000000,  2.411611)
   4 Cr ( 0.000000,  0.000000, -2.086610)
   5 Fe ( 0.000000,  0.000000, -2.230900)
   6 Fe ( 0.000000,  0.000000,  2.441906)
   7 Al ( 0.000000,  0.000000, -0.056735)
   8 Co ( 0.000000,  0.000000,  0.995972)
   9 Cr ( 0.000000,  0.000000,  1.720511)
  10 Ni ( 0.000000,  0.000000,  0.329225)
  11 Cr ( 0.000000,  0.000000, -2.503530)
  12 Fe ( 0.000000,  0.000000,  2.381183)
  13 Al ( 0.000000,  0.000000, -0.045566)
  14 Ni ( 0.000000,  0.000000,  0.354050)
  15 Co ( 0.000000,  0.000000,  1.164728)
  16 Cr ( 0.000000,  0.000000,  2.282082)
  17 Ni ( 0.000000,  0.000000,  0.456515)
  18 Co ( 0.000000,  0.000000,  1.517771)
  19 Fe ( 0.000000,  0.000000,  2.761389)
  20 Al ( 0.000000,  0.000000, -0.005244)
  21 Ni ( 0.000000,  0.000000, -0.042782)
  22 Cr ( 0.000000,  0.000000, -2.120495)
  23 Ni ( 0.000000,  0.000000,  0.428023)
  24 Fe ( 0.000000,  0.000000,  2.494881)
  25 Co ( 0.000000,  0.000000,  0.202641)
  26 Co ( 0.000000,  0.000000,  0.384820)
  27 Cr ( 0.000000,  0.000000, -1.200499)
  28 Fe ( 0.000000,  0.000000,  2.224255)
  29 Fe ( 0.000000,  0.000000,  1.862634)
  30 Cr ( 0.000000,  0.000000,  0.187812)
  31 Ni ( 0.000000,  0.000000,  0.171532)
  32 Fe ( 0.000000,  0.000000,  2.315117)
  33 Al ( 0.000000,  0.000000, -0.034212)
  34 Cr ( 0.000000,  0.000000,  0.148672)
  35 Ni ( 0.000000,  0.000000,  0.166610)
  36 Ni ( 0.000000,  0.000000,  0.283781)
  37 Ni ( 0.000000,  0.000000,  0.380850)
  38 Co ( 0.000000,  0.000000,  0.952522)
  39 Fe ( 0.000000,  0.000000,  1.456246)
  40 Co ( 0.000000,  0.000000,  1.370862)
  41 Co ( 0.000000,  0.000000,  0.954262)
  42 Co ( 0.000000,  0.000000,  1.467357)
  43 Fe ( 0.000000,  0.000000,  2.341940)
  44 Ni ( 0.000000,  0.000000,  0.465001)
  45 Cr ( 0.000000,  0.000000, -1.942476)
  46 Fe ( 0.000000,  0.000000,  2.311035)
  47 Co ( 0.000000,  0.000000,  1.357061)
  48 Fe ( 0.000000,  0.000000,  2.304042)
  49 Al ( 0.000000,  0.000000, -0.050564)
  50 Cr ( 0.000000,  0.000000, -0.112542)
  51 Ni ( 0.000000,  0.000000,  0.283923)
  52 Co ( 0.000000,  0.000000,  1.189080)
  53 Co ( 0.000000,  0.000000,  1.045443)
  54 Cr ( 0.000000,  0.000000, -1.208083)
  55 Cr ( 0.000000,  0.000000,  0.073707)
  56 Al ( 0.000000,  0.000000, -0.036820)
  57 Ni ( 0.000000,  0.000000,  0.279122)
  58 Co ( 0.000000,  0.000000,  0.701057)
  59 Cr ( 0.000000,  0.000000,  0.069112)
  60 Fe ( 0.000000,  0.000000,  2.108994)
  61 Cr ( 0.000000,  0.000000,  1.386947)
  62 Co ( 0.000000,  0.000000,  0.974100)
  63 Cr ( 0.000000,  0.000000, -0.250782)
  64 Cr ( 0.000000,  0.000000, -0.827845)
  65 Ni ( 0.000000,  0.000000,  0.276357)
  66 Cr ( 0.000000,  0.000000, -1.924790)
  67 Ni ( 0.000000,  0.000000,  0.276031)
  68 Co ( 0.000000,  0.000000,  1.146496)
  69 Co ( 0.000000,  0.000000,  1.321842)
  70 Fe ( 0.000000,  0.000000,  2.158147)
  71 Co ( 0.000000,  0.000000,  1.406332)
  72 Co ( 0.000000,  0.000000,  1.474092)
  73 Cr ( 0.000000,  0.000000, -2.086732)
  74 Ni ( 0.000000,  0.000000,  0.205344)
  75 Cr ( 0.000000,  0.000000,  0.100520)
  76 Ni ( 0.000000,  0.000000,  0.435358)
  77 Fe ( 0.000000,  0.000000,  2.259136)
  78 Fe ( 0.000000,  0.000000,  2.200833)
  79 Fe ( 0.000000,  0.000000,  1.856771)
  80 Co ( 0.000000,  0.000000,  0.935560)
  81 Ni ( 0.000000,  0.000000,  0.309736)
  82 Ni ( 0.000000,  0.000000,  0.389394)
  83 Al ( 0.000000,  0.000000, -0.035472)
  84 Cr ( 0.000000,  0.000000, -0.374384)
  85 Co ( 0.000000,  0.000000,  1.167870)
  86 Ni ( 0.000000,  0.000000,  0.319094)
  87 Co ( 0.000000,  0.000000,  0.358585)
  88 Cr ( 0.000000,  0.000000, -1.261616)
  89 Al ( 0.000000,  0.000000, -0.031657)
  90 Fe ( 0.000000,  0.000000,  2.391089)
  91 Al ( 0.000000,  0.000000, -0.034729)
  92 Co ( 0.000000,  0.000000,  1.304145)
  93 Fe ( 0.000000,  0.000000,  2.434367)
  94 Co ( 0.000000,  0.000000,  1.189361)
  95 Co ( 0.000000,  0.000000,  1.040580)
  96 Ni ( 0.000000,  0.000000,  0.420811)
  97 Co ( 0.000000,  0.000000,  1.352399)
  98 Co ( 0.000000,  0.000000,  0.920329)
  99 Cr ( 0.000000,  0.000000,  0.801098)
 100 Co ( 0.000000,  0.000000,  1.358946)
 101 Fe ( 0.000000,  0.000000,  2.495885)
 102 Cr ( 0.000000,  0.000000, -2.344856)
 103 Cr ( 0.000000,  0.000000, -1.702706)
 104 Al ( 0.000000,  0.000000, -0.011319)
 105 Ni ( 0.000000,  0.000000,  0.384490)
 106 Fe ( 0.000000,  0.000000,  2.392006)
 107 Fe ( 0.000000,  0.000000,  2.267393)
 108 Ni ( 0.000000,  0.000000,  0.434191)
 109 Ni ( 0.000000,  0.000000,  0.293591)
 110 Al ( 0.000000,  0.000000, -0.035843)
 111 Cr ( 0.000000,  0.000000, -2.664366)
 112 Fe ( 0.000000,  0.000000,  2.509379)
 113 Fe ( 0.000000,  0.000000,  2.165464)
 114 Fe ( 0.000000,  0.000000,  2.368275)
 115 Ni ( 0.000000,  0.000000,  0.191833)
 116 Cr ( 0.000000,  0.000000,  2.368935)
 117 Ni ( 0.000000,  0.000000,  0.307332)
 118 Fe ( 0.000000,  0.000000,  2.444486)
 119 Ni ( 0.000000,  0.000000,  0.398367)
 120 Co ( 0.000000,  0.000000,  1.040944)
 121 Ni ( 0.000000,  0.000000,  0.351306)
 122 Al ( 0.000000,  0.000000, -0.046799)
 123 Ni ( 0.000000,  0.000000,  0.137245)
 124 Cr ( 0.000000,  0.000000, -1.852842)

Energy contributions relative to reference atoms: (reference = -4103091.665053)

Kinetic:       +281.917472
Potential:     -303.645807
External:        +0.000000
XC:            -963.797590
Entropy (-ST):   -5.283222
Local:          +40.722397
--------------------------
Free energy:   -950.086749
Extrapolated:  -947.445138

Dipole-layer corrected work functions: 4.945611, 4.925385 eV

Spin contamination: 39.112712 electrons
Showing all kpts
                      Up                     Down
 Kpt  Band  Eigenvalues  Occupancy  Eigenvalues  Occupancy
  0   566     -0.05192    0.99517      0.83564    0.02800
  0   567     -0.05063    0.99511      0.85013    0.02432
  0   568     -0.03933    0.99453      0.85940    0.02221
  0   569     -0.02788    0.99387      0.87165    0.01970

  1   566     -0.04954    0.99506      0.84414    0.02578
  1   567     -0.03916    0.99452      0.85170    0.02395
  1   568     -0.02905    0.99394      0.86115    0.02184
  1   569     -0.02434    0.99365      0.87096    0.01984


Fermi level: 0.48094

No gap

Forces in eV/Ang:
  0 Fe    0.37274    0.38561    0.46460
  1 Cr   -0.45712    0.40369    0.19410
  2 Fe   -0.06920   -0.75347   -0.00673
  3 Fe   -0.06349   -0.61395    0.08952
  4 Cr   -0.06870    0.08209   -0.48298
  5 Fe   -0.20542   -0.59591   -0.04611
  6 Fe   -0.25329   -0.11793    0.18280
  7 Al    0.28539   -0.13685   -0.85203
  8 Co   -0.11851    0.04436    0.17079
  9 Cr    0.88914   -1.22504    0.05821
 10 Ni   -0.09486    0.11494    0.04592
 11 Cr   -0.41584    0.84231    0.23976
 12 Fe    0.36863    0.16896    0.09714
 13 Al   -0.38832    0.82167   -1.21166
 14 Ni   -0.09565    0.04641   -0.02413
 15 Co   -0.43086   -0.00305    0.57209
 16 Cr    0.01735   -0.04373   -0.12784
 17 Ni    0.09659   -0.16242    0.91905
 18 Co    0.18707    0.63809    0.12096
 19 Fe   -0.21608    0.06005   -0.15399
 20 Al    0.54350    0.21179   -1.07636
 21 Ni    0.09898    0.03963   -0.29977
 22 Cr   -0.01749   -0.63400   -0.32470
 23 Ni    0.02211    0.09767    0.95412
 24 Fe   -0.42060    0.12112   -0.01259
 25 Co   -0.17379   -0.05992    0.41382
 26 Co    0.05286   -0.04292   -0.12639
 27 Cr    0.09474    0.09448    0.64727
 28 Fe    0.08925   -0.19927    0.35583
 29 Fe   -0.01359   -0.36259    0.86637
 30 Cr   -0.22523    0.16268   -0.49730
 31 Ni   -0.04660    0.21670    0.13250
 32 Fe    0.13814   -0.11589    0.52254
 33 Al   -0.47080    0.63409    0.89904
 34 Cr    0.54675    0.14708    0.10481
 35 Ni    0.17751   -0.02607    0.41686
 36 Ni    0.00189    0.13972    0.49336
 37 Ni   -0.09046   -0.30365    0.66878
 38 Co   -0.15304   -0.16345    0.57971
 39 Fe    0.18203   -0.14944    0.16201
 40 Co    0.55585    0.26587    0.13231
 41 Co   -0.54688    0.01418    0.08758
 42 Co   -0.38470    0.19841    0.70826
 43 Fe    0.10170    0.12183    0.37203
 44 Ni    0.30952    0.27120    0.43493
 45 Cr   -0.14001   -0.62787    0.83475
 46 Fe    0.05343    0.26180    0.24649
 47 Co    0.23172    0.13053    0.12983
 48 Fe   -0.40060    0.25002    0.44129
 49 Al    0.85665   -0.12503    0.77545
 50 Cr    0.17578   -0.44715   -0.24714
 51 Ni    0.22514   -0.51406    0.00986
 52 Co   -0.00844   -0.89575   -0.15388
 53 Co    0.04020   -0.63287   -0.16788
 54 Cr   -0.56484   -0.28726   -0.04218
 55 Cr   -1.15262    0.10221    0.07067
 56 Al    0.48577   -0.15294   -0.36659
 57 Ni    0.27196    0.04236   -0.79644
 58 Co    0.12784    0.08601   -0.16494
 59 Cr   -0.16010    0.28802    0.21446
 60 Fe   -0.14572    0.17065    0.26295
 61 Cr    0.30912    0.88140    0.07841
 62 Co    0.16395    0.03947   -0.23308
 63 Cr   -0.54778   -0.11011   -0.62211
 64 Cr    0.38557   -0.12377   -0.55042
 65 Ni   -0.25437    0.29574   -0.39853
 66 Cr    0.51823   -0.35431   -0.43573
 67 Ni    0.19771    0.24583    0.55923
 68 Co   -0.07168    0.27744   -0.05100
 69 Co   -0.15107    0.14034   -0.12784
 70 Fe   -0.44880    0.31021   -0.44055
 71 Co    0.37727    0.05286    0.02724
 72 Co    0.14413   -0.19846    0.28112
 73 Cr   -0.48256    0.25236   -0.09119
 74 Ni    0.05984   -0.15693   -0.58895
 75 Cr   -0.01233   -0.04441    0.09952
 76 Ni    0.21928    0.01614   -0.33430
 77 Fe    0.15822   -0.61385    0.16295
 78 Fe   -0.11612   -0.41298   -0.12335
 79 Fe    0.02945    0.16239   -0.58352
 80 Co    0.15257   -0.33140   -0.52259
 81 Ni    0.04602    0.43313   -0.58782
 82 Ni   -0.15269    0.60212    0.15945
 83 Al   -0.86720   -0.12364   -0.80299
 84 Cr    0.05326   -0.75699    0.02824
 85 Co    0.64588    0.40501   -0.89321
 86 Ni    0.00012   -0.31540   -0.38023
 87 Co   -0.27064   -0.13382    0.05210
 88 Cr   -0.56076    0.82341   -0.18230
 89 Al    0.82753    1.11257   -0.10151
 90 Fe   -0.21032   -0.30723   -0.39802
 91 Al   -0.10171   -0.20762   -0.09287
 92 Co    0.60573   -0.10673   -0.54330
 93 Fe   -0.19325    0.29728   -1.15685
 94 Co   -0.20197    0.21126   -0.18101
 95 Co   -0.10500    0.13384   -0.80846
 96 Ni    0.27952    0.29714   -0.23275
 97 Co    0.17627   -0.30001   -0.65205
 98 Co   -0.35201   -0.20144   -0.34522
 99 Cr   -0.36734   -0.23939   -0.91814
100 Co    0.17908   -0.17355   -0.19329
101 Fe   -0.22096    0.04812    0.16912
102 Cr    0.07322    0.66378   -0.01151
103 Cr    0.16262    0.32221   -0.13577
104 Al    0.83151    0.87782    1.45253
105 Ni   -0.11162   -0.04266    0.13340
106 Fe    0.04038   -0.01739    0.16252
107 Fe    0.43104   -0.42178    0.23353
108 Ni   -0.08883    0.22563   -0.84987
109 Ni   -0.04563   -0.02992    0.44607
110 Al   -0.76128    0.41601    0.85638
111 Cr    1.23912   -0.01583   -0.29781
112 Fe    0.25535   -0.24679    0.43340
113 Fe    0.22337    0.02893    0.27419
114 Fe   -0.59944   -0.44899    0.48303
115 Ni    0.13891   -0.10666   -0.14583
116 Cr   -0.27629    0.05643    0.42509
117 Ni   -0.06979   -0.05256   -0.09335
118 Fe    0.14199   -0.07850    0.20276
119 Ni   -0.25130    0.22140    0.14845
120 Co    0.01455    0.13686   -0.11268
121 Ni   -0.00264    0.17005    0.14923
122 Al   -0.35225   -0.82918    0.65957
123 Ni   -0.14805   -0.14439   -0.60749
124 Cr   -0.29583   -0.79690    0.03936

Timing:                              incl.     excl.
-----------------------------------------------------------
Forces:                             45.821    45.821   0.2% |
Hamiltonian:                         2.040     0.018   0.0% |
 Atomic:                             0.418     0.002   0.0% |
  XC Correction:                     0.416     0.416   0.0% |
 Calculate atomic Hamiltonians:      0.890     0.890   0.0% |
 Communicate:                        0.092     0.092   0.0% |
 Initialize Hamiltonian:             0.001     0.001   0.0% |
 Poisson:                            0.133     0.133   0.0% |
 XC 3D grid:                         0.488     0.488   0.0% |
LCAO initialization:               328.205     0.617   0.0% |
 LCAO eigensolver:                  23.375     0.021   0.0% |
  Calculate projections:             0.000     0.000   0.0% |
  DenseAtomicCorrection:             0.000     0.000   0.0% |
  Distribute overlap matrix:        11.271    11.271   0.1% |
  Orbital Layouts:                  12.015    12.015   0.1% |
  Potential matrix:                  0.006     0.006   0.0% |
  Sum over cells:                    0.061     0.061   0.0% |
 LCAO to grid:                     301.334   301.334   1.5% ||
 Set positions (LCAO WFS):           2.880     2.491   0.0% |
  Basic WFS set positions:           0.004     0.004   0.0% |
  Basis functions set positions:     0.001     0.001   0.0% |
  P tci:                             0.001     0.001   0.0% |
  ST tci:                            0.156     0.156   0.0% |
  mktci:                             0.227     0.227   0.0% |
PWDescriptor:                        0.130     0.130   0.0% |
SCF-cycle:                       19572.567   831.856   4.2% |-|
 Davidson:                       18090.296  6605.754  33.1% |------------|
  Apply H:                         468.925   465.076   2.3% ||
   HMM T:                            3.849     3.849   0.0% |
  Subspace diag:                  1794.223     0.042   0.0% |
   calc_h_matrix:                  745.582   403.054   2.0% ||
    Apply H:                       342.528   338.295   1.7% ||
     HMM T:                          4.233     4.233   0.0% |
   diagonalize:                    285.270   285.270   1.4% ||
   rotate_psi:                     763.329   763.329   3.8% |-|
  calc. matrices:                 4866.393  4264.473  21.4% |--------|
   Apply H:                        601.920   594.190   3.0% ||
    HMM T:                           7.729     7.729   0.0% |
  diagonalize:                    2420.153  2420.153  12.1% |----|
  rotate_psi:                     1934.849  1934.849   9.7% |---|
 Density:                          357.596     0.003   0.0% |
  Atomic density matrices:           2.735     2.735   0.0% |
  Mix:                             171.435   171.435   0.9% |
  Multipole moments:                 0.094     0.094   0.0% |
  Pseudo density:                  183.329   183.325   0.9% |
   Symmetrize density:               0.004     0.004   0.0% |
 Hamiltonian:                      274.203     1.183   0.0% |
  Atomic:                           34.662     0.125   0.0% |
   XC Correction:                   34.537    34.537   0.2% |
  Calculate atomic Hamiltonians:   153.322   153.322   0.8% |
  Communicate:                      38.858    38.858   0.2% |
  Poisson:                           4.726     4.726   0.0% |
  XC 3D grid:                       41.451    41.451   0.2% |
 Orthonormalize:                    18.616     0.000   0.0% |
  calc_s_matrix:                     1.713     1.713   0.0% |
  inverse-cholesky:                  1.571     1.571   0.0% |
  projections:                      12.331    12.331   0.1% |
  rotate_psi_s:                      2.999     2.999   0.0% |
Set symmetry:                        0.001     0.001   0.0% |
Other:                               8.986     8.986   0.0% |
-----------------------------------------------------------
Total:                                     19957.752 100.0%

Date: Tue Apr 18 18:22:35 2023
