
  ___ ___ ___ _ _ _  
 |   |   |_  | | | | 
 | | | | | . | | | | 
 |__ |  _|___|_____|  22.8.0
 |___|_|             

User:   c.zeng@d0072
Date:   Mon Apr 17 19:26:14 2023
Arch:   x86_64
Pid:    237609
CWD:    /home/c.zeng/projects/hea-corrosion/hea-mlp/data-curation/surface-md/dft-jobs/76
Python: 3.8.1
gpaw:   /home/c.zeng/usr/installs/gpaw/source/gpaw-22.8.0/gpaw
_gpaw:  /home/c.zeng/usr/installs/gpaw/source/gpaw-22.8.0/
        _gpaw.cpython-38-x86_64-linux-gnu.so
ase:    /home/c.zeng/.local/lib/python3.8/site-packages/ase-3.22.1-py3.8.egg/ase (version 3.22.1)
numpy:  /home/c.zeng/.local/lib/python3.8/site-packages/numpy (version 1.24.2)
scipy:  /home/c.zeng/.local/lib/python3.8/site-packages/scipy (version 1.10.1)
libxc:  4.2.3
units:  Angstrom and eV
cores: 30
OpenMP: False
OMP_NUM_THREADS: 1

Input parameters:
  convergence: {energy: 0.0001}
  kpts: [2 2 1]
  maxiter: 666
  mode: {ecut: 350.0,
         name: pw}
  occupations: {fixmagmom: False,
                name: fermi-dirac,
                width: 0.1}
  poissonsolver: {dipolelayer: xy}
  spinpol: True
  symmetry: {point_group: False}
  xc: PBE

System changes: positions, numbers, cell, pbc, initial_charges, initial_magmoms 

Initialize ...

species:
  Cr:
    name: Chromium
    id: 33f258bda2ca9f93018e70263a35547b
    Z: 24.0
    valence: 6
    core: 18
    charge: 0.0
    file: /home/c.zeng/usr/data/gpaw-setups-0.9.20000/Cr.PBE.gz
    compensation charges: {type: gauss,
                           rc: 0.35,
                           lmax: 2}
    cutoffs: {filter: 2.14,
              core: 3.04}
    valence states:
      #              energy  rcut
      - 4s(1.00)    -4.007   1.164
      - 4p(0.00)    -0.989   1.217
      - 3d(5.00)    -2.913   1.111
      -  s          23.205   1.164
      -  p          26.223   1.217
      -  d          24.299   1.111
  
    # Using partial waves for Cr as LCAO basis

  Al:
    name: Aluminium
    id: 0292cae29f5d6237e50f6abdd43a7bdd
    Z: 13.0
    valence: 3
    core: 10
    charge: 0.0
    file: /home/c.zeng/usr/data/gpaw-setups-0.9.20000/Al.PBE.gz
    compensation charges: {type: gauss,
                           rc: 0.34,
                           lmax: 2}
    cutoffs: {filter: 1.91,
              core: 2.36}
    valence states:
      #              energy  rcut
      - 3s(2.00)    -7.753   1.085
      - 3p(1.00)    -2.712   1.085
      -  s          19.459   1.085
      -  p          24.499   1.085
      -  d           0.000   1.085
  
    # Using partial waves for Al as LCAO basis

  Fe:
    name: Iron
    id: 37abbd8d6c3c35915a9b583b742da910
    Z: 26.0
    valence: 8
    core: 18
    charge: 0.0
    file: /home/c.zeng/usr/data/gpaw-setups-0.9.20000/Fe.PBE.gz
    compensation charges: {type: gauss,
                           rc: 0.33,
                           lmax: 2}
    cutoffs: {filter: 2.06,
              core: 2.67}
    valence states:
      #              energy  rcut
      - 4s(2.00)    -5.291   1.164
      - 4p(0.00)    -1.326   1.058
      - 3d(6.00)    -7.505   1.058
      -  s          21.920   1.164
      -  p          25.885   1.058
      -  d          19.706   1.058
  
    # Using partial waves for Fe as LCAO basis

  Co:
    name: Cobalt
    id: 339d20d5b0b93d2de9531a1bee871d91
    Z: 27.0
    valence: 9
    core: 18
    charge: 0.0
    file: /home/c.zeng/usr/data/gpaw-setups-0.9.20000/Co.PBE.gz
    compensation charges: {type: gauss,
                           rc: 0.32,
                           lmax: 2}
    cutoffs: {filter: 1.87,
              core: 2.55}
    valence states:
      #              energy  rcut
      - 4s(2.00)    -5.469   1.005
      - 4p(0.00)    -1.277   1.058
      - 3d(7.00)    -8.205   1.005
      -  s          21.742   1.005
      -  p          25.934   1.058
      -  d          19.007   1.005
  
    # Using partial waves for Co as LCAO basis

  Ni:
    name: Nickel
    id: 0d9f38a9d6e76a2886f07bb4381f212b
    Z: 28.0
    valence: 16
    core: 12
    charge: 0.0
    file: /home/c.zeng/usr/data/gpaw-setups-0.9.20000/Ni.PBE.gz
    compensation charges: {type: gauss,
                           rc: 0.36,
                           lmax: 2}
    cutoffs: {filter: 2.14,
              core: 1.98}
    valence states:
      #              energy  rcut
      - 4s(2.00)    -5.642   1.164
      - 3p(6.00)   -71.394   1.207
      - 4p(0.00)    -1.226   1.207
      - 3d(8.00)    -8.875   1.138
      -  s          21.570   1.164
      -  d          18.337   1.138
  
    # Using partial waves for Ni as LCAO basis

Reference energy: -3927717.499734  # eV

Spin-polarized calculation.
Magnetic moment: 149.100000

Convergence criteria:
 Maximum [total energy] change in last 3 cyles: 0.0001 eV / electron
 Maximum integral of absolute [dens]ity change: 0.0001 electrons / valence electron
 Maximum integral of absolute [eigenst]ate change: 4e-08 eV^2 / valence electron
 Maximum number of scf [iter]ations: 666
 (Square brackets indicate name in SCF output, whereas a 'c' in
 the SCF output indicates the quantity has converged.)

Symmetries present (total): 1

  ( 1  0  0)
  ( 0  1  0)
  ( 0  0  1)

4 k-points: 2 x 2 x 1 Monkhorst-Pack grid
2 k-points in the irreducible part of the Brillouin zone
       k-points in crystal coordinates                weights
   0:     0.25000000   -0.25000000    0.00000000          2/4
   1:     0.25000000    0.25000000    0.00000000          2/4

Wave functions: Plane wave expansion
  Cutoff energy: 350.000 eV
  Number of coefficients (min, max): 60143, 60161
  Pulay-stress correction: 0.000000 eV/Ang^3 (de/decut=0.000000)
  Using FFTW library
  ScaLapack parameters: grid=1x1, blocksize=None
  Wavefunction extrapolation:
    Improved wavefunction reuse through dual PAW basis 

Occupation numbers: Fermi-Dirac:
  width: 0.1000  # eV
 

Eigensolver
   Davidson(niter=2) 

Densities:
  Coarse grid: 56*56*128 grid
  Fine grid: 112*112*256 grid
  Total Charge: 0.000000 

Density mixing:
  Method: difference
  Backend: pulay
  Linear mixing parameter: 0.05
  old densities: 5
  Damping of long wavelength oscillations: 50 

Hamiltonian:
  XC and Coulomb potentials evaluated on a 112*112*256 grid
  Using the PBE Exchange-Correlation functional
  External potential:
    NoExternalPotential
 

XC parameters: PBE with 2 nearest neighbor stencil

Memory estimate:
  Process memory now: 368.20 MiB
  Calculator: 2209.57 MiB
    Density: 18.91 MiB
      Arrays: 7.39 MiB
      Localized functions: 8.57 MiB
      Mixer: 2.95 MiB
    Hamiltonian: 5.75 MiB
      Arrays: 5.49 MiB
      XC: 0.00 MiB
      Poisson: 0.00 MiB
      vbar: 0.26 MiB
    Wavefunctions: 2184.92 MiB
      Arrays psit_nG: 1382.48 MiB
      Eigensolver: 782.37 MiB
      Projections: 3.31 MiB
      Projectors: 1.16 MiB
      PW-descriptor: 15.59 MiB

Total number of cores used: 30
Parallelization over k-points: 2
Domain decomposition: 1 x 3 x 5

Number of atoms: 125
Number of atomic orbitals: 1116
Number of bands in calculation: 753
Number of valence electrons: 1098
Bands to converge: occupied

... initialized

Initializing position-dependent things.

Density initialized from atomic densities
Creating initial wave functions:
  753 bands from LCAO basis set

                                                                       
                                                                       
                                                                       
                                                                       
                                                                       
                                                                       
                                                                       
                                                    Fe                 
                          Co   Fe      Fe    Ni                        
                        Co   Cr    Co NiFe Al Ni Cr                    
                                 Al             Co  Ni                 
                    Al     CriCr  CoCr CoNio Co       Ni               
        Cr     Fe    Nie Co       Cr  Cr       Ni                      
                Co     Fe  Ni Ni    Cr     Ni    Al                    
           Cr             Alr          Al Al Fe     Ni                 
            Co    CoFe FNi    CoNieNiFCr   CoCo        Cr              
                            Co       Cr   Al       Ni        Al        
               Cr    Fe           Co  Ni Fe Co  Cr Cr  Cr              
                  Ni  Feo    NieiFe Fe                                 
          Co    Fe  Cr    Cr      Co    Ni Fe  Co    Al                
             Al    Co     Cr   Cr  FeAlFe    Al     Fe                 
                     Co    Ale   Fe       Co   Fe                      
                              Al     Cr Ni    Co                       
                 Cr     Ni         Cr     Crr    Ni                    
                       Al    Fe                                        
                                                                       
                                                                       
                                                                       
                                                                       
                                                                       
                                                                       

Positions:
   0 Cr    13.990850    1.478304   10.578126    ( 0.0000,  0.0000,  0.0000)
   1 Cr     3.843126    1.306896   10.450601    ( 0.0000,  0.0000,  0.0000)
   2 Al     6.219244    1.886771    9.764441    ( 0.0000,  0.0000,  0.0000)
   3 Fe     8.517786    3.011187    8.904119    ( 0.0000,  0.0000,  2.0000)
   4 Cr    10.976205    1.912541   10.419897    ( 0.0000,  0.0000,  0.0000)
   5 Co    15.156437    3.395751   10.795080    ( 0.0000,  0.0000,  2.1000)
   6 Co     4.760864    3.714093   10.898558    ( 0.0000,  0.0000,  2.1000)
   7 Ni     7.392146    3.763661   11.627482    ( 0.0000,  0.0000,  1.5000)
   8 Fe     9.765345    4.012096   11.201557    ( 0.0000,  0.0000,  2.0000)
   9 Ni    12.413186    3.737297   10.455896    ( 0.0000,  0.0000,  1.5000)
  10 Ni    15.930435    5.209748    9.236449    ( 0.0000,  0.0000,  1.5000)
  11 Ni     5.922056    4.377108    9.288563    ( 0.0000,  0.0000,  1.5000)
  12 Al     8.222266    5.408119    9.913565    ( 0.0000,  0.0000,  0.0000)
  13 Cr    10.796725    5.383957    9.291803    ( 0.0000,  0.0000,  0.0000)
  14 Cr    13.381883    5.209260    8.887110    ( 0.0000,  0.0000,  0.0000)
  15 Fe    16.663902    7.819036    9.908640    ( 0.0000,  0.0000,  2.0000)
  16 Fe     6.795381    7.491883    9.202096    ( 0.0000,  0.0000,  2.0000)
  17 Fe     9.697373    7.785276    9.844107    ( 0.0000,  0.0000,  2.0000)
  18 Co    12.403968    7.498082    9.587472    ( 0.0000,  0.0000,  2.1000)
  19 Fe    14.457249    8.014617    8.692146    ( 0.0000,  0.0000,  2.0000)
  20 Al    19.351745   10.593612   12.239383    ( 0.0000,  0.0000,  0.0000)
  21 Ni    11.011596    9.834271   10.244605    ( 0.0000,  0.0000,  1.5000)
  22 Co    11.815632   11.375384   12.009822    ( 0.0000,  0.0000,  2.1000)
  23 Co    13.706945   10.566431    9.855279    ( 0.0000,  0.0000,  2.1000)
  24 Al    16.074727   11.284202    8.926483    ( 0.0000,  0.0000,  0.0000)
  25 Al     8.622278   10.184413   10.023397    ( 0.0000,  0.0000,  0.0000)
  26 Fe     9.451905   10.998055   12.527762    ( 0.0000,  0.0000,  2.0000)
  27 Al     8.015634    0.144508   12.714232    ( 0.0000,  0.0000,  0.0000)
  28 Ni    14.872556   12.470475   10.736543    ( 0.0000,  0.0000,  1.5000)
  29 Cr    16.823410   11.100401   12.338525    ( 0.0000,  0.0000,  0.0000)
  30 Al     1.892622    2.309866   12.934280    ( 0.0000,  0.0000,  0.0000)
  31 Co     4.510435    2.333279   12.846998    ( 0.0000,  0.0000,  2.1000)
  32 Cr     7.136847    2.165855   13.363559    ( 0.0000,  0.0000,  0.0000)
  33 Cr     9.340536    2.312279   13.107771    ( 0.0000,  0.0000,  0.0000)
  34 Al    11.747992    2.531581   12.715998    ( 0.0000,  0.0000,  0.0000)
  35 Ni     3.355344    4.744960   13.277291    ( 0.0000,  0.0000,  1.5000)
  36 Co     5.599185    4.935450   13.238036    ( 0.0000,  0.0000,  2.1000)
  37 Fe     8.271514    4.586935   13.434503    ( 0.0000,  0.0000,  2.0000)
  38 Fe    10.643583    4.572883   13.396623    ( 0.0000,  0.0000,  2.0000)
  39 Fe    13.496723    4.525298   12.605888    ( 0.0000,  0.0000,  2.0000)
  40 Cr     3.825976    5.880361   11.500865    ( 0.0000,  0.0000,  0.0000)
  41 Cr     6.300742    6.100387   11.136850    ( 0.0000,  0.0000,  0.0000)
  42 Fe     9.215791    6.385366   12.288365    ( 0.0000,  0.0000,  2.0000)
  43 Fe    11.697381    5.771935   11.429360    ( 0.0000,  0.0000,  2.0000)
  44 Al    14.108561    6.493914   11.091858    ( 0.0000,  0.0000,  0.0000)
  45 Cr    17.620153    8.282891   12.131516    ( 0.0000,  0.0000,  0.0000)
  46 Ni     7.848167    8.131850   11.299892    ( 0.0000,  0.0000,  1.5000)
  47 Ni    10.512612    8.445261   12.237323    ( 0.0000,  0.0000,  1.5000)
  48 Co    12.949532    8.996950   11.848714    ( 0.0000,  0.0000,  2.1000)
  49 Cr    15.505471    9.325365   11.363711    ( 0.0000,  0.0000,  0.0000)
  50 Co     1.208640    0.802743   14.499205    ( 0.0000,  0.0000,  2.1000)
  51 Fe     3.539175    1.070277   14.610547    ( 0.0000,  0.0000,  2.0000)
  52 Fe     5.886567    0.982530   14.974884    ( 0.0000,  0.0000,  2.0000)
  53 Ni     8.671380    0.782865   14.893474    ( 0.0000,  0.0000,  1.5000)
  54 Co    11.103340    0.434295   14.617683    ( 0.0000,  0.0000,  2.1000)
  55 Cr     2.677091    3.136529   15.191087    ( 0.0000,  0.0000,  0.0000)
  56 Fe     5.165211    3.032455   14.980306    ( 0.0000,  0.0000,  2.0000)
  57 Co     7.823019    2.973530   15.672498    ( 0.0000,  0.0000,  2.1000)
  58 Co    10.464538    3.089652   15.180827    ( 0.0000,  0.0000,  2.1000)
  59 Fe    12.890590    3.475025   14.824415    ( 0.0000,  0.0000,  2.0000)
  60 Fe     4.114604    5.125855   15.457406    ( 0.0000,  0.0000,  2.0000)
  61 Al     6.380123    5.516313   15.946551    ( 0.0000,  0.0000,  0.0000)
  62 Ni     9.101717    5.287195   15.823209    ( 0.0000,  0.0000,  1.5000)
  63 Cr    11.394649    5.608786   15.340349    ( 0.0000,  0.0000,  0.0000)
  64 Co    14.347903    5.431683   15.330766    ( 0.0000,  0.0000,  2.1000)
  65 Fe     4.722875    7.044174   14.189861    ( 0.0000,  0.0000,  2.0000)
  66 Al     6.955529    6.967076   13.473388    ( 0.0000,  0.0000,  0.0000)
  67 Ni     9.755372    7.084651   14.271400    ( 0.0000,  0.0000,  1.5000)
  68 Al    12.644840    6.851522   13.796129    ( 0.0000,  0.0000,  0.0000)
  69 Cr    15.077109    7.081138   13.133851    ( 0.0000,  0.0000,  0.0000)
  70 Cr     5.932776    9.144895   14.123684    ( 0.0000,  0.0000,  0.0000)
  71 Fe     8.410931    9.095194   13.522167    ( 0.0000,  0.0000,  2.0000)
  72 Al    10.812398    9.472947   14.366867    ( 0.0000,  0.0000,  0.0000)
  73 Fe    13.263092    9.311929   14.520759    ( 0.0000,  0.0000,  2.0000)
  74 Ni    15.994622    9.560667   13.891019    ( 0.0000,  0.0000,  1.5000)
  75 Cr    11.732299    1.621288   16.582687    ( 0.0000,  0.0000,  0.0000)
  76 Co     1.848435    1.515424   17.087734    ( 0.0000,  0.0000,  2.1000)
  77 Co     4.120042    1.725202   17.002726    ( 0.0000,  0.0000,  2.1000)
  78 Ni     6.644486    1.640375   16.929883    ( 0.0000,  0.0000,  1.5000)
  79 Co     9.190931    1.394951   17.131020    ( 0.0000,  0.0000,  2.1000)
  80 Al    13.374571    4.034864   17.068911    ( 0.0000,  0.0000,  0.0000)
  81 Co     2.985125    3.801926   17.490125    ( 0.0000,  0.0000,  2.1000)
  82 Fe     5.499985    3.764306   17.651463    ( 0.0000,  0.0000,  2.0000)
  83 Ni     8.630964    3.820977   17.871535    ( 0.0000,  0.0000,  1.5000)
  84 Cr    10.934236    4.327326   17.592736    ( 0.0000,  0.0000,  0.0000)
  85 Ni    14.745688    6.354872   17.534137    ( 0.0000,  0.0000,  1.5000)
  86 Fe     4.607191    5.963536   17.635984    ( 0.0000,  0.0000,  2.0000)
  87 Ni     7.100124    6.555419   18.033702    ( 0.0000,  0.0000,  1.5000)
  88 Co     9.757515    6.253999   18.072761    ( 0.0000,  0.0000,  2.1000)
  89 Ni    12.292312    6.098113   18.038085    ( 0.0000,  0.0000,  1.5000)
  90 Al    15.412253    7.849503   15.818284    ( 0.0000,  0.0000,  0.0000)
  91 Co     5.298480    7.917730   16.257983    ( 0.0000,  0.0000,  2.1000)
  92 Ni     7.717313    7.913906   16.037972    ( 0.0000,  0.0000,  1.5000)
  93 Cr    10.623767    7.958869   16.653322    ( 0.0000,  0.0000,  0.0000)
  94 Ni    12.807669    7.596598   16.284589    ( 0.0000,  0.0000,  1.5000)
  95 Ni    16.896106   10.050044   16.374330    ( 0.0000,  0.0000,  1.5000)
  96 Cr     6.957268   10.155981   16.649376    ( 0.0000,  0.0000,  0.0000)
  97 Cr     9.463870   10.120613   16.518084    ( 0.0000,  0.0000,  0.0000)
  98 Co    11.782586   10.032372   16.656490    ( 0.0000,  0.0000,  2.1000)
  99 Co    14.356164    9.949142   16.914049    ( 0.0000,  0.0000,  2.1000)
 100 Co     5.211875   10.855162   18.488477    ( 0.0000,  0.0000,  2.1000)
 101 Cr     1.770596   -0.150701   18.974681    ( 0.0000,  0.0000,  0.0000)
 102 Fe    10.568957   10.629866   18.632846    ( 0.0000,  0.0000,  2.0000)
 103 Ni    13.024421   10.400120   19.097413    ( 0.0000,  0.0000,  1.5000)
 104 Fe    15.708960   10.593613   19.306986    ( 0.0000,  0.0000,  2.0000)
 105 Cr     0.210526    1.967608   19.254467    ( 0.0000,  0.0000,  0.0000)
 106 Fe     2.679094    2.155126   19.477119    ( 0.0000,  0.0000,  2.0000)
 107 Ni     5.403339    1.948400   19.451269    ( 0.0000,  0.0000,  1.5000)
 108 Ni     7.921927    1.634694   18.829643    ( 0.0000,  0.0000,  1.5000)
 109 Cr    10.342601    2.338969   19.127234    ( 0.0000,  0.0000,  0.0000)
 110 Al    13.849753    3.320620   21.368077    ( 0.0000,  0.0000,  0.0000)
 111 Al     4.256151    4.396311   19.595674    ( 0.0000,  0.0000,  0.0000)
 112 Cr     6.966202    4.520811   19.562001    ( 0.0000,  0.0000,  0.0000)
 113 Al     9.407726    4.695383   20.022941    ( 0.0000,  0.0000,  0.0000)
 114 Co    12.033715    4.186414   19.684388    ( 0.0000,  0.0000,  2.1000)
 115 Cr    15.554404    6.703627   19.681555    ( 0.0000,  0.0000,  0.0000)
 116 Co     5.465262    6.924060   19.811122    ( 0.0000,  0.0000,  2.1000)
 117 Fe     8.043750    6.877610   20.217986    ( 0.0000,  0.0000,  2.0000)
 118 Ni    11.246014    6.358481   20.150220    ( 0.0000,  0.0000,  1.5000)
 119 Co    14.508417    4.761172   19.448898    ( 0.0000,  0.0000,  2.1000)
 120 Ni    16.329194    8.433993   18.121250    ( 0.0000,  0.0000,  1.5000)
 121 Cr     6.961284    8.747251   18.823731    ( 0.0000,  0.0000,  0.0000)
 122 Co     9.219078    8.518486   18.470794    ( 0.0000,  0.0000,  2.1000)
 123 Fe    11.552396    8.493561   18.774628    ( 0.0000,  0.0000,  2.0000)
 124 Ni    13.890185    8.130046   19.007513    ( 0.0000,  0.0000,  1.5000)

Unit cell:
           periodic     x           y           z      points  spacing
  1. axis:    yes   12.614700    0.000000    0.000000    56     0.1951
  2. axis:    yes    6.308550   10.926700    0.000000    56     0.1951
  3. axis:    no     0.000000    0.000000   29.353100   128     0.2293

  Lengths:  12.614700  12.617075  29.353100
  Angles:   90.000000  90.000000  59.999934

Effective grid spacing dv^(1/3) = 0.2160

     iter     time        total  log10-change:  magmom
                         energy  eigst   dens
iter:   1 19:35:13 -1144.021027                  +149.4302
iter:   2 19:38:25 -1470.050845  +0.36  -1.07    +79.3528
iter:   3 19:41:36 -3745.779010  +1.57  -0.85    +51.5301
iter:   4 19:44:49  -968.087145  +0.39  -0.48    +29.2666
iter:   5 19:48:01  -940.834436  +0.13  -1.15    +26.8122
iter:   6 19:51:13  -945.572104  -0.30  -1.19    +27.4840
iter:   7 19:54:26  -931.883013  -0.78  -1.19    +28.3442
iter:   8 19:57:38  -928.731416  -0.93  -1.21    +29.9689
iter:   9 20:00:50 -1493.398446  -0.42  -1.21    +33.2088
iter:  10 20:04:03  -915.317823  -0.86  -0.83    +29.8582
iter:  11 20:07:14  -988.969219  -1.05  -1.30    +30.4951
iter:  12 20:10:27  -906.482363  -1.56  -1.11    +32.3449
iter:  13 20:13:39  -898.045639  -1.81  -1.35    +33.8808
iter:  14 20:16:51  -894.446875  -1.79  -1.38    +37.6858
iter:  15 20:20:04  -890.156394  -1.53  -1.40    +42.1082
iter:  16 20:23:16  -890.609085  -1.75  -1.45    +45.1027
iter:  17 20:26:27  -896.413808  -1.84  -1.45    +49.5085
iter:  18 20:29:40 -1014.777370  -1.34  -1.46    +53.9903
iter:  19 20:32:52  -896.913970  -1.52  -1.12    +52.5576
iter:  20 20:36:01  -890.300575  -1.77  -1.48    +53.5674
iter:  21 20:39:10  -886.178827  -2.16  -1.53    +59.5931
iter:  22 20:42:23  -884.666796  -2.36  -1.62    +64.2423
iter:  23 20:45:35  -885.607954  -2.45  -1.65    +70.5971
iter:  24 20:48:47  -964.310589  -1.72  -1.68    +73.6216
iter:  25 20:51:58  -888.721216  -1.88  -1.21    +73.6293
iter:  26 20:55:06  -890.501490  -2.25  -1.69    +73.8956
iter:  27 20:58:18  -889.393120  -2.23  -1.69    +76.7402
iter:  28 21:01:30  -894.204969  -2.09  -1.77    +78.8259
iter:  29 21:04:42  -889.281978  -2.26  -1.68    +80.8723
iter:  30 21:07:54  -889.209950  -2.46  -1.81    +82.1275
iter:  31 21:11:05  -965.762960  -1.63  -1.91    +82.8036
iter:  32 21:14:17  -889.633247  -1.94  -1.23    +82.3246
iter:  33 21:17:29  -890.359221  -2.59  -1.94    +83.0560
iter:  34 21:20:14  -890.071039  -2.73  -1.97    +84.8706
iter:  35 21:23:14  -892.292607  -2.51  -2.03    +85.7674
iter:  36 21:26:27  -890.201831  -3.01  -1.90    +86.5995
iter:  37 21:29:40  -891.760828  -2.87  -2.10    +87.5197
iter:  38 21:32:52  -913.820650  -2.03  -2.06    +87.4917
iter:  39 21:36:04  -891.259545  -2.43  -1.49    +87.0479
iter:  40 21:39:16  -891.316353  -2.84  -2.14    +88.1700
iter:  41 21:42:28  -891.446545  -3.03  -2.21    +88.7484
iter:  42 21:45:40  -891.409540  -3.14  -2.26    +88.8293
iter:  43 21:48:52  -891.665588  -3.43  -2.27    +89.0203
iter:  44 21:52:03  -893.209198  -3.03  -2.27    +89.2176
iter:  45 21:55:15  -891.634428  -3.28  -2.03    +89.0628
iter:  46 21:58:27  -891.769702  -3.55  -2.34    +89.1103
iter:  47 22:01:39  -891.795346  -3.66  -2.35    +89.3860
iter:  48 22:04:51  -891.922749  -3.44  -2.43    +89.5442
iter:  49 22:08:03  -891.966201  -3.45  -2.45    +89.6425
iter:  50 22:11:15  -892.147913  -3.37  -2.52    +89.7304
iter:  51 22:14:27  -893.205726  -3.20  -2.50    +89.8828
iter:  52 22:17:40  -892.042470  -3.61  -2.14    +90.1242
iter:  53 22:20:52  -892.094532  -3.81  -2.67    +90.4590
iter:  54 22:24:03  -892.112153c -4.09  -2.72    +90.5632
iter:  55 22:27:17  -892.144670c -4.19  -2.73    +90.8099
iter:  56 22:30:28  -892.207313c -4.26  -2.79    +91.0488
iter:  57 22:33:40  -892.330612  -3.94  -2.78    +91.4895
iter:  58 22:36:53  -892.361731  -4.45  -2.67    +91.5896
iter:  59 22:40:05  -892.425284c -4.16  -2.64    +91.9423
iter:  60 22:43:17  -892.546903  -3.32  -2.61    +92.9750
iter:  61 22:46:29  -892.781938  -3.99  -2.57    +93.0291
iter:  62 22:49:41  -892.656878  -3.89  -2.43    +93.1394
iter:  63 22:52:53  -892.663815  -3.98  -2.51    +93.1369
iter:  64 22:56:05  -892.530890  -3.70  -2.48    +93.1067
iter:  65 22:59:17  -892.562200  -3.43  -2.54    +93.0472
iter:  66 23:02:30  -892.608562c -3.20  -2.46    +92.7437
iter:  67 23:05:41  -892.435957  -3.64  -2.49    +92.5734
iter:  68 23:08:53  -892.798077  -3.43  -2.61    +92.4235
iter:  69 23:12:05  -892.553884  -3.58  -2.36    +92.4762
iter:  70 23:15:17  -892.581292  -3.73  -2.55    +92.6293
iter:  71 23:18:29  -892.553157c -3.70  -2.51    +92.6442
iter:  72 23:21:41  -892.463366  -3.85  -2.55    +92.6879
iter:  73 23:24:53  -892.505381c -4.30  -2.68    +92.6109
iter:  74 23:28:04  -892.471853c -3.88  -2.62    +92.6665
iter:  75 23:31:11  -892.423519c -4.23  -2.67    +92.7201
iter:  76 23:34:23  -892.515776c -3.95  -2.78    +92.6243
iter:  77 23:37:35  -892.445455c -4.16  -2.63    +92.6385
iter:  78 23:40:47  -892.424749c -4.17  -2.75    +92.6759
iter:  79 23:43:58  -892.410330c -4.28  -2.84    +92.7066
iter:  80 23:47:07  -892.429512c -4.33  -2.92    +92.6276
iter:  81 23:50:18  -892.419103c -4.62  -2.85    +92.6300
iter:  82 23:53:29  -892.406714c -4.79  -2.98    +92.6769
iter:  83 23:56:41  -892.433746c -4.70  -3.01    +92.6702
iter:  84 23:59:52  -892.409640c -4.85  -2.90    +92.6599
iter:  85 00:03:05  -892.417547c -4.64  -3.07    +92.6064
iter:  86 00:06:15  -892.435585c -4.63  -3.01    +92.6573
iter:  87 00:08:50  -892.419069c -4.59  -2.94    +92.7428
iter:  88 00:12:01  -892.432090c -4.62  -3.02    +92.6837
iter:  89 00:15:13  -892.413333c -4.99  -2.99    +92.6892
iter:  90 00:18:24  -892.412557c -5.23  -3.12    +92.7204
iter:  91 00:21:35  -892.420848c -4.90  -3.21    +92.7266
iter:  92 00:24:46  -892.413645c -5.08  -3.14    +92.6948
iter:  93 00:27:57  -892.419869c -5.06  -3.25    +92.6830
iter:  94 00:31:09  -892.431498c -4.61  -3.28    +92.6986
iter:  95 00:34:20  -892.447371c -4.60  -3.02    +92.6821
iter:  96 00:37:31  -892.414896c -4.95  -2.94    +92.6204
iter:  97 00:40:42  -892.413663c -5.19  -3.40    +92.6054
iter:  98 00:43:53  -892.419293c -5.41  -3.49    +92.6388
iter:  99 00:47:04  -892.419022c -6.01  -3.32    +92.6621
iter: 100 00:50:15  -892.420631c -5.08  -3.36    +92.6985
iter: 101 00:53:25  -892.419038c -5.68  -3.36    +92.6790
iter: 102 00:56:36  -892.421295c -5.68  -3.42    +92.6805
iter: 103 00:59:47  -892.422387c -5.26  -3.36    +92.6752
iter: 104 01:02:58  -892.431238c -5.26  -3.21    +92.6847
iter: 105 01:06:08  -892.426876c -4.93  -3.23    +92.7115
iter: 106 01:09:19  -892.462396c -4.74  -3.17    +92.6904
iter: 107 01:12:30  -892.444652c -4.64  -2.92    +92.6834
iter: 108 01:15:40  -892.440554c -4.78  -3.05    +92.6735
iter: 109 01:18:51  -892.429452c -4.48  -3.05    +92.5951
iter: 110 01:22:02  -892.430657c -4.94  -3.12    +92.6009
iter: 111 01:25:13  -892.426858c -4.91  -3.17    +92.6203
iter: 112 01:28:24  -892.426541c -5.22  -3.10    +92.6139
iter: 113 01:31:35  -892.428143c -5.65  -3.25    +92.5994
iter: 114 01:34:45  -892.423500c -5.73  -3.24    +92.6042
iter: 115 01:37:56  -892.426608c -5.45  -3.35    +92.6072
iter: 116 01:41:07  -892.422522c -5.13  -3.29    +92.6017
iter: 117 01:44:18  -892.427521c -5.22  -3.48    +92.5947
iter: 118 01:47:29  -892.419520c -5.46  -3.29    +92.5830
iter: 119 01:50:40  -892.421364c -5.47  -3.75    +92.5860
iter: 120 01:53:51  -892.423233c -5.63  -3.49    +92.6159
iter: 121 01:57:02  -892.422363c -6.13  -3.57    +92.6213
iter: 122 02:00:12  -892.421952c -7.00  -3.79    +92.6109
iter: 123 02:03:23  -892.420534c -5.64  -3.80    +92.5623
iter: 124 02:06:34  -892.421871c -5.94  -3.84    +92.5772
iter: 125 02:09:45  -892.420541c -6.26  -3.69    +92.5615
iter: 126 02:12:57  -892.419064c -5.47  -3.82    +92.5340
iter: 127 02:16:05  -892.422699c -5.03  -3.56    +92.6010
iter: 128 02:19:13  -892.424890c -5.40  -3.73    +92.5886
iter: 129 02:22:24  -892.424719c -5.76  -3.55    +92.5871
iter: 130 02:25:36  -892.432030c -5.48  -3.62    +92.6005
iter: 131 02:28:47  -892.429958c -5.40  -3.23    +92.6027
iter: 132 02:31:58  -892.425235c -5.11  -3.45    +92.6283
iter: 133 02:35:07  -892.432356c -4.91  -3.41    +92.6212
iter: 134 02:38:16  -892.426307c -5.33  -3.29    +92.5865
iter: 135 02:41:27  -892.458890c -4.72  -3.46    +92.5994
iter: 136 02:44:38  -892.423289c -5.32  -2.90    +92.5890
iter: 137 02:47:48  -892.422622c -5.71  -3.60    +92.5785
iter: 138 02:51:00  -892.423575c -5.96  -3.85    +92.5454
iter: 139 02:54:10  -892.423380c -6.22  -3.79    +92.5351
iter: 140 02:57:21  -892.423627c -6.27  -3.76    +92.5190
iter: 141 03:00:30  -892.430626c -5.57  -3.75    +92.5154
iter: 142 03:03:41  -892.423906c -5.92  -3.32    +92.5158
iter: 143 03:06:52  -892.423769c -6.16  -3.80    +92.5239
iter: 144 03:10:02  -892.424656c -6.32  -3.75    +92.5246
iter: 145 03:13:13  -892.424358c -6.18  -3.79    +92.5260
iter: 146 03:16:24  -892.424148c -6.53  -3.82    +92.5241
iter: 147 03:19:32  -892.426378c -6.18  -3.90    +92.5197
iter: 148 03:22:43  -892.426270c -5.78  -3.64    +92.5197
iter: 149 03:25:54  -892.425437c -6.04  -3.41    +92.5131
iter: 150 03:29:05  -892.423685c -5.78  -3.69    +92.5063
iter: 151 03:32:15  -892.424550c -6.02  -3.67    +92.5046
iter: 152 03:35:26  -892.425008c -6.11  -3.75    +92.5041
iter: 153 03:38:34  -892.424305c -6.39  -3.63    +92.5019
iter: 154 03:41:45  -892.425154c -6.34  -4.15c   +92.4997
iter: 155 03:44:56  -892.424411c -6.66  -4.01c   +92.5029
iter: 156 03:48:07  -892.424459c -7.53c -3.93    +92.5042
iter: 157 03:51:18  -892.424437c -8.05c -4.15c   +92.5031

Converged after 157 iterations.

Dipole moment: (-94.651866, 30.553189, -0.168166) |e|*Ang

Total magnetic moment: (0.000000, 0.000000, 92.503143)
Local magnetic moments:
   0 Cr ( 0.000000,  0.000000,  2.622024)
   1 Cr ( 0.000000,  0.000000, -2.562085)
   2 Al ( 0.000000,  0.000000, -0.020642)
   3 Fe ( 0.000000,  0.000000,  2.942006)
   4 Cr ( 0.000000,  0.000000, -2.693005)
   5 Co ( 0.000000,  0.000000,  1.153199)
   6 Co ( 0.000000,  0.000000,  1.303667)
   7 Ni ( 0.000000,  0.000000,  0.322743)
   8 Fe ( 0.000000,  0.000000,  2.315863)
   9 Ni ( 0.000000,  0.000000,  0.131029)
  10 Ni ( 0.000000,  0.000000,  0.048700)
  11 Ni ( 0.000000,  0.000000,  0.320853)
  12 Al ( 0.000000,  0.000000, -0.040480)
  13 Cr ( 0.000000,  0.000000, -3.155657)
  14 Cr ( 0.000000,  0.000000,  3.220671)
  15 Fe ( 0.000000,  0.000000,  2.569164)
  16 Fe ( 0.000000,  0.000000,  2.907727)
  17 Fe ( 0.000000,  0.000000,  2.826137)
  18 Co ( 0.000000,  0.000000,  1.540300)
  19 Fe ( 0.000000,  0.000000,  3.056868)
  20 Al ( 0.000000,  0.000000, -0.020904)
  21 Ni ( 0.000000,  0.000000,  0.404514)
  22 Co ( 0.000000,  0.000000,  1.297167)
  23 Co ( 0.000000,  0.000000,  1.581377)
  24 Al ( 0.000000,  0.000000, -0.003430)
  25 Al ( 0.000000,  0.000000, -0.013196)
  26 Fe ( 0.000000,  0.000000,  2.228537)
  27 Al ( 0.000000,  0.000000, -0.017664)
  28 Ni ( 0.000000,  0.000000,  0.273094)
  29 Cr ( 0.000000,  0.000000,  1.768224)
  30 Al ( 0.000000,  0.000000, -0.042225)
  31 Co ( 0.000000,  0.000000,  1.555540)
  32 Cr ( 0.000000,  0.000000, -1.151533)
  33 Cr ( 0.000000,  0.000000,  0.217236)
  34 Al ( 0.000000,  0.000000, -0.028259)
  35 Ni ( 0.000000,  0.000000,  0.156261)
  36 Co ( 0.000000,  0.000000,  1.113181)
  37 Fe ( 0.000000,  0.000000,  2.482184)
  38 Fe ( 0.000000,  0.000000,  2.105402)
  39 Fe ( 0.000000,  0.000000,  2.393421)
  40 Cr ( 0.000000,  0.000000, -1.233287)
  41 Cr ( 0.000000,  0.000000, -1.972157)
  42 Fe ( 0.000000,  0.000000,  2.516249)
  43 Fe ( 0.000000,  0.000000,  2.474557)
  44 Al ( 0.000000,  0.000000, -0.039002)
  45 Cr ( 0.000000,  0.000000,  1.955186)
  46 Ni ( 0.000000,  0.000000,  0.441599)
  47 Ni ( 0.000000,  0.000000,  0.549862)
  48 Co ( 0.000000,  0.000000,  1.592865)
  49 Cr ( 0.000000,  0.000000, -2.291440)
  50 Co ( 0.000000,  0.000000,  1.307604)
  51 Fe ( 0.000000,  0.000000,  2.126914)
  52 Fe ( 0.000000,  0.000000,  2.270696)
  53 Ni ( 0.000000,  0.000000,  0.404561)
  54 Co ( 0.000000,  0.000000,  1.218397)
  55 Cr ( 0.000000,  0.000000, -1.870836)
  56 Fe ( 0.000000,  0.000000,  2.414575)
  57 Co ( 0.000000,  0.000000,  1.724376)
  58 Co ( 0.000000,  0.000000,  1.408321)
  59 Fe ( 0.000000,  0.000000,  2.309350)
  60 Fe ( 0.000000,  0.000000,  2.076702)
  61 Al ( 0.000000,  0.000000, -0.048864)
  62 Ni ( 0.000000,  0.000000,  0.241426)
  63 Cr ( 0.000000,  0.000000, -2.100002)
  64 Co ( 0.000000,  0.000000,  1.200394)
  65 Fe ( 0.000000,  0.000000,  1.570793)
  66 Al ( 0.000000,  0.000000, -0.032868)
  67 Ni ( 0.000000,  0.000000,  0.424000)
  68 Al ( 0.000000,  0.000000, -0.030553)
  69 Cr ( 0.000000,  0.000000,  1.935050)
  70 Cr ( 0.000000,  0.000000, -1.914149)
  71 Fe ( 0.000000,  0.000000,  2.452957)
  72 Al ( 0.000000,  0.000000, -0.041813)
  73 Fe ( 0.000000,  0.000000,  2.689349)
  74 Ni ( 0.000000,  0.000000,  0.236325)
  75 Cr ( 0.000000,  0.000000, -2.622305)
  76 Co ( 0.000000,  0.000000,  1.225647)
  77 Co ( 0.000000,  0.000000,  1.624240)
  78 Ni ( 0.000000,  0.000000,  0.739661)
  79 Co ( 0.000000,  0.000000,  1.563225)
  80 Al ( 0.000000,  0.000000, -0.013124)
  81 Co ( 0.000000,  0.000000,  1.142582)
  82 Fe ( 0.000000,  0.000000,  2.477483)
  83 Ni ( 0.000000,  0.000000,  0.087960)
  84 Cr ( 0.000000,  0.000000,  1.775480)
  85 Ni ( 0.000000,  0.000000,  0.213023)
  86 Fe ( 0.000000,  0.000000,  2.326453)
  87 Ni ( 0.000000,  0.000000,  0.409297)
  88 Co ( 0.000000,  0.000000,  1.112569)
  89 Ni ( 0.000000,  0.000000,  0.213676)
  90 Al ( 0.000000,  0.000000, -0.034111)
  91 Co ( 0.000000,  0.000000,  1.450463)
  92 Ni ( 0.000000,  0.000000,  0.299801)
  93 Cr ( 0.000000,  0.000000,  0.743405)
  94 Ni ( 0.000000,  0.000000,  0.181985)
  95 Ni ( 0.000000,  0.000000,  0.572639)
  96 Cr ( 0.000000,  0.000000,  2.501925)
  97 Cr ( 0.000000,  0.000000, -1.960371)
  98 Co ( 0.000000,  0.000000,  1.318328)
  99 Co ( 0.000000,  0.000000,  1.823076)
 100 Co ( 0.000000,  0.000000,  1.197235)
 101 Cr ( 0.000000,  0.000000, -2.567870)
 102 Fe ( 0.000000,  0.000000,  2.457456)
 103 Ni ( 0.000000,  0.000000,  0.641642)
 104 Fe ( 0.000000,  0.000000,  3.118958)
 105 Cr ( 0.000000,  0.000000,  2.429944)
 106 Fe ( 0.000000,  0.000000,  2.666138)
 107 Ni ( 0.000000,  0.000000,  0.596962)
 108 Ni ( 0.000000,  0.000000,  0.579291)
 109 Cr ( 0.000000,  0.000000, -2.807040)
 110 Al ( 0.000000,  0.000000, -0.053191)
 111 Al ( 0.000000,  0.000000, -0.024031)
 112 Cr ( 0.000000,  0.000000, -3.181948)
 113 Al ( 0.000000,  0.000000, -0.019750)
 114 Co ( 0.000000,  0.000000,  0.811711)
 115 Cr ( 0.000000,  0.000000, -2.588189)
 116 Co ( 0.000000,  0.000000,  1.514167)
 117 Fe ( 0.000000,  0.000000,  2.926923)
 118 Ni ( 0.000000,  0.000000,  0.529371)
 119 Co ( 0.000000,  0.000000,  0.978763)
 120 Ni ( 0.000000,  0.000000,  0.414296)
 121 Cr ( 0.000000,  0.000000,  2.162196)
 122 Co ( 0.000000,  0.000000,  0.753496)
 123 Fe ( 0.000000,  0.000000,  2.496794)
 124 Ni ( 0.000000,  0.000000,  0.354434)

Energy contributions relative to reference atoms: (reference = -3927717.499734)

Kinetic:       +296.835007
Potential:     -304.105194
External:        +0.000000
XC:            -918.895259
Entropy (-ST):   -5.298767
Local:          +36.390393
--------------------------
Free energy:   -895.073820
Extrapolated:  -892.424437

Dipole-layer corrected work functions: 4.143722, 4.364489 eV

Spin contamination: 45.299708 electrons
Showing all kpts
                      Up                     Down
 Kpt  Band  Eigenvalues  Occupancy  Eigenvalues  Occupancy
  0   547      0.21698    0.99909      1.33422    0.01518
  0   548      0.22896    0.99897      1.33956    0.01440
  0   549      0.24528    0.99879      1.35026    0.01296
  0   550      0.25148    0.99871      1.35622    0.01222

  1   547      0.23508    0.99891      1.32985    0.01584
  1   548      0.24601    0.99878      1.34091    0.01421
  1   549      0.25157    0.99871      1.34802    0.01325
  1   550      0.26350    0.99855      1.35296    0.01262


Fermi level: 0.91695

No gap

Forces in eV/Ang:
  0 Cr   -1.21923    0.39635   -0.35642
  1 Cr   -0.75498    0.37651    0.38829
  2 Al    0.78103    0.21285    0.40707
  3 Fe    0.17462    0.30206    1.17980
  4 Cr    0.10408   -0.03876    0.00881
  5 Co   -0.80822    1.66451    0.35086
  6 Co   -0.14786   -0.18872    1.84145
  7 Ni   -1.18469   -0.55139   -2.13255
  8 Fe    0.69216   -0.91491   -0.28285
  9 Ni    0.58473   -0.59544    0.59478
 10 Ni    0.22045    0.59071    1.09032
 11 Ni    1.59738    0.82791   -1.18634
 12 Al    0.38725    0.15800   -1.17758
 13 Cr    0.11882    0.13818   -0.23120
 14 Cr    0.39641    0.30801    0.10387
 15 Fe   -0.20795   -0.81474   -0.12450
 16 Fe   -0.09839   -0.28504    1.10159
 17 Fe    0.46105   -0.29287    0.43231
 18 Co   -0.51171    0.50303    0.89765
 19 Fe    0.06399    0.17881    1.09665
 20 Al    0.53873    0.29431   -0.54899
 21 Ni    0.78620   -0.25718    0.16598
 22 Co    1.05565   -0.98864    0.37764
 23 Co   -0.33959   -1.17260    0.69217
 24 Al   -0.91922   -0.93007    0.34991
 25 Al    0.05119   -1.17712    0.07721
 26 Fe   -0.24704   -0.32018   -0.59323
 27 Al   -0.96264   -1.97770   -0.59696
 28 Ni   -0.30025    0.03842    0.62097
 29 Cr    0.35165    0.43734   -1.42653
 30 Al    0.84105    0.42791   -0.77216
 31 Co   -0.02342    0.70048   -0.50974
 32 Cr   -1.31061    2.05614    0.31896
 33 Cr   -0.59677    0.12062   -0.15170
 34 Al    1.25061   -0.51293    0.41847
 35 Ni   -2.09254   -1.63151    1.07903
 36 Co    1.42624   -0.67498   -0.04465
 37 Fe   -0.32716    0.58293    2.41180
 38 Fe    0.85686    1.57790    0.08390
 39 Fe   -0.19819    0.69335    0.50420
 40 Cr    1.17165    0.93485   -1.17021
 41 Cr   -1.28549    0.47685   -0.24088
 42 Fe   -0.11447   -0.50576   -2.21118
 43 Fe   -0.44096    1.04520    0.19028
 44 Al   -1.02187    0.50350   -1.98609
 45 Cr    0.28909    0.23327   -0.18260
 46 Ni   -0.35819    0.42079    0.27064
 47 Ni    0.00898   -0.07431   -0.81378
 48 Co    0.06040   -0.16948    0.12276
 49 Cr   -0.06587   -0.82112   -1.06556
 50 Co   -1.29117   -0.90793    1.35092
 51 Fe   -0.12567   -1.12261    0.80494
 52 Fe    0.72090   -3.04936   -1.56532
 53 Ni   -0.19915   -0.58007    0.69086
 54 Co    1.09791    1.46341   -0.84423
 55 Cr   -0.06014    0.03475    0.89129
 56 Fe    0.56808    2.01749    1.02567
 57 Co    0.74702    1.21430   -1.30390
 58 Co   -1.07841   -0.39032    0.39250
 59 Fe   -0.43968   -0.57825   -1.14382
 60 Fe   -1.22919    0.32501    1.05677
 61 Al    1.74697   -0.27656   -0.96615
 62 Ni   -0.69789   -0.17316    0.46010
 63 Cr    0.44571   -1.39058    2.71057
 64 Co   -0.62695    0.48504   -1.41996
 65 Fe   -1.09587   -0.61513   -0.22340
 66 Al    1.86750   -0.43226    0.35477
 67 Ni    0.14146    0.57732    1.29385
 68 Al   -0.06138    0.91201   -1.24025
 69 Cr    1.03938    0.91915    1.00309
 70 Cr   -0.11659    1.34174    1.31927
 71 Fe   -0.49427    0.01309    0.78038
 72 Al    0.11455    0.36430   -0.28239
 73 Fe    1.39251    0.46707    0.04953
 74 Ni   -0.58961   -1.41297    0.90129
 75 Cr    0.88376    0.03781    0.75827
 76 Co   -0.83588    0.23954   -0.26032
 77 Co    0.90634   -0.45250    0.19898
 78 Ni   -0.70477   -0.83197    1.64911
 79 Co    1.41619   -0.35766   -1.31633
 80 Al   -0.48222   -0.11391    1.43662
 81 Co    1.30922    0.22971    0.11157
 82 Fe    0.85815   -0.92417   -1.13312
 83 Ni   -0.59479    0.00304   -0.55204
 84 Cr   -0.75783   -1.64548   -0.56789
 85 Ni   -0.32591   -0.40362   -0.34925
 86 Fe   -0.26004    1.08164    1.11348
 87 Ni    0.47119   -0.59318   -0.59910
 88 Co   -0.70820    0.22175    0.16900
 89 Ni    0.73698    0.60001    0.45677
 90 Al    0.02476    0.20627   -0.50776
 91 Co    0.62379   -0.41725    0.69160
 92 Ni    0.86712   -0.13779   -0.44258
 93 Cr   -1.38798   -0.63208   -0.77652
 94 Ni    1.38779    0.57889   -0.64370
 95 Ni   -0.71502    0.12799    0.14969
 96 Cr   -0.51173    0.64254   -0.56622
 97 Cr   -1.49712    0.47849   -0.06497
 98 Co    1.54245    0.15430    0.22873
 99 Co   -0.05658    0.33659    0.25508
100 Co    0.39235   -0.02796   -0.28418
101 Cr   -0.24041    0.18182   -0.35231
102 Fe   -0.17572    1.15843    0.12476
103 Ni   -0.00571    0.68068   -0.89391
104 Fe   -0.85492   -0.21021   -1.03374
105 Cr   -0.18450    0.16804   -0.87150
106 Fe    1.07150    0.18622   -0.85187
107 Ni   -0.22781    0.08907   -1.34231
108 Ni   -1.01631    0.18590    2.52685
109 Cr    0.36286   -0.49882   -0.18246
110 Al   -0.21070    0.12150   -1.24719
111 Al    0.00360   -0.33164    1.13518
112 Cr   -1.07445    0.03862    0.01876
113 Al    1.37733    0.08131    0.28347
114 Co    0.23430    0.15180    0.05663
115 Cr    0.80629    0.18001    1.01393
116 Co    0.11076   -0.55014   -0.77681
117 Fe    0.10366   -0.11625   -0.70266
118 Ni   -0.55746    0.22030   -0.44617
119 Co   -1.13285   -0.88849   -0.14684
120 Ni    0.08583   -0.03213    0.36213
121 Cr   -1.61513    0.35078   -0.19583
122 Co   -0.27923    0.08369    0.16952
123 Fe    0.24302   -0.74745   -0.12896
124 Ni    0.09110    0.59255   -0.96268

Timing:                              incl.     excl.
-----------------------------------------------------------
Forces:                             43.948    43.948   0.1% |
Hamiltonian:                         2.106     0.019   0.0% |
 Atomic:                             0.397     0.002   0.0% |
  XC Correction:                     0.395     0.395   0.0% |
 Calculate atomic Hamiltonians:      0.951     0.951   0.0% |
 Communicate:                        0.110     0.110   0.0% |
 Initialize Hamiltonian:             0.000     0.000   0.0% |
 Poisson:                            0.141     0.141   0.0% |
 XC 3D grid:                         0.487     0.487   0.0% |
LCAO initialization:               326.226     0.635   0.0% |
 LCAO eigensolver:                  20.502     0.023   0.0% |
  Calculate projections:             0.000     0.000   0.0% |
  DenseAtomicCorrection:             0.000     0.000   0.0% |
  Distribute overlap matrix:         8.461     8.461   0.0% |
  Orbital Layouts:                  11.663    11.663   0.0% |
  Potential matrix:                  0.003     0.003   0.0% |
  Sum over cells:                    0.351     0.351   0.0% |
 LCAO to grid:                     302.460   302.460   1.0% |
 Set positions (LCAO WFS):           2.629     2.274   0.0% |
  Basic WFS set positions:           0.004     0.004   0.0% |
  Basis functions set positions:     0.001     0.001   0.0% |
  P tci:                             0.000     0.000   0.0% |
  ST tci:                            0.133     0.133   0.0% |
  mktci:                             0.217     0.217   0.0% |
PWDescriptor:                        0.142     0.142   0.0% |
SCF-cycle:                       29971.058     1.437   0.0% |
 Davidson:                       29153.293  7806.043  25.7% |---------|
  Apply H:                         565.951   555.094   1.8% ||
   HMM T:                           10.856    10.856   0.0% |
  Subspace diag:                  2702.143     0.101   0.0% |
   calc_h_matrix:                 1203.001   676.799   2.2% ||
    Apply H:                       526.202   514.808   1.7% ||
     HMM T:                         11.394    11.394   0.0% |
   diagonalize:                    244.849   244.849   0.8% |
   rotate_psi:                    1254.192  1254.192   4.1% |-|
  calc. matrices:                 6276.645  5263.946  17.3% |------|
   Apply H:                       1012.699   989.533   3.3% ||
    HMM T:                          23.166    23.166   0.1% |
  diagonalize:                    9122.994  9122.994  30.1% |-----------|
  rotate_psi:                     2679.517  2679.517   8.8% |---|
 Density:                          468.891     0.008   0.0% |
  Atomic density matrices:           5.065     5.065   0.0% |
  Mix:                             204.555   204.555   0.7% |
  Multipole moments:                 0.141     0.141   0.0% |
  Pseudo density:                  259.122   259.113   0.9% |
   Symmetrize density:               0.010     0.010   0.0% |
 Hamiltonian:                      327.875     2.816   0.0% |
  Atomic:                           65.386     0.306   0.0% |
   XC Correction:                   65.080    65.080   0.2% |
  Calculate atomic Hamiltonians:   157.359   157.359   0.5% |
  Communicate:                      14.862    14.862   0.0% |
  Poisson:                           8.327     8.327   0.0% |
  XC 3D grid:                       79.126    79.126   0.3% |
 Orthonormalize:                    19.561     0.001   0.0% |
  calc_s_matrix:                     2.418     2.418   0.0% |
  inverse-cholesky:                  0.883     0.883   0.0% |
  projections:                      12.175    12.175   0.0% |
  rotate_psi_s:                      4.084     4.084   0.0% |
Set symmetry:                        0.001     0.001   0.0% |
Other:                               8.254     8.254   0.0% |
-----------------------------------------------------------
Total:                                     30351.735 100.0%

Date: Tue Apr 18 03:52:06 2023
