
  ___ ___ ___ _ _ _  
 |   |   |_  | | | | 
 | | | | | . | | | | 
 |__ |  _|___|_____|  22.8.0
 |___|_|             

User:   c.zeng@d0054
Date:   Wed Apr 19 10:19:54 2023
Arch:   x86_64
Pid:    160005
CWD:    /home/c.zeng/projects/hea-corrosion/hea-mlp/data-curation/surface-mcmc/dft-jobs/189
Python: 3.8.1
gpaw:   /home/c.zeng/usr/installs/gpaw/source/gpaw-22.8.0/gpaw
_gpaw:  /home/c.zeng/usr/installs/gpaw/source/gpaw-22.8.0/
        _gpaw.cpython-38-x86_64-linux-gnu.so
ase:    /home/c.zeng/.local/lib/python3.8/site-packages/ase-3.22.1-py3.8.egg/ase (version 3.22.1)
numpy:  /home/c.zeng/.local/lib/python3.8/site-packages/numpy (version 1.24.2)
scipy:  /home/c.zeng/.local/lib/python3.8/site-packages/scipy (version 1.10.1)
libxc:  4.2.3
units:  Angstrom and eV
cores: 30
OpenMP: False
OMP_NUM_THREADS: 1

Input parameters:
  convergence: {energy: 0.0001}
  kpts: [2 2 1]
  maxiter: 666
  mode: {ecut: 350.0,
         name: pw}
  occupations: {fixmagmom: False,
                name: fermi-dirac,
                width: 0.1}
  poissonsolver: {dipolelayer: xy}
  spinpol: True
  symmetry: {point_group: False}
  xc: PBE

System changes: positions, numbers, cell, pbc, initial_charges, initial_magmoms 

Initialize ...

species:
  Ni:
    name: Nickel
    id: 0d9f38a9d6e76a2886f07bb4381f212b
    Z: 28.0
    valence: 16
    core: 12
    charge: 0.0
    file: /home/c.zeng/usr/data/gpaw-setups-0.9.20000/Ni.PBE.gz
    compensation charges: {type: gauss,
                           rc: 0.36,
                           lmax: 2}
    cutoffs: {filter: 2.14,
              core: 1.98}
    valence states:
      #              energy  rcut
      - 4s(2.00)    -5.642   1.164
      - 3p(6.00)   -71.394   1.207
      - 4p(0.00)    -1.226   1.207
      - 3d(8.00)    -8.875   1.138
      -  s          21.570   1.164
      -  d          18.337   1.138
  
    # Using partial waves for Ni as LCAO basis

  Cr:
    name: Chromium
    id: 33f258bda2ca9f93018e70263a35547b
    Z: 24.0
    valence: 6
    core: 18
    charge: 0.0
    file: /home/c.zeng/usr/data/gpaw-setups-0.9.20000/Cr.PBE.gz
    compensation charges: {type: gauss,
                           rc: 0.35,
                           lmax: 2}
    cutoffs: {filter: 2.14,
              core: 3.04}
    valence states:
      #              energy  rcut
      - 4s(1.00)    -4.007   1.164
      - 4p(0.00)    -0.989   1.217
      - 3d(5.00)    -2.913   1.111
      -  s          23.205   1.164
      -  p          26.223   1.217
      -  d          24.299   1.111
  
    # Using partial waves for Cr as LCAO basis

  Fe:
    name: Iron
    id: 37abbd8d6c3c35915a9b583b742da910
    Z: 26.0
    valence: 8
    core: 18
    charge: 0.0
    file: /home/c.zeng/usr/data/gpaw-setups-0.9.20000/Fe.PBE.gz
    compensation charges: {type: gauss,
                           rc: 0.33,
                           lmax: 2}
    cutoffs: {filter: 2.06,
              core: 2.67}
    valence states:
      #              energy  rcut
      - 4s(2.00)    -5.291   1.164
      - 4p(0.00)    -1.326   1.058
      - 3d(6.00)    -7.505   1.058
      -  s          21.920   1.164
      -  p          25.885   1.058
      -  d          19.706   1.058
  
    # Using partial waves for Fe as LCAO basis

  Al:
    name: Aluminium
    id: 0292cae29f5d6237e50f6abdd43a7bdd
    Z: 13.0
    valence: 3
    core: 10
    charge: 0.0
    file: /home/c.zeng/usr/data/gpaw-setups-0.9.20000/Al.PBE.gz
    compensation charges: {type: gauss,
                           rc: 0.34,
                           lmax: 2}
    cutoffs: {filter: 1.91,
              core: 2.36}
    valence states:
      #              energy  rcut
      - 3s(2.00)    -7.753   1.085
      - 3p(1.00)    -2.712   1.085
      -  s          19.459   1.085
      -  p          24.499   1.085
      -  d           0.000   1.085
  
    # Using partial waves for Al as LCAO basis

  Co:
    name: Cobalt
    id: 339d20d5b0b93d2de9531a1bee871d91
    Z: 27.0
    valence: 9
    core: 18
    charge: 0.0
    file: /home/c.zeng/usr/data/gpaw-setups-0.9.20000/Co.PBE.gz
    compensation charges: {type: gauss,
                           rc: 0.32,
                           lmax: 2}
    cutoffs: {filter: 1.87,
              core: 2.55}
    valence states:
      #              energy  rcut
      - 4s(2.00)    -5.469   1.005
      - 4p(0.00)    -1.277   1.058
      - 3d(7.00)    -8.205   1.005
      -  s          21.742   1.005
      -  p          25.934   1.058
      -  d          19.007   1.005
  
    # Using partial waves for Co as LCAO basis

Reference energy: -3927717.499734  # eV

Spin-polarized calculation.
Magnetic moment: 149.100000

Convergence criteria:
 Maximum [total energy] change in last 3 cyles: 0.0001 eV / electron
 Maximum integral of absolute [dens]ity change: 0.0001 electrons / valence electron
 Maximum integral of absolute [eigenst]ate change: 4e-08 eV^2 / valence electron
 Maximum number of scf [iter]ations: 666
 (Square brackets indicate name in SCF output, whereas a 'c' in
 the SCF output indicates the quantity has converged.)

Symmetries present (total): 1

  ( 1  0  0)
  ( 0  1  0)
  ( 0  0  1)

4 k-points: 2 x 2 x 1 Monkhorst-Pack grid
2 k-points in the irreducible part of the Brillouin zone
       k-points in crystal coordinates                weights
   0:     0.25000000   -0.25000000    0.00000000          2/4
   1:     0.25000000    0.25000000    0.00000000          2/4

Wave functions: Plane wave expansion
  Cutoff energy: 350.000 eV
  Number of coefficients (min, max): 60143, 60161
  Pulay-stress correction: 0.000000 eV/Ang^3 (de/decut=0.000000)
  Using FFTW library
  ScaLapack parameters: grid=1x1, blocksize=None
  Wavefunction extrapolation:
    Improved wavefunction reuse through dual PAW basis 

Occupation numbers: Fermi-Dirac:
  width: 0.1000  # eV
 

Eigensolver
   Davidson(niter=2) 

Densities:
  Coarse grid: 56*56*128 grid
  Fine grid: 112*112*256 grid
  Total Charge: 0.000000 

Density mixing:
  Method: difference
  Backend: pulay
  Linear mixing parameter: 0.05
  old densities: 5
  Damping of long wavelength oscillations: 50 

Hamiltonian:
  XC and Coulomb potentials evaluated on a 112*112*256 grid
  Using the PBE Exchange-Correlation functional
  External potential:
    NoExternalPotential
 

XC parameters: PBE with 2 nearest neighbor stencil

Memory estimate:
  Process memory now: 379.45 MiB
  Calculator: 2209.57 MiB
    Density: 18.91 MiB
      Arrays: 7.39 MiB
      Localized functions: 8.57 MiB
      Mixer: 2.95 MiB
    Hamiltonian: 5.75 MiB
      Arrays: 5.49 MiB
      XC: 0.00 MiB
      Poisson: 0.00 MiB
      vbar: 0.26 MiB
    Wavefunctions: 2184.92 MiB
      Arrays psit_nG: 1382.48 MiB
      Eigensolver: 782.37 MiB
      Projections: 3.31 MiB
      Projectors: 1.16 MiB
      PW-descriptor: 15.59 MiB

Total number of cores used: 30
Parallelization over k-points: 2
Domain decomposition: 1 x 3 x 5

Number of atoms: 125
Number of atomic orbitals: 1116
Number of bands in calculation: 753
Number of valence electrons: 1098
Bands to converge: occupied

... initialized

Initializing position-dependent things.

Density initialized from atomic densities
Creating initial wave functions:
  753 bands from LCAO basis set

                                                               
                                                               
                                                               
                                                               
                          Ni          Ni     Ni    Co          
                            Fe    Co    Cr    Co    Ni         
                                                               
                       Al    CFe   FNi   CCr   NCr   Cr        
                   Fe   CFe    Al    Co    Ni    Cr            
        Ni                       Cr                            
               Ni   FAl  CFCr  CCo   NNi    Cr    Ni           
          Ni    Fe   FAl   NCo   CCr   FFe   Cr                
           Ni    Co    Fe Fe  NiCo  Co       Al   Fe           
                Al    Co    ACo   FAl   CFe   Co    Cr         
            Ni   AFe   ANi    Al    Co    Fe                   
        Fe    Co    Fe    Co Ni Co Cr    Ni    Ni    Co        
             Co    Al   CFe    Cr    Fe    Fe    Ni            
         Cr    Cr   CAl   AFe   CNi   Ni     Ni                
                Fe          Ni                                 
               Cr     Cr          Co    Co                     
           Cr    Cr    Fe    Al     Ni                         
                                                               
                                                               
                                                               
                                                               
                                                               

Positions:
   0 Ni    12.638410    1.500640   10.473714    ( 0.0000,  0.0000,  0.0000)
   1 Cr     2.522937    1.464200   10.500925    ( 0.0000,  0.0000,  0.0000)
   2 Cr     5.053910    1.499679   10.110352    ( 0.0000,  0.0000,  0.0000)
   3 Fe     7.557679    1.474012   10.651858    ( 0.0000,  0.0000,  2.0000)
   4 Al    10.063098    1.480808   10.510582    ( 0.0000,  0.0000,  0.0000)
   5 Co    13.876684    3.701125   10.575129    ( 0.0000,  0.0000,  2.1000)
   6 Cr     3.765065    3.676845   10.563946    ( 0.0000,  0.0000,  2.1000)
   7 Cr     6.296333    3.639618   10.618367    ( 0.0000,  0.0000,  1.5000)
   8 Ni     8.839996    3.605986   10.672787    ( 0.0000,  0.0000,  2.0000)
   9 Co    11.352953    3.684964   10.549299    ( 0.0000,  0.0000,  1.5000)
  10 Ni    15.161276    5.824565   10.498577    ( 0.0000,  0.0000,  1.5000)
  11 Co     5.025278    5.836147   10.574572    ( 0.0000,  0.0000,  1.5000)
  12 Al     7.581095    5.809082   10.450437    ( 0.0000,  0.0000,  0.0000)
  13 Cr    10.115365    5.826084   10.611674    ( 0.0000,  0.0000,  0.0000)
  14 Ni    12.590175    5.838835   10.516863    ( 0.0000,  0.0000,  0.0000)
  15 Ni    16.389239    7.986063   10.611380    ( 0.0000,  0.0000,  2.0000)
  16 Co     6.336726    8.007129   10.633278    ( 0.0000,  0.0000,  2.0000)
  17 Cr     8.860477    8.041112   10.593798    ( 0.0000,  0.0000,  2.0000)
  18 Cr    11.352548    8.028917   10.631722    ( 0.0000,  0.0000,  2.1000)
  19 Fe    13.851584    7.983364   10.505680    ( 0.0000,  0.0000,  2.0000)
  20 Co    17.745314   10.116747   10.074659    ( 0.0000,  0.0000,  0.0000)
  21 Ni     7.636083   10.176440   10.530337    ( 0.0000,  0.0000,  1.5000)
  22 Cr    10.089221   10.193890   10.552029    ( 0.0000,  0.0000,  2.1000)
  23 Ni    12.605039   10.182297   10.523703    ( 0.0000,  0.0000,  2.1000)
  24 Ni    15.064141   10.171206   10.358709    ( 0.0000,  0.0000,  0.0000)
  25 Fe     6.302566   10.804692   12.567941    ( 0.0000,  0.0000,  0.0000)
  26 Co     8.851494   10.898072   12.591335    ( 0.0000,  0.0000,  2.0000)
  27 Fe     5.076351    0.044825   12.536856    ( 0.0000,  0.0000,  0.0000)
  28 Al    13.909654   10.893450   12.608008    ( 0.0000,  0.0000,  1.5000)
  29 Fe    16.352727   10.867270   12.510966    ( 0.0000,  0.0000,  0.0000)
  30 Cr     1.347779    2.234477   12.606775    ( 0.0000,  0.0000,  0.0000)
  31 Cr     3.839937    2.209280   12.530604    ( 0.0000,  0.0000,  2.1000)
  32 Al     6.320342    2.230959   12.618927    ( 0.0000,  0.0000,  0.0000)
  33 Fe     8.782195    2.170075   12.671851    ( 0.0000,  0.0000,  0.0000)
  34 Ni    11.261675    2.259871   12.615258    ( 0.0000,  0.0000,  0.0000)
  35 Co     2.575110    4.392020   12.601990    ( 0.0000,  0.0000,  1.5000)
  36 Al     5.033696    4.384579   12.606305    ( 0.0000,  0.0000,  2.1000)
  37 Fe     7.564379    4.363294   12.629230    ( 0.0000,  0.0000,  2.0000)
  38 Cr    10.052143    4.418954   12.638359    ( 0.0000,  0.0000,  2.0000)
  39 Fe    12.588573    4.408563   12.597529    ( 0.0000,  0.0000,  2.0000)
  40 Al     3.825223    6.539248   12.601110    ( 0.0000,  0.0000,  0.0000)
  41 Al     6.285427    6.556719   12.584144    ( 0.0000,  0.0000,  0.0000)
  42 Cr     8.820218    6.557845   12.561307    ( 0.0000,  0.0000,  2.0000)
  43 Al    11.348710    6.570170   12.593977    ( 0.0000,  0.0000,  2.0000)
  44 Fe    13.909132    6.548655   12.525790    ( 0.0000,  0.0000,  0.0000)
  45 Cr    17.626555    8.699096   12.604162    ( 0.0000,  0.0000,  0.0000)
  46 Al     7.618200    8.725899   12.612235    ( 0.0000,  0.0000,  1.5000)
  47 Fe    10.087472    8.739109   12.626412    ( 0.0000,  0.0000,  1.5000)
  48 Cr    12.639844    8.757204   12.602842    ( 0.0000,  0.0000,  2.1000)
  49 Co    15.116728    8.758580   12.586668    ( 0.0000,  0.0000,  0.0000)
  50 Fe     1.234973    0.732950   14.688585    ( 0.0000,  0.0000,  2.1000)
  51 Co     3.756660    0.776875   14.661198    ( 0.0000,  0.0000,  2.0000)
  52 Fe     6.353364    0.739044   14.685297    ( 0.0000,  0.0000,  2.0000)
  53 Co     8.843197    0.707504   14.667421    ( 0.0000,  0.0000,  1.5000)
  54 Co    11.308149    0.724265   14.667803    ( 0.0000,  0.0000,  2.1000)
  55 Ni     2.562577    2.918904   14.681980    ( 0.0000,  0.0000,  0.0000)
  56 Fe     5.047514    2.876224   14.673262    ( 0.0000,  0.0000,  2.0000)
  57 Ni     7.587094    2.887588   14.717057    ( 0.0000,  0.0000,  2.1000)
  58 Al    10.059655    2.923122   14.721842    ( 0.0000,  0.0000,  2.1000)
  59 Co    12.581173    2.902022   14.699768    ( 0.0000,  0.0000,  2.0000)
  60 Al     3.748435    5.096399   14.714592    ( 0.0000,  0.0000,  2.0000)
  61 Co     6.262723    5.033089   14.723016    ( 0.0000,  0.0000,  0.0000)
  62 Co     8.857244    5.082347   14.703790    ( 0.0000,  0.0000,  1.5000)
  63 Al    11.325799    5.051271   14.695776    ( 0.0000,  0.0000,  0.0000)
  64 Fe    13.876183    5.054495   14.660318    ( 0.0000,  0.0000,  2.1000)
  65 Fe     5.052567    7.279870   14.704259    ( 0.0000,  0.0000,  2.0000)
  66 Ni     7.623886    7.324091   14.709690    ( 0.0000,  0.0000,  0.0000)
  67 Co    10.091768    7.250248   14.682744    ( 0.0000,  0.0000,  1.5000)
  68 Fe    12.609710    7.231017   14.738808    ( 0.0000,  0.0000,  0.0000)
  69 Cr    15.165859    7.289737   14.678898    ( 0.0000,  0.0000,  0.0000)
  70 Cr     6.290924    9.483294   14.711891    ( 0.0000,  0.0000,  0.0000)
  71 Cr     8.799610    9.526006   14.705668    ( 0.0000,  0.0000,  2.0000)
  72 Ni    11.328536    9.524116   14.771390    ( 0.0000,  0.0000,  0.0000)
  73 Fe    13.905777    9.475951   14.693692    ( 0.0000,  0.0000,  2.0000)
  74 Ni    16.402593    9.490986   14.643939    ( 0.0000,  0.0000,  1.5000)
  75 Co    12.559989    1.424700   16.738106    ( 0.0000,  0.0000,  0.0000)
  76 Ni     2.519368    1.415325   16.732030    ( 0.0000,  0.0000,  2.1000)
  77 Co     5.058418    1.426623   16.724633    ( 0.0000,  0.0000,  2.1000)
  78 Fe     7.588593    1.431310   16.719262    ( 0.0000,  0.0000,  1.5000)
  79 Ni    10.080282    1.446990   16.712775    ( 0.0000,  0.0000,  2.1000)
  80 Fe    13.906517    3.636537   16.770219    ( 0.0000,  0.0000,  0.0000)
  81 Fe     3.830827    3.632472   16.750288    ( 0.0000,  0.0000,  2.1000)
  82 Al     6.307138    3.580352   16.791881    ( 0.0000,  0.0000,  2.0000)
  83 Co     8.837036    3.649693   16.760356    ( 0.0000,  0.0000,  1.5000)
  84 Cr    11.316239    3.632713   16.757567    ( 0.0000,  0.0000,  0.0000)
  85 Cr    15.124416    5.819298   16.794875    ( 0.0000,  0.0000,  1.5000)
  86 Fe     5.069314    5.825133   16.817741    ( 0.0000,  0.0000,  2.0000)
  87 Fe     7.591000    5.828182   16.790531    ( 0.0000,  0.0000,  1.5000)
  88 Co    10.100423    5.832104   16.795022    ( 0.0000,  0.0000,  2.1000)
  89 Ni    12.591819    5.816097   16.796049    ( 0.0000,  0.0000,  1.5000)
  90 Cr    16.393148    8.022678   16.766491    ( 0.0000,  0.0000,  0.0000)
  91 Co     6.343718    8.036435   16.784337    ( 0.0000,  0.0000,  2.1000)
  92 Al     8.869407    8.031059   16.785541    ( 0.0000,  0.0000,  1.5000)
  93 Al    11.350811    8.006966   16.850353    ( 0.0000,  0.0000,  0.0000)
  94 Cr    13.848456    8.043231   16.790120    ( 0.0000,  0.0000,  1.5000)
  95 Cr    17.664975   10.214378   16.704673    ( 0.0000,  0.0000,  1.5000)
  96 Co     7.577805   10.200216   16.752871    ( 0.0000,  0.0000,  0.0000)
  97 Fe    10.073950   10.240525   16.814835    ( 0.0000,  0.0000,  0.0000)
  98 Co    12.634825   10.205702   16.792879    ( 0.0000,  0.0000,  2.1000)
  99 Ni    15.128204   10.222671   16.717207    ( 0.0000,  0.0000,  2.1000)
 100 Ni     6.295996   10.895646   18.725164    ( 0.0000,  0.0000,  2.1000)
 101 Ni     2.531103    0.010731   18.808028    ( 0.0000,  0.0000,  0.0000)
 102 Ni    11.354102   10.922176   18.789712    ( 0.0000,  0.0000,  2.0000)
 103 Ni    13.893055   10.918669   18.754371    ( 0.0000,  0.0000,  1.5000)
 104 Co    16.407321   10.902924   18.697866    ( 0.0000,  0.0000,  2.0000)
 105 Ni     1.242615    2.122916   18.813664    ( 0.0000,  0.0000,  0.0000)
 106 Ni     3.777583    2.163727   18.725751    ( 0.0000,  0.0000,  2.0000)
 107 Al     6.316494    2.112186   18.751024    ( 0.0000,  0.0000,  1.5000)
 108 Cr     8.821019    2.135678   18.724841    ( 0.0000,  0.0000,  1.5000)
 109 Cr    11.346910    2.127920   18.772482    ( 0.0000,  0.0000,  0.0000)
 110 Ni    15.041821    4.389824   19.217240    ( 0.0000,  0.0000,  0.0000)
 111 Fe     5.122707    4.340730   18.947661    ( 0.0000,  0.0000,  0.0000)
 112 Fe     7.593428    4.391189   18.757570    ( 0.0000,  0.0000,  0.0000)
 113 Al    10.074524    4.387147   18.958463    ( 0.0000,  0.0000,  0.0000)
 114 Co    12.568500    4.377597   18.792178    ( 0.0000,  0.0000,  2.1000)
 115 Cr    16.401190    6.592941   18.854788    ( 0.0000,  0.0000,  0.0000)
 116 Al     6.333626    6.597181   18.774830    ( 0.0000,  0.0000,  2.1000)
 117 Fe     8.832315    6.612293   18.776708    ( 0.0000,  0.0000,  2.0000)
 118 Ni    11.357713    6.592056   18.807559    ( 0.0000,  0.0000,  1.5000)
 119 Cr    13.843649    6.600634   18.766083    ( 0.0000,  0.0000,  2.1000)
 120 Ni    17.672908    8.762055   18.787393    ( 0.0000,  0.0000,  1.5000)
 121 Fe     7.589466    8.752057   18.793733    ( 0.0000,  0.0000,  0.0000)
 122 Co    10.105305    8.758351   18.804653    ( 0.0000,  0.0000,  2.1000)
 123 Cr    12.605169    8.778467   18.827842    ( 0.0000,  0.0000,  2.0000)
 124 Co    15.105383    8.773889   18.800925    ( 0.0000,  0.0000,  1.5000)

Unit cell:
           periodic     x           y           z      points  spacing
  1. axis:    yes   12.614700    0.000000    0.000000    56     0.1951
  2. axis:    yes    6.308550   10.926700    0.000000    56     0.1951
  3. axis:    no     0.000000    0.000000   29.353100   128     0.2293

  Lengths:  12.614700  12.617075  29.353100
  Angles:   90.000000  90.000000  59.999934

Effective grid spacing dv^(1/3) = 0.2160

     iter     time        total  log10-change:  magmom
                         energy  eigst   dens
iter:   1 10:26:15 -1071.158200                  +148.4742
iter:   2 10:28:21 -1790.631869  +0.37  -1.14    +108.6353
iter:   3 10:30:26 -1797.598614  +0.89  -0.82    +78.4537
iter:   4 10:32:31 -1116.172345  -0.19  -0.81    +53.7231
iter:   5 10:34:37  -985.472667  -1.19  -1.15    +40.1261
iter:   6 10:36:43  -968.311557  -1.68  -1.29    +31.8435
iter:   7 10:38:49  -953.868334  -1.83  -1.31    +30.2692
iter:   8 10:40:55 -1163.353600  -0.57  -1.33    +31.8571
iter:   9 10:43:01 -1111.675847  -0.74  -1.02    +30.1534
iter:  10 10:45:07  -938.302614  -1.40  -1.05    +26.9735
iter:  11 10:47:12  -920.476009  -1.86  -1.40    +28.9243
iter:  12 10:49:18  -930.507637  -1.47  -1.48    +30.3552
iter:  13 10:51:24  -931.040370  -1.66  -1.46    +30.7837
iter:  14 10:53:30  -942.377865  -1.57  -1.45    +32.1975
iter:  15 10:55:36  -963.816545  -1.59  -1.43    +34.0963
iter:  16 10:57:42  -927.856858  -1.56  -1.34    +33.9403
iter:  17 10:59:48  -923.975204  -1.75  -1.56    +33.9898
iter:  18 11:01:54  -921.402061  -2.10  -1.62    +35.9384
iter:  19 11:04:00  -915.978125  -2.08  -1.65    +37.2191
iter:  20 11:06:06  -916.776475  -2.44  -1.72    +38.4126
iter:  21 11:08:12  -915.801038  -2.58  -1.70    +40.7850
iter:  22 11:10:17  -914.443010  -2.79  -1.75    +43.4044
iter:  23 11:12:23  -916.085237  -2.86  -1.79    +45.2561
iter:  24 11:14:29  -917.092750  -2.59  -1.78    +47.5485
iter:  25 11:16:35  -918.439236  -2.41  -1.78    +49.8213
iter:  26 11:18:41  -919.382210  -2.19  -1.80    +51.7920
iter:  27 11:20:47  -927.077263  -2.29  -1.78    +53.0073
iter:  28 11:22:53  -918.523159  -2.26  -1.64    +54.2138
iter:  29 11:24:59  -917.409244  -2.64  -1.84    +56.4026
iter:  30 11:27:05  -916.532945  -2.97  -1.89    +58.8057
iter:  31 11:29:11  -917.078124  -3.17  -1.98    +61.1747
iter:  32 11:31:17  -917.264859  -3.22  -1.98    +62.1760
iter:  33 11:33:23  -918.030646  -2.93  -2.01    +64.2703
iter:  34 11:35:29  -920.811802  -2.58  -2.06    +65.1377
iter:  35 11:37:35  -920.546439  -2.44  -1.93    +66.5627
iter:  36 11:39:41  -925.375177  -2.45  -2.00    +66.5549
iter:  37 11:41:47  -919.509165  -2.62  -1.78    +67.3949
iter:  38 11:43:53  -919.392188  -2.84  -2.14    +68.2567
iter:  39 11:46:00  -918.596681  -3.22  -2.14    +69.0482
iter:  40 11:48:06  -918.719599  -3.59  -2.34    +70.2509
iter:  41 11:50:13  -919.019658  -3.22  -2.38    +71.8150
iter:  42 11:52:19  -919.420563  -3.44  -2.34    +72.5205
iter:  43 11:54:25  -919.279479  -3.53  -2.27    +72.6860
iter:  44 11:56:31  -919.196335  -3.66  -2.28    +73.3434
iter:  45 11:58:38  -919.342231  -3.96  -2.36    +73.6335
iter:  46 12:00:44  -919.609759  -3.42  -2.33    +73.7563
iter:  47 12:02:50  -919.437838  -3.38  -2.26    +74.2240
iter:  48 12:04:56  -919.752932  -3.45  -2.34    +74.2720
iter:  49 12:07:02  -920.438015  -3.15  -2.28    +74.6010
iter:  50 12:09:08  -919.835228  -3.24  -2.16    +74.7528
iter:  51 12:11:14  -919.581186  -3.58  -2.33    +74.7669
iter:  52 12:13:20  -919.635131  -3.74  -2.44    +74.6907
iter:  53 12:15:27  -919.881457  -3.66  -2.48    +74.7076
iter:  54 12:17:33  -919.687866  -3.79  -2.38    +74.8813
iter:  55 12:19:39  -919.800186  -4.00  -2.49    +74.8844
iter:  56 12:21:45  -920.977811  -3.24  -2.50    +74.7724
iter:  57 12:23:51  -919.871701  -3.41  -2.15    +74.7400
iter:  58 12:25:57  -919.879572  -3.74  -2.52    +74.7014
iter:  59 12:28:03  -920.001724  -3.56  -2.63    +74.6677
iter:  60 12:30:10  -920.472905  -3.34  -2.61    +74.4843
iter:  61 12:32:15  -919.998094  -3.59  -2.34    +74.3972
iter:  62 12:34:21  -920.053464  -3.95  -2.62    +74.4359
iter:  63 12:36:28  -920.081081c -3.74  -2.63    +74.3489
iter:  64 12:38:34  -919.964278  -4.40  -2.59    +74.2897
iter:  65 12:40:40  -919.999132  -4.41  -2.85    +74.1088
iter:  66 12:42:47  -920.062790c -3.95  -2.87    +73.8725
iter:  67 12:44:53  -920.137003  -3.74  -2.87    +73.5204
iter:  68 12:46:59  -920.688372  -3.73  -2.78    +73.5424
iter:  69 12:49:05  -920.199600  -3.85  -2.33    +73.4235
iter:  70 12:51:12  -920.195919  -4.22  -2.76    +73.3274
iter:  71 12:53:18  -920.181523c -4.22  -2.79    +73.2410
iter:  72 12:55:24  -920.196747c -3.78  -2.88    +73.1705
iter:  73 12:57:30  -920.270869c -3.54  -2.73    +73.1946
iter:  74 12:59:36  -923.278065  -3.03  -2.67    +73.2372
iter:  75 13:01:42  -920.151584  -3.33  -1.98    +73.3667
iter:  76 13:03:49  -920.167484  -4.11  -3.06    +73.4547
iter:  77 13:05:54  -920.196202c -4.40  -2.99    +73.5405
iter:  78 13:07:57  -920.214603c -4.92  -2.97    +73.5564
iter:  79 13:10:01  -920.210989c -5.10  -2.97    +73.5225
iter:  80 13:12:05  -920.467579  -4.09  -2.96    +73.5278
iter:  81 13:14:08  -920.407632  -4.00  -2.52    +73.5734
iter:  82 13:16:12  -920.234740  -3.54  -2.55    +73.6399
iter:  83 13:18:16  -920.206487  -3.93  -2.74    +73.5242
iter:  84 13:20:20  -920.202966c -4.45  -2.85    +73.4278
iter:  85 13:22:24  -920.330659  -3.99  -2.91    +73.3680
iter:  86 13:24:27  -920.178831  -4.45  -2.60    +73.3540
iter:  87 13:26:31  -920.189980  -4.66  -3.10    +73.2813
iter:  88 13:28:35  -920.196539c -4.48  -3.04    +73.3099
iter:  89 13:30:38  -920.178076c -4.87  -2.90    +73.3014
iter:  90 13:32:42  -920.207258c -4.37  -3.15    +73.2872
iter:  91 13:34:46  -920.175020c -4.82  -3.03    +73.3012
iter:  92 13:36:49  -920.226215c -4.58  -3.22    +73.3251
iter:  93 13:38:53  -920.178521c -4.73  -2.84    +73.3371
iter:  94 13:40:57  -920.270390c -4.41  -3.18    +73.3265
iter:  95 13:43:01  -920.199313c -4.35  -2.79    +73.3339
iter:  96 13:45:04  -920.180362c -4.81  -2.97    +73.3908
iter:  97 13:47:08  -920.183003c -4.76  -3.34    +73.3757
iter:  98 13:49:11  -920.186371c -4.95  -3.24    +73.3971
iter:  99 13:51:15  -920.182185c -5.14  -3.21    +73.4352
iter: 100 13:53:19  -920.182835c -5.33  -3.40    +73.4890
iter: 101 13:55:24  -920.189008c -5.12  -3.22    +73.4938
iter: 102 13:57:28  -920.181911c -5.14  -3.26    +73.5090
iter: 103 13:59:32  -920.179577c -5.46  -3.47    +73.5055
iter: 104 14:01:36  -920.179692c -5.90  -3.62    +73.5215
iter: 105 14:03:39  -920.178737c -5.92  -3.65    +73.5270
iter: 106 14:05:43  -920.187789c -5.63  -3.63    +73.5249
iter: 107 14:07:47  -920.182280c -5.43  -3.32    +73.5275
iter: 108 14:09:50  -920.178625c -5.88  -3.47    +73.5332
iter: 109 14:11:54  -920.180290c -6.11  -3.90    +73.5318
iter: 110 14:13:59  -920.179593c -6.37  -3.96    +73.5283
iter: 111 14:16:04  -920.180646c -6.26  -3.99    +73.5253
iter: 112 14:18:07  -920.179753c -6.41  -3.91    +73.5282
iter: 113 14:20:11  -920.180247c -6.55  -3.80    +73.5291
iter: 114 14:22:15  -920.180615c -6.70  -4.02c   +73.5303
iter: 115 14:24:18  -920.180587c -7.27  -4.07c   +73.5308
iter: 116 14:26:22  -920.180895c -6.79  -4.08c   +73.5339
iter: 117 14:28:26  -920.181397c -6.56  -4.12c   +73.5368
iter: 118 14:30:30  -920.181061c -6.72  -4.18c   +73.5396
iter: 119 14:32:33  -920.182285c -6.40  -4.04c   +73.5413
iter: 120 14:34:38  -920.181532c -6.68  -3.94    +73.5445
iter: 121 14:36:42  -920.181486c -7.03  -4.25c   +73.5441
iter: 122 14:38:45  -920.181535c -7.14  -4.40c   +73.5432
iter: 123 14:40:49  -920.181637c -7.38  -4.34c   +73.5433
iter: 124 14:42:53  -920.181981c -7.34  -4.28c   +73.5435
iter: 125 14:44:57  -920.181810c -7.38  -4.52c   +73.5443
iter: 126 14:47:00  -920.181989c -7.56c -4.58c   +73.5452

Converged after 126 iterations.

Dipole moment: (55.228812, 42.906804, -0.038924) |e|*Ang

Total magnetic moment: (0.000000, 0.000000, 73.545225)
Local magnetic moments:
   0 Ni ( 0.000000,  0.000000,  0.376823)
   1 Cr ( 0.000000,  0.000000,  2.071756)
   2 Cr ( 0.000000,  0.000000, -2.724387)
   3 Fe ( 0.000000,  0.000000,  2.242546)
   4 Al ( 0.000000,  0.000000, -0.049258)
   5 Co ( 0.000000,  0.000000,  1.277515)
   6 Cr ( 0.000000,  0.000000,  0.989455)
   7 Cr ( 0.000000,  0.000000,  1.909165)
   8 Ni ( 0.000000,  0.000000,  0.175648)
   9 Co ( 0.000000,  0.000000,  1.418656)
  10 Ni ( 0.000000,  0.000000,  0.369227)
  11 Co ( 0.000000,  0.000000,  0.696762)
  12 Al ( 0.000000,  0.000000, -0.017706)
  13 Cr ( 0.000000,  0.000000, -1.900732)
  14 Ni ( 0.000000,  0.000000,  0.361903)
  15 Ni ( 0.000000,  0.000000,  0.275918)
  16 Co ( 0.000000,  0.000000,  0.672714)
  17 Cr ( 0.000000,  0.000000,  1.314285)
  18 Cr ( 0.000000,  0.000000,  1.779073)
  19 Fe ( 0.000000,  0.000000,  2.593079)
  20 Co ( 0.000000,  0.000000,  1.841464)
  21 Ni ( 0.000000,  0.000000,  0.265425)
  22 Cr ( 0.000000,  0.000000, -2.115358)
  23 Ni ( 0.000000,  0.000000,  0.080978)
  24 Ni ( 0.000000,  0.000000,  0.466938)
  25 Fe ( 0.000000,  0.000000,  2.467296)
  26 Co ( 0.000000,  0.000000,  0.878541)
  27 Fe ( 0.000000,  0.000000,  2.072307)
  28 Al ( 0.000000,  0.000000, -0.057721)
  29 Fe ( 0.000000,  0.000000,  2.404266)
  30 Cr ( 0.000000,  0.000000, -1.899733)
  31 Cr ( 0.000000,  0.000000, -0.888043)
  32 Al ( 0.000000,  0.000000, -0.038586)
  33 Fe ( 0.000000,  0.000000,  2.172371)
  34 Ni ( 0.000000,  0.000000,  0.328885)
  35 Co ( 0.000000,  0.000000,  0.631654)
  36 Al ( 0.000000,  0.000000, -0.037308)
  37 Fe ( 0.000000,  0.000000,  1.586294)
  38 Cr ( 0.000000,  0.000000,  0.105332)
  39 Fe ( 0.000000,  0.000000,  2.105841)
  40 Al ( 0.000000,  0.000000, -0.014905)
  41 Al ( 0.000000,  0.000000, -0.018434)
  42 Cr ( 0.000000,  0.000000,  0.144451)
  43 Al ( 0.000000,  0.000000, -0.011870)
  44 Fe ( 0.000000,  0.000000,  2.259617)
  45 Cr ( 0.000000,  0.000000, -1.535655)
  46 Al ( 0.000000,  0.000000, -0.013397)
  47 Fe ( 0.000000,  0.000000,  1.604081)
  48 Cr ( 0.000000,  0.000000, -1.938103)
  49 Co ( 0.000000,  0.000000,  0.800676)
  50 Fe ( 0.000000,  0.000000,  2.330415)
  51 Co ( 0.000000,  0.000000,  1.265126)
  52 Fe ( 0.000000,  0.000000,  2.373810)
  53 Co ( 0.000000,  0.000000,  1.340180)
  54 Co ( 0.000000,  0.000000,  1.151739)
  55 Ni ( 0.000000,  0.000000,  0.265586)
  56 Fe ( 0.000000,  0.000000,  2.043580)
  57 Ni ( 0.000000,  0.000000,  0.399011)
  58 Al ( 0.000000,  0.000000, -0.024886)
  59 Co ( 0.000000,  0.000000,  0.897863)
  60 Al ( 0.000000,  0.000000, -0.040328)
  61 Co ( 0.000000,  0.000000,  1.188430)
  62 Co ( 0.000000,  0.000000,  1.088300)
  63 Al ( 0.000000,  0.000000, -0.034886)
  64 Fe ( 0.000000,  0.000000,  2.058652)
  65 Fe ( 0.000000,  0.000000,  1.538370)
  66 Ni ( 0.000000,  0.000000,  0.033715)
  67 Co ( 0.000000,  0.000000,  0.927799)
  68 Fe ( 0.000000,  0.000000,  2.089594)
  69 Cr ( 0.000000,  0.000000, -1.425359)
  70 Cr ( 0.000000,  0.000000, -0.735225)
  71 Cr ( 0.000000,  0.000000, -1.182055)
  72 Ni ( 0.000000,  0.000000,  0.276131)
  73 Fe ( 0.000000,  0.000000,  2.152798)
  74 Ni ( 0.000000,  0.000000,  0.112651)
  75 Co ( 0.000000,  0.000000,  0.884165)
  76 Ni ( 0.000000,  0.000000,  0.371707)
  77 Co ( 0.000000,  0.000000,  1.270653)
  78 Fe ( 0.000000,  0.000000,  2.162824)
  79 Ni ( 0.000000,  0.000000,  0.242724)
  80 Fe ( 0.000000,  0.000000, -2.467929)
  81 Fe ( 0.000000,  0.000000,  2.287768)
  82 Al ( 0.000000,  0.000000, -0.065221)
  83 Co ( 0.000000,  0.000000,  1.005028)
  84 Cr ( 0.000000,  0.000000, -1.657586)
  85 Cr ( 0.000000,  0.000000,  0.708038)
  86 Fe ( 0.000000,  0.000000,  1.882940)
  87 Fe ( 0.000000,  0.000000,  2.274653)
  88 Co ( 0.000000,  0.000000,  0.947551)
  89 Ni ( 0.000000,  0.000000,  0.032267)
  90 Cr ( 0.000000,  0.000000, -1.154479)
  91 Co ( 0.000000,  0.000000,  0.838145)
  92 Al ( 0.000000,  0.000000, -0.052928)
  93 Al ( 0.000000,  0.000000, -0.032526)
  94 Cr ( 0.000000,  0.000000, -1.239899)
  95 Cr ( 0.000000,  0.000000,  1.058561)
  96 Co ( 0.000000,  0.000000,  0.954006)
  97 Fe ( 0.000000,  0.000000,  2.445294)
  98 Co ( 0.000000,  0.000000,  1.080646)
  99 Ni ( 0.000000,  0.000000,  0.365381)
 100 Ni ( 0.000000,  0.000000,  0.326630)
 101 Ni ( 0.000000,  0.000000,  0.478085)
 102 Ni ( 0.000000,  0.000000,  0.363830)
 103 Ni ( 0.000000,  0.000000,  0.206316)
 104 Co ( 0.000000,  0.000000,  1.333852)
 105 Ni ( 0.000000,  0.000000,  0.029892)
 106 Ni ( 0.000000,  0.000000,  0.513788)
 107 Al ( 0.000000,  0.000000, -0.036137)
 108 Cr ( 0.000000,  0.000000, -2.445707)
 109 Cr ( 0.000000,  0.000000,  2.262355)
 110 Ni ( 0.000000,  0.000000, -0.057357)
 111 Fe ( 0.000000,  0.000000,  2.521958)
 112 Fe ( 0.000000,  0.000000,  2.098212)
 113 Al ( 0.000000,  0.000000, -0.019872)
 114 Co ( 0.000000,  0.000000, -1.161753)
 115 Cr ( 0.000000,  0.000000, -2.439927)
 116 Al ( 0.000000,  0.000000, -0.066532)
 117 Fe ( 0.000000,  0.000000,  2.380716)
 118 Ni ( 0.000000,  0.000000,  0.117444)
 119 Cr ( 0.000000,  0.000000,  1.527468)
 120 Ni ( 0.000000,  0.000000,  0.237962)
 121 Fe ( 0.000000,  0.000000,  2.664010)
 122 Co ( 0.000000,  0.000000,  1.106040)
 123 Cr ( 0.000000,  0.000000,  1.854032)
 124 Co ( 0.000000,  0.000000,  1.096786)

Energy contributions relative to reference atoms: (reference = -3927717.499734)

Kinetic:       +364.295658
Potential:     -353.786708
External:        +0.000000
XC:            -966.323327
Entropy (-ST):   -5.242751
Local:          +38.253764
--------------------------
Free energy:   -922.803365
Extrapolated:  -920.181989

Dipole-layer corrected work functions: 4.841879, 4.892978 eV

Spin contamination: 35.858858 electrons
Showing all kpts
                      Up                     Down
 Kpt  Band  Eigenvalues  Occupancy  Eigenvalues  Occupancy
  0   547     -0.07120    0.99502      0.82084    0.02600
  0   548     -0.06020    0.99444      0.84654    0.02022
  0   549     -0.05345    0.99406      0.85474    0.01866
  0   550     -0.03362    0.99276      0.86312    0.01719

  1   547     -0.05855    0.99435      0.83879    0.02182
  1   548     -0.04950    0.99382      0.84748    0.02004
  1   549     -0.03263    0.99269      0.85339    0.01891
  1   550     -0.02257    0.99192      0.86712    0.01652


Fermi level: 0.45849

No gap

Forces in eV/Ang:
  0 Ni   -0.16781   -0.30790    0.60619
  1 Cr   -0.22289    0.03367    0.11079
  2 Cr    0.45878   -0.03220    0.59053
  3 Fe    0.08401   -0.49147   -0.70235
  4 Al    0.67100   -0.18580   -0.63735
  5 Co   -0.03568    0.00563    0.37703
  6 Cr   -0.52005   -0.02577    0.05330
  7 Cr   -0.33181   -0.05382   -1.21322
  8 Ni   -0.13317    0.28243   -0.46704
  9 Co    0.42049    0.11254    0.54282
 10 Ni   -0.10998   -0.04067    0.33029
 11 Co    0.15647   -0.17742    0.18376
 12 Al   -0.46195   -0.11880   -1.13346
 13 Cr    0.05589   -0.47378   -0.96414
 14 Ni    0.17796   -0.19737    0.07719
 15 Ni    0.18737    0.40056   -0.33347
 16 Co   -0.36415    0.34093   -0.05746
 17 Cr   -0.00264   -0.33237   -0.51678
 18 Cr    0.28419    0.49526   -0.96954
 19 Fe    0.58715    0.20743    0.21829
 20 Co   -0.11796    0.05431    1.65529
 21 Ni   -0.88835    0.15970    0.05252
 22 Cr    0.24821   -0.11162    0.33165
 23 Ni    0.16363    0.15776   -0.09052
 24 Ni    0.62059    0.10942    0.72920
 25 Fe   -0.59738    1.16130   -0.58284
 26 Co    0.28999    0.35252    0.27823
 27 Fe   -0.76572   -0.40676    0.08890
 28 Al    0.30769   -0.20250   -0.37219
 29 Fe    1.04237   -0.07301    0.12564
 30 Cr   -0.52611   -0.11016   -0.37000
 31 Cr   -1.40355   -0.71137   -0.14255
 32 Al    0.12080   -0.72827    0.54729
 33 Fe    0.38563    0.01980   -0.21479
 34 Ni    0.69721   -0.52999   -0.07183
 35 Co   -0.40391   -0.18136   -0.19155
 36 Al    0.34946   -0.39829    0.22435
 37 Fe    0.43845    0.53415    0.54012
 38 Cr   -0.57629   -0.26282   -1.41346
 39 Fe    0.44144   -0.63316   -0.42776
 40 Al   -1.98012    0.74133   -1.02951
 41 Al    1.17274   -0.46141    0.81504
 42 Cr    0.84861   -0.36646    0.95914
 43 Al    0.68617    0.21156    0.85501
 44 Fe   -0.18641    0.08403    0.27329
 45 Cr   -0.26503    1.77497   -0.55596
 46 Al   -0.15108    0.82694    0.16689
 47 Fe    0.33854    0.57862    0.83424
 48 Cr   -0.73452   -0.43354    0.40003
 49 Co    0.15500   -0.33638   -0.23166
 50 Fe   -0.05598    0.36512    0.04458
 51 Co    0.15115   -0.37479   -0.16569
 52 Fe   -0.66546   -0.37078    0.19719
 53 Co   -0.00727   -0.21643   -0.00161
 54 Co    0.51774   -0.13221   -0.39421
 55 Ni   -0.33433   -0.19527   -0.18169
 56 Fe   -0.10225   -0.08051    0.24615
 57 Ni   -0.17783    0.39730   -0.09653
 58 Al   -0.58298   -1.41750   -0.35208
 59 Co    0.18708   -0.18333    0.10132
 60 Al    0.34450   -0.67723    0.63921
 61 Co    0.41731    0.42131   -0.26283
 62 Co   -0.60273    0.55696   -0.19580
 63 Al    0.78553    1.08887    0.65464
 64 Fe   -0.30450    0.19396    0.05108
 65 Fe    0.22484    0.45143    0.41798
 66 Ni   -0.51441   -0.45175   -0.06464
 67 Co   -0.07825    0.27381    0.03533
 68 Fe    0.38217    0.57457   -0.34758
 69 Cr   -0.89149    0.88083   -0.07354
 70 Cr   -0.34433   -0.14928    0.62654
 71 Cr    1.02981    0.37517   -0.19079
 72 Ni    0.05525   -0.35418   -0.65537
 73 Fe   -0.16341   -0.61742    0.25322
 74 Ni    0.00058   -0.35005   -0.03294
 75 Co    0.45120    0.13604   -0.36372
 76 Ni   -0.18983    0.41007   -0.05349
 77 Co   -0.33552   -0.04705   -0.36014
 78 Fe    0.37908   -0.47006   -0.22683
 79 Ni    0.00282   -0.03503   -0.04497
 80 Fe   -0.17616    0.03300    0.65482
 81 Fe   -0.45822   -0.19669    0.73202
 82 Al    0.25208    0.87307   -1.25572
 83 Co    0.19839    0.16377    0.26652
 84 Cr    0.51103   -0.36693    1.61484
 85 Cr   -0.33840    0.06726    0.85626
 86 Fe   -0.17806   -0.02026   -0.23756
 87 Fe    0.11534   -0.18948   -0.91225
 88 Co   -0.62099   -0.43138   -0.07487
 89 Ni    0.34957   -0.32544   -0.07941
 90 Cr    0.37082   -0.08840   -0.02476
 91 Co   -0.33271   -0.02800   -0.66348
 92 Al   -0.99798   -0.10236   -0.60799
 93 Al    0.29830   -0.16489   -1.04498
 94 Cr    0.66919    0.21751    0.04932
 95 Cr    0.16995   -0.16369   -0.07126
 96 Co   -0.10172    0.09489    0.04419
 97 Fe    0.21180    0.42978   -0.36735
 98 Co   -0.10489    0.25951   -0.17928
 99 Ni   -0.01688   -0.21005    0.19215
100 Ni   -0.02150    0.06960    0.21306
101 Ni   -0.05862   -0.25859   -0.17514
102 Ni   -0.18803   -0.15703    0.04439
103 Ni    0.12967   -0.17262   -0.08129
104 Co   -0.18092   -0.49337    0.16905
105 Ni    0.05469    0.51726   -0.39275
106 Ni    0.00666    0.44889    0.21776
107 Al   -0.88928   -0.74284    2.01023
108 Cr    0.69950    0.11384    0.19745
109 Cr    0.33715    0.19444   -0.17201
110 Ni    0.18933   -0.11106   -1.57289
111 Fe   -0.82921    0.30869   -0.44747
112 Fe   -0.28117   -0.30755    0.22395
113 Al    0.29299    0.66174    0.48628
114 Co    0.51802   -0.38935   -0.50748
115 Cr   -0.85422   -0.41691    0.47855
116 Al    0.11579    0.05701    1.31479
117 Fe    0.49747   -0.27571    0.30847
118 Ni   -0.02106   -0.16820    0.32132
119 Cr    0.30750   -0.55306   -0.36017
120 Ni   -0.20652    0.10867    0.04465
121 Fe    0.00025    0.81204    0.22051
122 Co   -0.34368    0.30342   -0.00239
123 Cr    0.40931    0.34085    0.69791
124 Co    0.46704    0.00164   -0.53498

Timing:                              incl.     excl.
-----------------------------------------------------------
Forces:                             34.690    34.690   0.2% |
Hamiltonian:                         1.665     0.009   0.0% |
 Atomic:                             0.321     0.001   0.0% |
  XC Correction:                     0.319     0.319   0.0% |
 Calculate atomic Hamiltonians:      0.840     0.840   0.0% |
 Communicate:                        0.092     0.092   0.0% |
 Initialize Hamiltonian:             0.000     0.000   0.0% |
 Poisson:                            0.090     0.090   0.0% |
 XC 3D grid:                         0.313     0.313   0.0% |
LCAO initialization:               237.036     0.468   0.0% |
 LCAO eigensolver:                  11.155     0.012   0.0% |
  Calculate projections:             0.000     0.000   0.0% |
  DenseAtomicCorrection:             0.000     0.000   0.0% |
  Distribute overlap matrix:         7.131     7.131   0.0% |
  Orbital Layouts:                   3.986     3.986   0.0% |
  Potential matrix:                  0.003     0.003   0.0% |
  Sum over cells:                    0.023     0.023   0.0% |
 LCAO to grid:                     223.559   223.559   1.4% ||
 Set positions (LCAO WFS):           1.854     1.596   0.0% |
  Basic WFS set positions:           0.003     0.003   0.0% |
  Basis functions set positions:     0.000     0.000   0.0% |
  P tci:                             0.000     0.000   0.0% |
  ST tci:                            0.098     0.098   0.0% |
  mktci:                             0.156     0.156   0.0% |
PWDescriptor:                        0.098     0.098   0.0% |
SCF-cycle:                       15784.543     3.386   0.0% |
 Davidson:                       15301.589  5195.554  32.3% |------------|
  Apply H:                         288.031   283.250   1.8% ||
   HMM T:                            4.781     4.781   0.0% |
  Subspace diag:                  1685.683     0.041   0.0% |
   calc_h_matrix:                  687.905   444.519   2.8% ||
    Apply H:                       243.386   238.389   1.5% ||
     HMM T:                          4.998     4.998   0.0% |
   diagonalize:                    138.443   138.443   0.9% |
   rotate_psi:                     859.294   859.294   5.3% |-|
  calc. matrices:                 3979.455  3503.172  21.8% |--------|
   Apply H:                        476.283   466.749   2.9% ||
    HMM T:                           9.535     9.535   0.1% |
  diagonalize:                    2335.800  2335.800  14.5% |-----|
  rotate_psi:                     1817.067  1817.067  11.3% |----|
 Density:                          266.398     0.003   0.0% |
  Atomic density matrices:           2.697     2.697   0.0% |
  Mix:                             118.728   118.728   0.7% |
  Multipole moments:                 0.076     0.076   0.0% |
  Pseudo density:                  144.893   144.888   0.9% |
   Symmetrize density:               0.005     0.005   0.0% |
 Hamiltonian:                      197.211     1.241   0.0% |
  Atomic:                           42.987     0.151   0.0% |
   XC Correction:                   42.836    42.836   0.3% |
  Calculate atomic Hamiltonians:   100.036   100.036   0.6% |
  Communicate:                      10.249    10.249   0.1% |
  Poisson:                           4.209     4.209   0.0% |
  XC 3D grid:                       38.488    38.488   0.2% |
 Orthonormalize:                    15.959     0.001   0.0% |
  calc_s_matrix:                     1.938     1.938   0.0% |
  inverse-cholesky:                  0.686     0.686   0.0% |
  projections:                       9.903     9.903   0.1% |
  rotate_psi_s:                      3.431     3.431   0.0% |
Set symmetry:                        0.001     0.001   0.0% |
Other:                               7.117     7.117   0.0% |
-----------------------------------------------------------
Total:                                     16065.150 100.0%

Date: Wed Apr 19 14:47:39 2023
