
  ___ ___ ___ _ _ _  
 |   |   |_  | | | | 
 | | | | | . | | | | 
 |__ |  _|___|_____|  22.8.0
 |___|_|             

User:   c.zeng@d0089
Date:   Mon Apr 17 04:25:30 2023
Arch:   x86_64
Pid:    149283
CWD:    /home/c.zeng/projects/hea-corrosion/hea-mlp/data-curation/surface-md/dft-jobs/12
Python: 3.8.1
gpaw:   /home/c.zeng/usr/installs/gpaw/source/gpaw-22.8.0/gpaw
_gpaw:  /home/c.zeng/usr/installs/gpaw/source/gpaw-22.8.0/
        _gpaw.cpython-38-x86_64-linux-gnu.so
ase:    /home/c.zeng/.local/lib/python3.8/site-packages/ase-3.22.1-py3.8.egg/ase (version 3.22.1)
numpy:  /home/c.zeng/.local/lib/python3.8/site-packages/numpy (version 1.24.2)
scipy:  /home/c.zeng/.local/lib/python3.8/site-packages/scipy (version 1.10.1)
libxc:  4.2.3
units:  Angstrom and eV
cores: 30
OpenMP: False
OMP_NUM_THREADS: 1

Input parameters:
  convergence: {energy: 0.0001}
  kpts: [2 2 1]
  maxiter: 666
  mode: {ecut: 350.0,
         name: pw}
  occupations: {fixmagmom: False,
                name: fermi-dirac,
                width: 0.1}
  poissonsolver: {dipolelayer: xy}
  spinpol: True
  symmetry: {point_group: False}
  xc: PBE

System changes: positions, numbers, cell, pbc, initial_charges, initial_magmoms 

Initialize ...

species:
  Cr:
    name: Chromium
    id: 33f258bda2ca9f93018e70263a35547b
    Z: 24.0
    valence: 6
    core: 18
    charge: 0.0
    file: /home/c.zeng/usr/data/gpaw-setups-0.9.20000/Cr.PBE.gz
    compensation charges: {type: gauss,
                           rc: 0.35,
                           lmax: 2}
    cutoffs: {filter: 2.14,
              core: 3.04}
    valence states:
      #              energy  rcut
      - 4s(1.00)    -4.007   1.164
      - 4p(0.00)    -0.989   1.217
      - 3d(5.00)    -2.913   1.111
      -  s          23.205   1.164
      -  p          26.223   1.217
      -  d          24.299   1.111
  
    # Using partial waves for Cr as LCAO basis

  Fe:
    name: Iron
    id: 37abbd8d6c3c35915a9b583b742da910
    Z: 26.0
    valence: 8
    core: 18
    charge: 0.0
    file: /home/c.zeng/usr/data/gpaw-setups-0.9.20000/Fe.PBE.gz
    compensation charges: {type: gauss,
                           rc: 0.33,
                           lmax: 2}
    cutoffs: {filter: 2.06,
              core: 2.67}
    valence states:
      #              energy  rcut
      - 4s(2.00)    -5.291   1.164
      - 4p(0.00)    -1.326   1.058
      - 3d(6.00)    -7.505   1.058
      -  s          21.920   1.164
      -  p          25.885   1.058
      -  d          19.706   1.058
  
    # Using partial waves for Fe as LCAO basis

  Ni:
    name: Nickel
    id: 0d9f38a9d6e76a2886f07bb4381f212b
    Z: 28.0
    valence: 16
    core: 12
    charge: 0.0
    file: /home/c.zeng/usr/data/gpaw-setups-0.9.20000/Ni.PBE.gz
    compensation charges: {type: gauss,
                           rc: 0.36,
                           lmax: 2}
    cutoffs: {filter: 2.14,
              core: 1.98}
    valence states:
      #              energy  rcut
      - 4s(2.00)    -5.642   1.164
      - 3p(6.00)   -71.394   1.207
      - 4p(0.00)    -1.226   1.207
      - 3d(8.00)    -8.875   1.138
      -  s          21.570   1.164
      -  d          18.337   1.138
  
    # Using partial waves for Ni as LCAO basis

  Co:
    name: Cobalt
    id: 339d20d5b0b93d2de9531a1bee871d91
    Z: 27.0
    valence: 9
    core: 18
    charge: 0.0
    file: /home/c.zeng/usr/data/gpaw-setups-0.9.20000/Co.PBE.gz
    compensation charges: {type: gauss,
                           rc: 0.32,
                           lmax: 2}
    cutoffs: {filter: 1.87,
              core: 2.55}
    valence states:
      #              energy  rcut
      - 4s(2.00)    -5.469   1.005
      - 4p(0.00)    -1.277   1.058
      - 3d(7.00)    -8.205   1.005
      -  s          21.742   1.005
      -  p          25.934   1.058
      -  d          19.007   1.005
  
    # Using partial waves for Co as LCAO basis

Reference energy: -4451268.207082  # eV

Spin-polarized calculation.
Magnetic moment: 175.600000

Convergence criteria:
 Maximum [total energy] change in last 3 cyles: 0.0001 eV / electron
 Maximum integral of absolute [dens]ity change: 0.0001 electrons / valence electron
 Maximum integral of absolute [eigenst]ate change: 4e-08 eV^2 / valence electron
 Maximum number of scf [iter]ations: 666
 (Square brackets indicate name in SCF output, whereas a 'c' in
 the SCF output indicates the quantity has converged.)

Symmetries present (total): 1

  ( 1  0  0)
  ( 0  1  0)
  ( 0  0  1)

4 k-points: 2 x 2 x 1 Monkhorst-Pack grid
2 k-points in the irreducible part of the Brillouin zone
       k-points in crystal coordinates                weights
   0:     0.25000000   -0.25000000    0.00000000          2/4
   1:     0.25000000    0.25000000    0.00000000          2/4

Wave functions: Plane wave expansion
  Cutoff energy: 350.000 eV
  Number of coefficients (min, max): 58495, 58567
  Pulay-stress correction: 0.000000 eV/Ang^3 (de/decut=0.000000)
  Using FFTW library
  ScaLapack parameters: grid=1x1, blocksize=None
  Wavefunction extrapolation:
    Improved wavefunction reuse through dual PAW basis 

Occupation numbers: Fermi-Dirac:
  width: 0.1000  # eV
 

Eigensolver
   Davidson(niter=2) 

Densities:
  Coarse grid: 54*54*128 grid
  Fine grid: 108*108*256 grid
  Total Charge: 0.000000 

Density mixing:
  Method: difference
  Backend: pulay
  Linear mixing parameter: 0.05
  old densities: 5
  Damping of long wavelength oscillations: 50 

Hamiltonian:
  XC and Coulomb potentials evaluated on a 108*108*256 grid
  Using the PBE Exchange-Correlation functional
  External potential:
    NoExternalPotential
 

XC parameters: PBE with 2 nearest neighbor stencil

Memory estimate:
  Process memory now: 365.94 MiB
  Calculator: 2405.48 MiB
    Density: 16.73 MiB
      Arrays: 6.75 MiB
      Localized functions: 7.29 MiB
      Mixer: 2.70 MiB
    Hamiltonian: 5.22 MiB
      Arrays: 5.01 MiB
      XC: 0.00 MiB
      Poisson: 0.00 MiB
      vbar: 0.21 MiB
    Wavefunctions: 2383.52 MiB
      Arrays psit_nG: 1501.35 MiB
      Eigensolver: 862.84 MiB
      Projections: 3.85 MiB
      Projectors: 0.98 MiB
      PW-descriptor: 14.51 MiB

Total number of cores used: 30
Parallelization over k-points: 2
Domain decomposition: 1 x 3 x 5

Number of atoms: 125
Number of atomic orbitals: 1218
Number of bands in calculation: 840
Number of valence electrons: 1217
Bands to converge: occupied

... initialized

Initializing position-dependent things.

Density initialized from atomic densities
Creating initial wave functions:
  840 bands from LCAO basis set

                                                                  
                                                                  
                                                                  
                                                                  
                                          Ni                      
                                           Cr         Co          
                        Ni     Ni   Co           Cr               
                     Cr   Ni          Co     Cr                   
                                Co     Co  Co     Fe    Co        
                Co    Ni   CNi   CrNi Fe     Fe    Fe             
                  Ni   NFe       Ni     FCr    Ni                 
            Co            FeCo Ni   FCr        Co   Fe            
        Co        Fe    Ni    Co   Ni     Fe    Cr                
                   CNi Fe Fe  Ni    CFe     Co      Fe            
               Ni         Cr    Co     Fe  Fe   Fe     Cr         
                    Co     Co Ni    CoFe   Co                     
               Fe  Fe  Cr Ni   NCCo    Cr  Ni   Fe      Cr        
          Co     Fe  Ni     Fer    CrCrNi  NCo    Cr              
               Ni      Fe Ni    NiFe  FCr                         
           Fe    Co  Cr    CrCr    Fe        Cr                   
            Co         CCr   Cr  Cr  Co Fe    Ni                  
                  Co    Co         Cr     Cr                      
             Fe  Fe                   Cr                          
                    Ni         Ni                                 
                                                                  
                                                                  
                                                                  
                                                                  
                                                                  

Positions:
   0 Cr    12.385327    0.800469   10.393693    ( 0.0000,  0.0000,  0.0000)
   1 Fe     2.414757    1.148254   10.285822    ( 0.0000,  0.0000,  2.0000)
   2 Ni     4.880868    1.410686    9.759750    ( 0.0000,  0.0000,  1.5000)
   3 Co     6.927963    0.948835   11.091703    ( 0.0000,  0.0000,  2.1000)
   4 Ni     9.708335    0.545013    9.853375    ( 0.0000,  0.0000,  1.5000)
   5 Cr    13.436313    3.124940    9.817879    ( 0.0000,  0.0000,  0.0000)
   6 Fe     3.219546    3.574105    9.245831    ( 0.0000,  0.0000,  2.0000)
   7 Cr     5.816780    3.200962   11.117401    ( 0.0000,  0.0000,  0.0000)
   8 Cr     8.285715    2.937153   10.740387    ( 0.0000,  0.0000,  0.0000)
   9 Cr    10.632333    3.020013   10.297399    ( 0.0000,  0.0000,  0.0000)
  10 Ni    14.646506    5.598596    9.787464    ( 0.0000,  0.0000,  1.5000)
  11 Cr     4.636172    5.261681   10.940895    ( 0.0000,  0.0000,  0.0000)
  12 Cr     7.061467    5.043961   10.487503    ( 0.0000,  0.0000,  0.0000)
  13 Cr     9.522924    5.240947    9.963119    ( 0.0000,  0.0000,  0.0000)
  14 Fe    12.101880    5.406337    9.839485    ( 0.0000,  0.0000,  2.0000)
  15 Cr    15.935802    7.299889   11.046783    ( 0.0000,  0.0000,  0.0000)
  16 Ni     6.045540    7.176949   10.459889    ( 0.0000,  0.0000,  1.5000)
  17 Ni     8.416961    7.414431    9.994712    ( 0.0000,  0.0000,  1.5000)
  18 Fe    10.869143    7.499468    9.979678    ( 0.0000,  0.0000,  2.0000)
  19 Cr    13.482430    7.659770    9.354380    ( 0.0000,  0.0000,  0.0000)
  20 Cr    17.445887    9.432583   10.745108    ( 0.0000,  0.0000,  0.0000)
  21 Ni     7.508862    9.644437   10.431727    ( 0.0000,  0.0000,  1.5000)
  22 Cr     9.689711    9.636894   10.055193    ( 0.0000,  0.0000,  0.0000)
  23 Ni    12.125150   10.086668    9.851658    ( 0.0000,  0.0000,  1.5000)
  24 Fe    14.413074    9.235256   11.026901    ( 0.0000,  0.0000,  2.0000)
  25 Co    12.485979   -0.415660   12.557373    ( 0.0000,  0.0000,  2.1000)
  26 Co     2.388254   -0.174368   12.532622    ( 0.0000,  0.0000,  2.1000)
  27 Co     4.782656   -0.287560   11.949927    ( 0.0000,  0.0000,  2.1000)
  28 Cr     7.119198   -0.281253   13.010857    ( 0.0000,  0.0000,  0.0000)
  29 Fe    15.878820   10.495297   12.452374    ( 0.0000,  0.0000,  2.0000)
  30 Fe     1.139636    1.875618   12.317376    ( 0.0000,  0.0000,  2.0000)
  31 Co     3.892733    1.820815   12.028387    ( 0.0000,  0.0000,  2.1000)
  32 Fe     6.212134    2.006365   13.198362    ( 0.0000,  0.0000,  2.0000)
  33 Cr     8.506452    1.883000   12.650632    ( 0.0000,  0.0000,  0.0000)
  34 Fe    11.063339    1.672791   12.476529    ( 0.0000,  0.0000,  2.0000)
  35 Ni     2.461734    4.032167   11.961845    ( 0.0000,  0.0000,  1.5000)
  36 Ni     4.710031    4.014200   13.156873    ( 0.0000,  0.0000,  1.5000)
  37 Cr     7.777360    4.319561   12.871085    ( 0.0000,  0.0000,  0.0000)
  38 Fe     9.915562    4.144320   12.190573    ( 0.0000,  0.0000,  2.0000)
  39 Cr    12.271841    4.075230   12.220850    ( 0.0000,  0.0000,  0.0000)
  40 Fe     3.627732    6.193862   12.950369    ( 0.0000,  0.0000,  2.0000)
  41 Ni     6.088460    6.463373   12.752233    ( 0.0000,  0.0000,  1.5000)
  42 Co     8.720183    6.427885   12.253412    ( 0.0000,  0.0000,  2.1000)
  43 Ni    11.409238    6.279672   11.922112    ( 0.0000,  0.0000,  1.5000)
  44 Co    13.649988    6.510140   11.748291    ( 0.0000,  0.0000,  2.1000)
  45 Cr    17.372998    8.687870   12.970012    ( 0.0000,  0.0000,  0.0000)
  46 Ni     7.334220    8.394500   12.630973    ( 0.0000,  0.0000,  1.5000)
  47 Co     9.825245    8.600930   12.307750    ( 0.0000,  0.0000,  2.1000)
  48 Ni    12.428768    8.419593   11.686374    ( 0.0000,  0.0000,  1.5000)
  49 Fe    14.729235    8.408254   13.133484    ( 0.0000,  0.0000,  2.0000)
  50 Co     1.293230    0.775579   14.437488    ( 0.0000,  0.0000,  2.1000)
  51 Fe     4.009537    0.675212   14.302010    ( 0.0000,  0.0000,  2.0000)
  52 Cr     6.353252    0.789836   15.187633    ( 0.0000,  0.0000,  0.0000)
  53 Fe     8.665962    0.612313   14.831441    ( 0.0000,  0.0000,  2.0000)
  54 Cr    11.239644    0.800006   14.605833    ( 0.0000,  0.0000,  0.0000)
  55 Fe     2.480018    3.074795   14.158813    ( 0.0000,  0.0000,  2.0000)
  56 Co     4.795589    2.753946   15.300517    ( 0.0000,  0.0000,  2.1000)
  57 Co     7.702151    3.001173   14.854746    ( 0.0000,  0.0000,  2.1000)
  58 Co     9.907928    3.032853   14.153551    ( 0.0000,  0.0000,  2.1000)
  59 Cr    12.340210    3.010424   14.488785    ( 0.0000,  0.0000,  0.0000)
  60 Co     3.707011    5.018736   15.589637    ( 0.0000,  0.0000,  2.1000)
  61 Cr     6.450162    5.147274   14.768681    ( 0.0000,  0.0000,  0.0000)
  62 Co     8.737062    5.383991   14.679327    ( 0.0000,  0.0000,  2.1000)
  63 Fe    11.297640    5.258249   14.169604    ( 0.0000,  0.0000,  2.0000)
  64 Co    13.586241    5.086446   13.986425    ( 0.0000,  0.0000,  2.1000)
  65 Fe     4.792974    7.055350   15.014861    ( 0.0000,  0.0000,  2.0000)
  66 Ni     7.517636    7.258468   14.575040    ( 0.0000,  0.0000,  1.5000)
  67 Cr    10.199850    7.284357   14.311492    ( 0.0000,  0.0000,  0.0000)
  68 Fe    12.782878    7.317833   13.916300    ( 0.0000,  0.0000,  2.0000)
  69 Cr    14.991874    7.144504   15.241743    ( 0.0000,  0.0000,  0.0000)
  70 Cr     6.165842    9.108688   14.786072    ( 0.0000,  0.0000,  0.0000)
  71 Ni     8.926380    9.528522   14.419671    ( 0.0000,  0.0000,  1.5000)
  72 Ni    11.844833    9.366804   14.034867    ( 0.0000,  0.0000,  1.5000)
  73 Co    13.793777    9.373888   15.377649    ( 0.0000,  0.0000,  2.1000)
  74 Fe    16.217429    9.266526   15.000675    ( 0.0000,  0.0000,  2.0000)
  75 Fe    12.656002    1.689919   16.750017    ( 0.0000,  0.0000,  2.0000)
  76 Ni     2.800048    1.798578   16.242592    ( 0.0000,  0.0000,  1.5000)
  77 Ni     4.967823    1.404139   17.475069    ( 0.0000,  0.0000,  1.5000)
  78 Fe     7.405849    1.489615   17.158125    ( 0.0000,  0.0000,  2.0000)
  79 Co     9.900134    1.668880   16.356293    ( 0.0000,  0.0000,  2.1000)
  80 Co    14.085618    3.774583   16.521199    ( 0.0000,  0.0000,  2.1000)
  81 Fe     3.794094    3.488730   17.473528    ( 0.0000,  0.0000,  2.0000)
  82 Ni     6.191573    3.913169   17.050352    ( 0.0000,  0.0000,  1.5000)
  83 Co     8.525408    3.811245   16.890116    ( 0.0000,  0.0000,  2.1000)
  84 Fe    11.439037    4.007258   16.456653    ( 0.0000,  0.0000,  2.0000)
  85 Ni    14.894179    6.013610   17.369368    ( 0.0000,  0.0000,  1.5000)
  86 Ni     4.912028    6.021154   17.811999    ( 0.0000,  0.0000,  1.5000)
  87 Co     7.147453    6.190928   17.046276    ( 0.0000,  0.0000,  2.1000)
  88 Fe    10.278164    6.192068   16.544367    ( 0.0000,  0.0000,  2.0000)
  89 Fe    12.940773    6.176397   16.136589    ( 0.0000,  0.0000,  2.0000)
  90 Fe    16.076018    8.131902   17.196785    ( 0.0000,  0.0000,  2.0000)
  91 Co     5.983669    8.362019   17.058138    ( 0.0000,  0.0000,  2.1000)
  92 Ni     8.641109    8.010248   16.627199    ( 0.0000,  0.0000,  1.5000)
  93 Fe    11.580752    8.082528   16.278895    ( 0.0000,  0.0000,  2.0000)
  94 Fe    13.704718    8.022122   17.424243    ( 0.0000,  0.0000,  2.0000)
  95 Co    17.333496   10.492368   16.860492    ( 0.0000,  0.0000,  2.1000)
  96 Co     7.560458   10.346297   16.689442    ( 0.0000,  0.0000,  2.1000)
  97 Fe    10.128246   10.101122   16.258760    ( 0.0000,  0.0000,  2.0000)
  98 Co    12.308536   10.130279   17.427427    ( 0.0000,  0.0000,  2.1000)
  99 Fe    14.854215   10.267090   17.346521    ( 0.0000,  0.0000,  2.0000)
 100 Co     0.326164    0.236324   18.863200    ( 0.0000,  0.0000,  2.1000)
 101 Co     9.283896   10.992372   18.654874    ( 0.0000,  0.0000,  2.1000)
 102 Ni    11.610987   11.206378   19.813903    ( 0.0000,  0.0000,  1.5000)
 103 Fe     7.790035    0.517323   19.433459    ( 0.0000,  0.0000,  2.0000)
 104 Co    16.312608   11.464831   18.939809    ( 0.0000,  0.0000,  2.1000)
 105 Co     1.573745    2.487339   18.504714    ( 0.0000,  0.0000,  2.1000)
 106 Ni     4.098645    2.375786   19.673258    ( 0.0000,  0.0000,  1.5000)
 107 Fe     6.369186    2.597394   19.041596    ( 0.0000,  0.0000,  2.0000)
 108 Ni     9.117263    2.730126   18.647727    ( 0.0000,  0.0000,  1.5000)
 109 Cr    11.683929    2.831805   18.531132    ( 0.0000,  0.0000,  0.0000)
 110 Co     2.556917    4.597189   19.437002    ( 0.0000,  0.0000,  2.1000)
 111 Ni     5.277494    4.439245   19.519944    ( 0.0000,  0.0000,  1.5000)
 112 Ni     7.523203    4.726261   18.962495    ( 0.0000,  0.0000,  1.5000)
 113 Ni    10.296398    4.867116   18.600434    ( 0.0000,  0.0000,  1.5000)
 114 Cr    12.824392    4.914305   18.273725    ( 0.0000,  0.0000,  0.0000)
 115 Cr     3.901795    6.836767   19.846377    ( 0.0000,  0.0000,  0.0000)
 116 Ni     6.282862    6.901010   19.616482    ( 0.0000,  0.0000,  1.5000)
 117 Cr     9.072126    6.610279   18.461853    ( 0.0000,  0.0000,  0.0000)
 118 Co    11.578541    6.868871   18.693346    ( 0.0000,  0.0000,  2.1000)
 119 Cr    13.827573    6.961941   19.612264    ( 0.0000,  0.0000,  0.0000)
 120 Ni     4.861204    8.913053   19.047769    ( 0.0000,  0.0000,  1.5000)
 121 Ni     7.674671    8.776886   19.059275    ( 0.0000,  0.0000,  1.5000)
 122 Co    10.356645    8.938470   18.206036    ( 0.0000,  0.0000,  2.1000)
 123 Cr    12.336884    8.977521   19.924904    ( 0.0000,  0.0000,  0.0000)
 124 Cr    15.013995    8.884605   19.335972    ( 0.0000,  0.0000,  0.0000)

Unit cell:
           periodic     x           y           z      points  spacing
  1. axis:    yes   12.446800    0.000000    0.000000    54     0.1996
  2. axis:    yes    6.223010   10.778600    0.000000    54     0.1996
  3. axis:    no     0.000000    0.000000   29.353100   128     0.2293

  Lengths:  12.446800  12.446046  29.353100
  Angles:   90.000000  90.000000  60.000070

Effective grid spacing dv^(1/3) = 0.2193

     iter     time        total  log10-change:  magmom
                         energy  eigst   dens
iter:   1 04:32:51 -1242.558989                  +175.9175
iter:   2 04:35:28 -1154.911872  +0.01  -1.11    +98.8234
iter:   3 04:38:05 -1128.712346  -0.46  -1.08    +82.7645
iter:   4 04:40:42 -1490.479373  -0.41  -1.12    +73.1947
iter:   5 04:43:20 -1039.139470  -0.77  -0.88    +58.2982
iter:   6 04:45:57  -990.813865  -1.49  -1.26    +51.4763
iter:   7 04:48:34  -982.736938  -1.92  -1.34    +51.5600
iter:   8 04:51:12  -983.854753  -1.69  -1.36    +53.8762
iter:   9 04:53:48 -1014.346869  -1.43  -1.35    +57.2474
iter:  10 04:56:25 -1070.556689  -1.13  -1.29    +58.0505
iter:  11 04:59:03 -1006.062399  -1.38  -1.22    +55.8315
iter:  12 05:01:40  -985.030747  -1.53  -1.39    +54.2975
iter:  13 05:04:17 -1004.689468  -1.45  -1.49    +57.6870
iter:  14 05:06:54  -984.307833  -1.52  -1.41    +57.6303
iter:  15 05:09:31  -966.603079  -2.13  -1.45    +58.5366
iter:  16 05:12:09 -1127.446366  -1.28  -1.57    +65.5040
iter:  17 05:14:47 -1005.078889  -1.45  -1.17    +62.3872
iter:  18 05:17:24  -970.452000  -2.28  -1.34    +62.7791
iter:  19 05:20:01  -974.976528  -1.93  -1.60    +68.4622
iter:  20 05:22:39  -982.328130  -1.94  -1.62    +70.3218
iter:  21 05:25:15  -976.628307  -2.12  -1.53    +74.4628
iter:  22 05:27:53 -1016.423707  -1.47  -1.58    +76.6694
iter:  23 05:30:31  -984.774632  -1.74  -1.38    +76.1679
iter:  24 05:33:08  -975.666437  -1.92  -1.56    +68.2534
iter:  25 05:35:45  -965.402077  -2.32  -1.61    +73.2906
iter:  26 05:38:23  -965.653614  -2.58  -1.86    +76.7010
iter:  27 05:41:00  -965.334003  -2.63  -1.89    +78.0421
iter:  28 05:43:37  -965.951389  -2.54  -1.89    +81.9300
iter:  29 05:46:15  -966.679084  -2.80  -1.94    +84.6870
iter:  30 05:48:52 -1022.585133  -1.99  -1.95    +86.4368
iter:  31 05:51:30  -967.505661  -2.23  -1.36    +85.5924
iter:  32 05:54:07  -968.641063  -2.59  -1.96    +86.7515
iter:  33 05:56:45  -973.039557  -2.33  -2.03    +87.4763
iter:  34 05:59:22  -967.888322  -2.62  -1.86    +87.3273
iter:  35 06:01:59  -968.125033  -2.82  -2.13    +87.9290
iter:  36 06:04:37  -971.221651  -2.86  -2.15    +87.8911
iter:  37 06:07:13  -975.285987  -2.50  -1.95    +88.9148
iter:  38 06:09:51  -968.661086  -3.06  -1.78    +88.2984
iter:  39 06:12:28  -970.832174  -3.10  -2.19    +86.9092
iter:  40 06:15:06  -968.459906  -2.99  -2.01    +86.5196
iter:  41 06:17:43  -968.528688  -3.38  -2.29    +86.2428
iter:  42 06:20:21  -968.603092  -3.52  -2.35    +85.8460
iter:  43 06:22:58  -971.817850  -2.88  -2.44    +85.7538
iter:  44 06:25:35  -968.835823  -3.21  -1.99    +85.9970
iter:  45 06:28:13  -968.755993  -3.73  -2.45    +85.8537
iter:  46 06:30:49  -969.898791  -3.47  -2.61    +85.9181
iter:  47 06:33:27  -968.902710  -3.64  -2.22    +85.8090
iter:  48 06:36:04  -968.963152  -3.84  -2.60    +86.0089
iter:  49 06:38:41  -969.026702  -3.67  -2.62    +85.9648
iter:  50 06:41:16  -969.067925c -3.79  -2.63    +86.1180
iter:  51 06:43:48  -969.017721c -4.07  -2.60    +86.3390
iter:  52 06:46:19  -969.010662c -4.11  -2.72    +86.2420
iter:  53 06:48:50  -969.386364  -3.84  -2.80    +86.4783
iter:  54 06:51:20  -969.027628  -4.11  -2.45    +86.5510
iter:  55 06:53:51  -969.055682  -4.40  -2.86    +86.7958
iter:  56 06:56:22  -969.090312c -4.41  -2.89    +86.9220
iter:  57 06:58:52  -969.085168c -4.75  -2.88    +86.9392
iter:  58 07:01:22  -969.110321c -4.67  -2.91    +87.2335
iter:  59 07:03:52  -969.178735c -4.25  -2.91    +87.5075
iter:  60 07:06:22  -969.540401  -4.22  -2.81    +87.4173
iter:  61 07:08:53  -969.288510  -3.86  -2.43    +87.7127
iter:  62 07:11:23  -969.202451  -4.14  -2.74    +87.8714
iter:  63 07:13:53  -969.219108c -4.39  -3.04    +88.0651
iter:  64 07:16:24  -969.224469c -4.27  -3.00    +88.2258
iter:  65 07:18:55  -969.215564c -4.48  -3.02    +88.4287
iter:  66 07:21:26  -969.230559c -4.82  -3.25    +88.4014
iter:  67 07:23:57  -969.238447c -5.00  -3.20    +88.3570
iter:  68 07:26:27  -969.269004c -4.72  -3.27    +88.4088
iter:  69 07:28:57  -969.264962c -5.57  -3.15    +88.4048
iter:  70 07:31:27  -969.329301c -4.09  -3.13    +88.5647
iter:  71 07:33:57  -969.325370c -5.06  -3.09    +88.6531
iter:  72 07:36:28  -969.347407c -4.70  -3.13    +88.8115
iter:  73 07:38:58  -969.400646c -4.67  -3.12    +88.8670
iter:  74 07:41:28  -969.361181c -4.70  -2.86    +89.0296
iter:  75 07:44:00  -969.514132  -4.20  -3.09    +89.2127
iter:  76 07:46:30  -969.470026  -5.18  -2.63    +89.1465
iter:  77 07:49:00  -969.458195c -4.51  -2.70    +89.0600
iter:  78 07:51:30  -969.437499c -4.36  -2.75    +88.8568
iter:  79 07:54:01  -969.394163c -4.35  -2.79    +88.9074
iter:  80 07:56:31  -969.675357  -3.94  -2.96    +88.9268
iter:  81 07:59:01  -969.472774  -3.87  -2.51    +88.9457
iter:  82 08:01:32  -969.451609  -4.83  -2.77    +89.0709
iter:  83 08:04:03  -969.424203c -4.80  -2.79    +89.0263
iter:  84 08:06:34  -969.396747c -4.75  -2.86    +89.0324
iter:  85 08:09:04  -969.411405c -4.57  -3.03    +89.0952
iter:  86 08:11:35  -969.379667c -4.54  -2.91    +89.2391
iter:  87 08:14:06  -969.374017c -5.03  -3.26    +89.2939
iter:  88 08:16:37  -969.393747c -4.76  -3.42    +89.5430
iter:  89 08:19:07  -969.390614c -5.31  -3.28    +89.5390
iter:  90 08:21:38  -969.393396c -5.51  -3.48    +89.5641
iter:  91 08:24:09  -969.393391c -5.36  -3.40    +89.5636
iter:  92 08:26:40  -969.393696c -5.69  -3.54    +89.5869
iter:  93 08:29:11  -969.397072c -5.52  -3.57    +89.6268
iter:  94 08:31:42  -969.399450c -5.33  -3.56    +89.6396
iter:  95 08:34:12  -969.400460c -5.38  -3.45    +89.6320
iter:  96 08:36:43  -969.399959c -5.76  -3.37    +89.6729
iter:  97 08:39:13  -969.400447c -5.55  -3.48    +89.7479
iter:  98 08:41:43  -969.400852c -5.48  -3.57    +89.7986
iter:  99 08:44:14  -969.403191c -5.82  -3.60    +89.8060
iter: 100 08:46:44  -969.478869c -4.72  -3.53    +89.8121
iter: 101 08:49:15  -969.408617c -4.83  -2.82    +89.7819
iter: 102 08:51:45  -969.406701c -5.71  -3.30    +89.8162
iter: 103 08:54:16  -969.406718c -5.59  -3.38    +89.8620
iter: 104 08:56:45  -969.403396c -6.10  -3.45    +89.8671
iter: 105 08:59:15  -969.404162c -6.25  -3.63    +89.8537
iter: 106 09:01:45  -969.409702c -5.47  -3.60    +89.8662
iter: 107 09:04:15  -969.404167c -5.75  -3.36    +89.8731
iter: 108 09:06:45  -969.404006c -6.33  -3.65    +89.8709
iter: 109 09:09:14  -969.403323c -5.98  -3.70    +89.8619
iter: 110 09:11:44  -969.405144c -6.06  -3.76    +89.8688
iter: 111 09:14:14  -969.404425c -6.32  -3.66    +89.8680
iter: 112 09:16:45  -969.404204c -6.53  -3.83    +89.8537
iter: 113 09:19:16  -969.404583c -6.49  -4.00    +89.8465
iter: 114 09:21:46  -969.404246c -6.80  -4.13c   +89.8651
iter: 115 09:24:17  -969.404330c -6.60  -3.92    +89.8830
iter: 116 09:26:48  -969.404195c -6.94  -4.10c   +89.8688
iter: 117 09:29:19  -969.404683c -6.52  -4.15c   +89.8559
iter: 118 09:31:50  -969.404201c -6.63  -4.21c   +89.8691
iter: 119 09:34:21  -969.404603c -6.39  -4.26c   +89.8372
iter: 120 09:36:52  -969.405021c -6.19  -4.25c   +89.8216
iter: 121 09:39:23  -969.404768c -6.62  -4.07c   +89.8362
iter: 122 09:41:55  -969.405637c -5.57  -4.14c   +89.8151
iter: 123 09:44:27  -969.407740c -6.01  -3.87    +89.8259
iter: 124 09:46:58  -969.406438c -6.99  -3.68    +89.8355
iter: 125 09:49:29  -969.405881c -6.10  -3.82    +89.8658
iter: 126 09:52:00  -969.405998c -6.56  -3.76    +89.8552
iter: 127 09:54:32  -969.406990c -6.23  -3.92    +89.8616
iter: 128 09:57:04  -969.408637c -6.21  -3.73    +89.8472
iter: 129 09:59:35  -969.406067c -5.65  -3.56    +89.8130
iter: 130 10:02:06  -969.407311c -5.73  -3.63    +89.8178
iter: 131 10:04:38  -969.409170c -5.35  -3.62    +89.8679
iter: 132 10:07:10  -969.408972c -5.54  -3.46    +89.8633
iter: 133 10:09:42  -969.406042c -6.21  -3.59    +89.8557
iter: 134 10:12:14  -969.406280c -6.67  -4.24c   +89.8844
iter: 135 10:14:45  -969.406786c -6.00  -4.24c   +89.9424
iter: 136 10:17:16  -969.406442c -6.89  -3.92    +89.9170
iter: 137 10:19:48  -969.406445c -6.15  -4.10c   +89.9598
iter: 138 10:22:20  -969.407614c -6.33  -3.88    +89.9767
iter: 139 10:24:52  -969.407090c -6.81  -3.68    +89.9668
iter: 140 10:27:23  -969.415779c -5.82  -3.72    +89.9701
iter: 141 10:29:57  -969.407635c -5.86  -3.27    +89.9723
iter: 142 10:32:35  -969.416668c -5.31  -3.85    +89.9818
iter: 143 10:35:14  -969.412587c -5.34  -3.30    +90.0197
iter: 144 10:37:54  -969.407785c -5.51  -3.32    +90.0992
iter: 145 10:40:33  -969.406814c -5.53  -3.79    +90.0654
iter: 146 10:43:12  -969.417049c -5.45  -3.74    +90.0360
iter: 147 10:45:51  -969.406930c -5.79  -3.28    +90.0169
iter: 148 10:48:31  -969.408008c -6.14  -4.21c   +89.9985
iter: 149 10:51:10  -969.408588c -6.14  -3.97    +89.9705
iter: 150 10:53:50  -969.409672c -6.12  -3.64    +89.9936
iter: 151 10:56:30  -969.409258c -6.45  -3.76    +89.9858
iter: 152 10:59:09  -969.410968c -6.47  -3.78    +89.9533
iter: 153 11:01:48  -969.419108c -5.52  -3.60    +90.0083
iter: 154 11:04:27  -969.417318c -5.23  -3.23    +89.8952
iter: 155 11:07:07  -969.411729c -5.46  -3.30    +89.7834
iter: 156 11:09:47  -969.411960c -5.72  -3.49    +89.7966
iter: 157 11:12:25  -969.525388c -4.48  -3.50    +89.8073
iter: 158 11:15:04  -969.411874c -4.65  -2.71    +89.8313
iter: 159 11:17:43  -969.423998c -4.99  -3.46    +89.8191
iter: 160 11:20:24  -969.406257c -5.30  -3.13    +89.8142
iter: 161 11:23:04  -969.405992c -5.76  -3.69    +89.8559
iter: 162 11:25:43  -969.405992c -6.00  -4.02c   +89.9131
iter: 163 11:28:24  -969.408308c -5.57  -4.10c   +90.0232
iter: 164 11:31:05  -969.409400c -5.78  -3.78    +90.1039
iter: 165 11:33:45  -969.410920c -5.64  -3.76    +90.1684
iter: 166 11:36:27  -969.410427c -6.94  -3.70    +90.1380
iter: 167 11:39:08  -969.411039c -6.41  -3.79    +90.1240
iter: 168 11:41:49  -969.413962c -5.58  -3.70    +90.1091
iter: 169 11:44:30  -969.432650c -5.20  -3.30    +90.1000
iter: 170 11:47:12  -969.410982c -5.16  -3.06    +90.0475
iter: 171 11:49:55  -969.421044c -4.90  -3.42    +90.1047
iter: 172 11:52:37  -969.435894c -4.64  -3.23    +90.0903
iter: 173 11:55:19  -969.410217c -5.00  -3.02    +90.0683
iter: 174 11:58:01  -969.409997c -5.42  -3.48    +90.0399
iter: 175 12:00:43  -969.412737c -5.43  -3.60    +90.0497
iter: 176 12:03:25  -969.410661c -5.54  -3.48    +90.0015
iter: 177 12:06:06  -969.409536c -5.55  -3.50    +89.9790
iter: 178 12:08:47  -969.413741c -5.31  -3.70    +89.9695
iter: 179 12:11:28  -969.411260c -5.34  -3.31    +89.9710
iter: 180 12:14:08  -969.407718c -5.96  -3.48    +89.9801
iter: 181 12:16:49  -969.407507c -6.30  -4.21c   +89.9922
iter: 182 12:19:30  -969.407910c -6.30  -4.04c   +90.0360
iter: 183 12:22:11  -969.407813c -6.63  -3.90    +90.0406
iter: 184 12:24:52  -969.407407c -6.35  -4.23c   +90.0470
iter: 185 12:27:33  -969.408300c -6.30  -3.83    +90.0488
iter: 186 12:30:13  -969.407208c -6.40  -3.74    +90.0432
iter: 187 12:32:54  -969.407103c -6.79  -4.19c   +90.0321
iter: 188 12:35:35  -969.407363c -6.95  -4.37c   +90.0386
iter: 189 12:38:15  -969.407415c -7.24  -4.40c   +90.0302
iter: 190 12:40:56  -969.407421c -7.03  -4.35c   +90.0229
iter: 191 12:43:37  -969.407434c -6.79  -4.31c   +90.0297
iter: 192 12:46:19  -969.407311c -6.52  -3.97    +90.0202
iter: 193 12:48:59  -969.407013c -6.93  -3.93    +90.0300
iter: 194 12:51:39  -969.407194c -7.15  -4.34c   +90.0391
iter: 195 12:54:21  -969.407947c -6.68  -4.36c   +90.0381
iter: 196 12:57:00  -969.408156c -6.19  -4.09c   +90.0348
iter: 197 12:59:36  -969.408531c -6.15  -3.67    +90.0362
iter: 198 13:02:15  -969.407565c -6.52  -3.70    +90.0426
iter: 199 13:04:56  -969.407289c -7.00  -4.13c   +90.0333
iter: 200 13:07:35  -969.407332c -7.17  -4.50c   +90.0394
iter: 201 13:10:16  -969.407583c -6.93  -4.33c   +90.0367
iter: 202 13:12:57  -969.407040c -6.65  -4.05c   +90.0464
iter: 203 13:15:37  -969.407188c -6.77  -4.06c   +90.0645
iter: 204 13:18:17  -969.407167c -7.15  -4.16c   +90.0607
iter: 205 13:20:58  -969.407326c -7.07  -4.45c   +90.0556
iter: 206 13:23:39  -969.407015c -7.40  -4.22c   +90.0563
iter: 207 13:26:19  -969.407302c -7.40c -4.57c   +90.0577

Converged after 207 iterations.

Dipole moment: (23.505506, 17.264394, -0.060158) |e|*Ang

Total magnetic moment: (0.000000, 0.000000, 90.057693)
Local magnetic moments:
   0 Cr ( 0.000000,  0.000000, -2.528130)
   1 Fe ( 0.000000,  0.000000,  2.443671)
   2 Ni ( 0.000000,  0.000000,  0.475382)
   3 Co ( 0.000000,  0.000000,  0.753296)
   4 Ni ( 0.000000,  0.000000,  0.379979)
   5 Cr ( 0.000000,  0.000000, -2.967097)
   6 Fe ( 0.000000,  0.000000,  2.947197)
   7 Cr ( 0.000000,  0.000000, -1.396257)
   8 Cr ( 0.000000,  0.000000, -0.984082)
   9 Cr ( 0.000000,  0.000000,  2.221373)
  10 Ni ( 0.000000,  0.000000,  0.307074)
  11 Cr ( 0.000000,  0.000000, -0.465364)
  12 Cr ( 0.000000,  0.000000,  1.939430)
  13 Cr ( 0.000000,  0.000000, -2.771809)
  14 Fe ( 0.000000,  0.000000,  2.723298)
  15 Cr ( 0.000000,  0.000000, -1.772088)
  16 Ni ( 0.000000,  0.000000,  0.060986)
  17 Ni ( 0.000000,  0.000000,  0.304301)
  18 Fe ( 0.000000,  0.000000,  2.679581)
  19 Cr ( 0.000000,  0.000000, -3.294049)
  20 Cr ( 0.000000,  0.000000,  2.188998)
  21 Ni ( 0.000000,  0.000000,  0.173745)
  22 Cr ( 0.000000,  0.000000, -2.697350)
  23 Ni ( 0.000000,  0.000000,  0.448545)
  24 Fe ( 0.000000,  0.000000,  2.316323)
  25 Co ( 0.000000,  0.000000,  0.804503)
  26 Co ( 0.000000,  0.000000,  1.510138)
  27 Co ( 0.000000,  0.000000,  1.498302)
  28 Cr ( 0.000000,  0.000000, -0.827401)
  29 Fe ( 0.000000,  0.000000,  1.957267)
  30 Fe ( 0.000000,  0.000000,  2.280382)
  31 Co ( 0.000000,  0.000000,  1.696307)
  32 Fe ( 0.000000,  0.000000,  1.838971)
  33 Cr ( 0.000000,  0.000000, -0.123290)
  34 Fe ( 0.000000,  0.000000,  2.027784)
  35 Ni ( 0.000000,  0.000000,  0.430171)
  36 Ni ( 0.000000,  0.000000,  0.291508)
  37 Cr ( 0.000000,  0.000000,  0.242592)
  38 Fe ( 0.000000,  0.000000,  1.110280)
  39 Cr ( 0.000000,  0.000000, -1.641341)
  40 Fe ( 0.000000,  0.000000,  2.107069)
  41 Ni ( 0.000000,  0.000000,  0.206830)
  42 Co ( 0.000000,  0.000000,  1.375605)
  43 Ni ( 0.000000,  0.000000,  0.491992)
  44 Co ( 0.000000,  0.000000,  1.349799)
  45 Cr ( 0.000000,  0.000000, -0.987375)
  46 Ni ( 0.000000,  0.000000,  0.287994)
  47 Co ( 0.000000,  0.000000,  1.491330)
  48 Ni ( 0.000000,  0.000000,  0.495597)
  49 Fe ( 0.000000,  0.000000,  2.011531)
  50 Co ( 0.000000,  0.000000,  1.413651)
  51 Fe ( 0.000000,  0.000000,  2.556298)
  52 Cr ( 0.000000,  0.000000, -1.903464)
  53 Fe ( 0.000000,  0.000000,  2.112806)
  54 Cr ( 0.000000,  0.000000, -1.465734)
  55 Fe ( 0.000000,  0.000000,  2.721857)
  56 Co ( 0.000000,  0.000000,  1.505890)
  57 Co ( 0.000000,  0.000000,  1.227954)
  58 Co ( 0.000000,  0.000000,  1.260142)
  59 Cr ( 0.000000,  0.000000, -1.312953)
  60 Co ( 0.000000,  0.000000,  1.570312)
  61 Cr ( 0.000000,  0.000000, -1.587969)
  62 Co ( 0.000000,  0.000000,  1.030168)
  63 Fe ( 0.000000,  0.000000,  2.071052)
  64 Co ( 0.000000,  0.000000,  1.298092)
  65 Fe ( 0.000000,  0.000000,  2.037843)
  66 Ni ( 0.000000,  0.000000,  0.205990)
  67 Cr ( 0.000000,  0.000000, -2.241496)
  68 Fe ( 0.000000,  0.000000,  2.290827)
  69 Cr ( 0.000000,  0.000000, -1.890983)
  70 Cr ( 0.000000,  0.000000,  0.728631)
  71 Ni ( 0.000000,  0.000000,  0.512069)
  72 Ni ( 0.000000,  0.000000,  0.243657)
  73 Co ( 0.000000,  0.000000,  1.116265)
  74 Fe ( 0.000000,  0.000000,  1.582856)
  75 Fe ( 0.000000,  0.000000,  2.327904)
  76 Ni ( 0.000000,  0.000000,  0.676544)
  77 Ni ( 0.000000,  0.000000,  0.673721)
  78 Fe ( 0.000000,  0.000000,  2.372143)
  79 Co ( 0.000000,  0.000000,  1.488638)
  80 Co ( 0.000000,  0.000000,  1.432210)
  81 Fe ( 0.000000,  0.000000,  2.739056)
  82 Ni ( 0.000000,  0.000000,  0.622380)
  83 Co ( 0.000000,  0.000000,  1.768678)
  84 Fe ( 0.000000,  0.000000,  2.268128)
  85 Ni ( 0.000000,  0.000000,  0.429433)
  86 Ni ( 0.000000,  0.000000,  0.520052)
  87 Co ( 0.000000,  0.000000,  1.587688)
  88 Fe ( 0.000000,  0.000000,  2.290083)
  89 Fe ( 0.000000,  0.000000,  2.060552)
  90 Fe ( 0.000000,  0.000000,  2.271771)
  91 Co ( 0.000000,  0.000000,  1.621225)
  92 Ni ( 0.000000,  0.000000,  0.426835)
  93 Fe ( 0.000000,  0.000000,  2.149771)
  94 Fe ( 0.000000,  0.000000,  1.802407)
  95 Co ( 0.000000,  0.000000,  1.551731)
  96 Co ( 0.000000,  0.000000,  1.764324)
  97 Fe ( 0.000000,  0.000000,  2.646667)
  98 Co ( 0.000000,  0.000000,  1.535583)
  99 Fe ( 0.000000,  0.000000,  2.299053)
 100 Co ( 0.000000,  0.000000,  1.863189)
 101 Co ( 0.000000,  0.000000,  1.914640)
 102 Ni ( 0.000000,  0.000000,  0.530827)
 103 Fe ( 0.000000,  0.000000,  2.753934)
 104 Co ( 0.000000,  0.000000,  1.747748)
 105 Co ( 0.000000,  0.000000,  1.559327)
 106 Ni ( 0.000000,  0.000000,  0.713721)
 107 Fe ( 0.000000,  0.000000,  2.722861)
 108 Ni ( 0.000000,  0.000000,  0.660019)
 109 Cr ( 0.000000,  0.000000, -2.284910)
 110 Co ( 0.000000,  0.000000,  1.672081)
 111 Ni ( 0.000000,  0.000000,  0.606783)
 112 Ni ( 0.000000,  0.000000,  0.503170)
 113 Ni ( 0.000000,  0.000000,  0.199091)
 114 Cr ( 0.000000,  0.000000,  0.793009)
 115 Cr ( 0.000000,  0.000000, -2.850473)
 116 Ni ( 0.000000,  0.000000,  0.481231)
 117 Cr ( 0.000000,  0.000000, -2.258090)
 118 Co ( 0.000000,  0.000000,  1.192711)
 119 Cr ( 0.000000,  0.000000,  2.083697)
 120 Ni ( 0.000000,  0.000000,  0.263137)
 121 Ni ( 0.000000,  0.000000,  0.602638)
 122 Co ( 0.000000,  0.000000,  1.597099)
 123 Cr ( 0.000000,  0.000000, -3.181658)
 124 Cr ( 0.000000,  0.000000, -2.018972)

Energy contributions relative to reference atoms: (reference = -4451268.207082)

Kinetic:       +280.230097
Potential:     -323.518451
External:        +0.000000
XC:            -967.314255
Entropy (-ST):   -5.816914
Local:          +44.103764
--------------------------
Free energy:   -972.315759
Extrapolated:  -969.407302

Dipole-layer corrected work functions: 4.628203, 4.709343 eV

Spin contamination: 53.947177 electrons
Showing all kpts
                      Up                     Down
 Kpt  Band  Eigenvalues  Occupancy  Eigenvalues  Occupancy
  0   606      0.05591    0.99893      1.10328    0.02581
  0   607      0.06680    0.99881      1.11312    0.02345
  0   608      0.07825    0.99867      1.11682    0.02262
  0   609      0.09314    0.99845      1.11946    0.02204

  1   606      0.07535    0.99871      1.11208    0.02369
  1   607      0.08144    0.99862      1.11775    0.02241
  1   608      0.09575    0.99841      1.12573    0.02073
  1   609      0.10869    0.99819      1.13370    0.01917


Fermi level: 0.74021

No gap

Forces in eV/Ang:
  0 Cr   -1.16987    0.33098    0.12487
  1 Fe    0.36071    0.11498    0.06470
  2 Ni   -0.68695    0.28541    0.55354
  3 Co    0.25103    0.10234   -0.86271
  4 Ni   -0.00992    0.26509    1.79906
  5 Cr   -0.01992    1.00085    0.61427
  6 Fe    0.94139   -0.71380    1.05051
  7 Cr   -0.63586    0.10238   -0.17319
  8 Cr   -0.13614   -0.66275   -0.66505
  9 Cr    0.66944   -0.53305   -0.64014
 10 Ni    0.37826   -0.72232    0.42502
 11 Cr   -0.63677   -0.79207   -0.32158
 12 Cr    0.66542    0.24455    0.38838
 13 Cr    0.58023    0.18832    0.39650
 14 Fe    0.45853   -0.54840    0.17645
 15 Cr    0.20203    0.62598   -0.63892
 16 Ni   -0.13062    1.10648    0.37354
 17 Ni   -0.14562    0.13977    0.77899
 18 Fe    0.13381    0.66558    0.00811
 19 Cr   -0.61511    0.12259    0.47720
 20 Cr   -0.94067   -0.12871   -1.27405
 21 Ni   -1.02373   -0.39833    0.79297
 22 Cr    1.21006    0.27944   -0.51627
 23 Ni    0.41470   -1.34442   -0.15683
 24 Fe    1.01665    1.29999   -1.71687
 25 Co   -0.39885    2.64971    0.24905
 26 Co   -0.15170    0.73757   -1.76713
 27 Co    0.87740    1.03849   -0.03015
 28 Cr    1.15491    0.37673   -0.75118
 29 Fe    0.25602    0.14159    0.35459
 30 Fe   -0.06001    0.72752   -0.47932
 31 Co   -0.55633    0.97025    0.33626
 32 Fe   -0.65963    0.15405    0.08133
 33 Cr    0.69192    0.40128   -0.13022
 34 Fe    0.17005    0.81058   -0.45192
 35 Ni   -0.04611    0.47031   -0.69253
 36 Ni    0.15019    0.26355    0.25255
 37 Cr   -1.58779   -0.29450   -0.54826
 38 Fe    0.66141    0.90859   -0.18033
 39 Cr    0.71977   -0.30995   -0.63869
 40 Fe   -0.95226   -0.25370    1.16521
 41 Ni   -0.47199   -1.41876   -0.24682
 42 Co   -0.06725   -0.65102   -0.11275
 43 Ni   -2.35700    0.18243    0.92974
 44 Co    1.71592   -1.26746    0.39574
 45 Cr   -1.17289   -1.48829    0.47735
 46 Ni    1.18054    0.38430   -1.23629
 47 Co    0.44380   -0.99109   -0.13718
 48 Ni   -1.36304    0.97895    0.45204
 49 Fe    0.43143   -0.12156    0.58875
 50 Co   -0.13558    0.08679    0.72917
 51 Fe    0.15645    1.27345   -1.02375
 52 Cr   -1.04665   -0.67445    0.80235
 53 Fe    0.06839   -0.25021   -0.63170
 54 Cr    0.22904   -0.67812   -0.52247
 55 Fe    0.80203   -0.29047    0.31032
 56 Co    0.67977    0.43636   -0.36776
 57 Co   -1.04115   -0.70034    0.81324
 58 Co    0.80627    0.09823    1.67184
 59 Cr    0.58202   -0.50714    0.41598
 60 Co    0.38351   -0.81429   -0.91392
 61 Cr   -1.20229   -1.03202    0.47300
 62 Co    1.53703   -1.45104    0.66092
 63 Fe   -0.73880   -0.49142    0.56576
 64 Co    1.61369   -0.01563   -0.00943
 65 Fe    1.50641   -0.46758    0.38202
 66 Ni   -0.14252    0.08883    0.93607
 67 Cr   -0.30832    0.48716    0.01460
 68 Fe   -0.20382   -0.83615    0.16490
 69 Cr   -0.86857   -0.16835   -0.55182
 70 Cr    0.93626    1.65211    0.40933
 71 Ni   -1.06350   -2.01093    1.03989
 72 Ni   -3.12269    0.23979    0.74505
 73 Co   -0.38357   -0.57803    0.20229
 74 Fe   -0.36191    0.97476    0.01206
 75 Fe   -0.18316   -0.26093   -1.03869
 76 Ni   -0.42736   -2.24072    0.22271
 77 Ni   -0.47828    0.20727   -0.26524
 78 Fe    0.58739    0.90966   -0.60900
 79 Co    0.26908    1.28688    1.48962
 80 Co   -1.19257    1.33398   -1.10666
 81 Fe    0.08688    1.38738    1.17219
 82 Ni   -0.58013   -0.05267   -0.63513
 83 Co    0.86696    1.63875   -1.32981
 84 Fe   -0.61725   -0.34977   -0.63017
 85 Ni    0.94708   -1.38283    1.55166
 86 Ni   -0.27794   -0.01093   -1.23294
 87 Co    0.25579   -0.28804   -0.62493
 88 Fe   -0.00101   -1.03112   -0.17411
 89 Fe   -1.24144   -0.96367   -0.35241
 90 Fe    0.19027   -0.09892   -0.03402
 91 Co    1.23844   -0.72591   -0.13079
 92 Ni    0.12158    1.20939   -0.63462
 93 Fe   -0.07252    0.42408   -0.81990
 94 Fe   -0.74585    0.71054    0.24265
 95 Co    0.46206   -0.35751    0.62870
 96 Co    0.20141   -0.10132    0.34386
 97 Fe    0.27935    1.00751    0.49799
 98 Co    0.86570   -0.49428    0.73233
 99 Fe    0.67676    0.26472   -0.70598
100 Co   -0.03907    0.00354   -1.09700
101 Co   -0.62706    0.33771   -0.54893
102 Ni   -0.14144   -0.02309   -1.14796
103 Fe   -0.46553   -0.35464   -0.01880
104 Co    1.00995   -0.88639   -0.71745
105 Co    1.06304   -0.23396    0.64540
106 Ni   -1.19515    0.06767   -0.50854
107 Fe    1.01893   -1.26887    0.50771
108 Ni   -0.24482   -0.52920    1.46446
109 Cr   -0.51238   -0.80215    0.49355
110 Co    0.49501   -0.25897   -0.65152
111 Ni   -1.36364    1.56975    0.25764
112 Ni    0.87667    0.36165   -0.08192
113 Ni    0.49160   -1.79723    0.11312
114 Cr    0.21726   -0.14729    0.46842
115 Cr   -0.11908   -1.16859   -0.13204
116 Ni    0.48156   -0.43946   -0.98040
117 Cr   -1.23603    1.73039    1.01519
118 Co    0.17454    0.43756   -0.93359
119 Cr    0.38249   -0.23941    0.31895
120 Ni    1.35376    1.03341    0.62374
121 Ni    0.04934    0.46339   -1.39981
122 Co   -0.59438   -0.34950    1.17219
123 Cr    0.02260   -0.27875   -0.68579
124 Cr   -0.74325    0.95411    0.11262

Timing:                              incl.     excl.
-----------------------------------------------------------
Forces:                             40.173    40.173   0.1% |
Hamiltonian:                         1.327     0.009   0.0% |
 Atomic:                             0.374     0.001   0.0% |
  XC Correction:                     0.372     0.372   0.0% |
 Calculate atomic Hamiltonians:      0.427     0.427   0.0% |
 Communicate:                        0.129     0.129   0.0% |
 Initialize Hamiltonian:             0.000     0.000   0.0% |
 Poisson:                            0.084     0.084   0.0% |
 XC 3D grid:                         0.304     0.304   0.0% |
LCAO initialization:               261.853     0.411   0.0% |
 LCAO eigensolver:                  13.289     0.011   0.0% |
  Calculate projections:             0.000     0.000   0.0% |
  DenseAtomicCorrection:             0.000     0.000   0.0% |
  Distribute overlap matrix:         7.956     7.956   0.0% |
  Orbital Layouts:                   5.155     5.155   0.0% |
  Potential matrix:                  0.003     0.003   0.0% |
  Sum over cells:                    0.163     0.163   0.0% |
 LCAO to grid:                     245.926   245.926   0.8% |
 Set positions (LCAO WFS):           2.228     1.950   0.0% |
  Basic WFS set positions:           0.004     0.004   0.0% |
  Basis functions set positions:     0.001     0.001   0.0% |
  P tci:                             0.000     0.000   0.0% |
  ST tci:                            0.108     0.108   0.0% |
  mktci:                             0.165     0.165   0.0% |
PWDescriptor:                        0.088     0.088   0.0% |
SCF-cycle:                       32183.387  1014.973   3.1% ||
 Davidson:                       30535.111  9550.584  29.4% |-----------|
  Apply H:                         489.905   481.724   1.5% ||
   HMM T:                            8.180     8.180   0.0% |
  Subspace diag:                  3370.605     0.066   0.0% |
   calc_h_matrix:                 1351.488   883.360   2.7% ||
    Apply H:                       468.128   458.914   1.4% ||
     HMM T:                          9.214     9.214   0.0% |
   diagonalize:                    324.324   324.324   1.0% |
   rotate_psi:                    1694.728  1694.728   5.2% |-|
  calc. matrices:                 7783.842  6995.362  21.5% |--------|
   Apply H:                        788.480   771.925   2.4% ||
    HMM T:                          16.555    16.555   0.1% |
  diagonalize:                    5736.799  5736.799  17.7% |------|
  rotate_psi:                     3603.377  3603.377  11.1% |---|
 Density:                          347.020     0.006   0.0% |
  Atomic density matrices:           5.135     5.135   0.0% |
  Mix:                             116.162   116.162   0.4% |
  Multipole moments:                 0.146     0.146   0.0% |
  Pseudo density:                  225.572   225.563   0.7% |
   Symmetrize density:               0.009     0.009   0.0% |
 Hamiltonian:                      268.186     1.937   0.0% |
  Atomic:                           80.024     0.250   0.0% |
   XC Correction:                   79.775    79.775   0.2% |
  Calculate atomic Hamiltonians:    89.962    89.962   0.3% |
  Communicate:                      26.832    26.832   0.1% |
  Poisson:                           6.977     6.977   0.0% |
  XC 3D grid:                       62.454    62.454   0.2% |
 Orthonormalize:                    18.096     0.000   0.0% |
  calc_s_matrix:                     2.265     2.265   0.0% |
  inverse-cholesky:                  0.917     0.917   0.0% |
  projections:                      10.899    10.899   0.0% |
  rotate_psi_s:                      4.015     4.015   0.0% |
Set symmetry:                        0.001     0.001   0.0% |
Other:                               6.375     6.375   0.0% |
-----------------------------------------------------------
Total:                                     32493.204 100.0%

Date: Mon Apr 17 13:27:03 2023
