
  ___ ___ ___ _ _ _  
 |   |   |_  | | | | 
 | | | | | . | | | | 
 |__ |  _|___|_____|  22.8.0
 |___|_|             

User:   c.zeng@d0047
Date:   Tue Apr 18 06:33:35 2023
Arch:   x86_64
Pid:    195432
CWD:    /home/c.zeng/projects/hea-corrosion/hea-mlp/data-curation/surface-mcmc/dft-jobs/27
Python: 3.8.1
gpaw:   /home/c.zeng/usr/installs/gpaw/source/gpaw-22.8.0/gpaw
_gpaw:  /home/c.zeng/usr/installs/gpaw/source/gpaw-22.8.0/
        _gpaw.cpython-38-x86_64-linux-gnu.so
ase:    /home/c.zeng/.local/lib/python3.8/site-packages/ase-3.22.1-py3.8.egg/ase (version 3.22.1)
numpy:  /home/c.zeng/.local/lib/python3.8/site-packages/numpy (version 1.24.2)
scipy:  /home/c.zeng/.local/lib/python3.8/site-packages/scipy (version 1.10.1)
libxc:  4.2.3
units:  Angstrom and eV
cores: 30
OpenMP: False
OMP_NUM_THREADS: 1

Input parameters:
  convergence: {energy: 0.0001}
  kpts: [2 2 1]
  maxiter: 666
  mode: {ecut: 350.0,
         name: pw}
  occupations: {fixmagmom: False,
                name: fermi-dirac,
                width: 0.1}
  poissonsolver: {dipolelayer: xy}
  spinpol: True
  symmetry: {point_group: False}
  xc: PBE

System changes: positions, numbers, cell, pbc, initial_charges, initial_magmoms 

Initialize ...

species:
  Cr:
    name: Chromium
    id: 33f258bda2ca9f93018e70263a35547b
    Z: 24.0
    valence: 6
    core: 18
    charge: 0.0
    file: /home/c.zeng/usr/data/gpaw-setups-0.9.20000/Cr.PBE.gz
    compensation charges: {type: gauss,
                           rc: 0.35,
                           lmax: 2}
    cutoffs: {filter: 2.14,
              core: 3.04}
    valence states:
      #              energy  rcut
      - 4s(1.00)    -4.007   1.164
      - 4p(0.00)    -0.989   1.217
      - 3d(5.00)    -2.913   1.111
      -  s          23.205   1.164
      -  p          26.223   1.217
      -  d          24.299   1.111
  
    # Using partial waves for Cr as LCAO basis

  Co:
    name: Cobalt
    id: 339d20d5b0b93d2de9531a1bee871d91
    Z: 27.0
    valence: 9
    core: 18
    charge: 0.0
    file: /home/c.zeng/usr/data/gpaw-setups-0.9.20000/Co.PBE.gz
    compensation charges: {type: gauss,
                           rc: 0.32,
                           lmax: 2}
    cutoffs: {filter: 1.87,
              core: 2.55}
    valence states:
      #              energy  rcut
      - 4s(2.00)    -5.469   1.005
      - 4p(0.00)    -1.277   1.058
      - 3d(7.00)    -8.205   1.005
      -  s          21.742   1.005
      -  p          25.934   1.058
      -  d          19.007   1.005
  
    # Using partial waves for Co as LCAO basis

  Ni:
    name: Nickel
    id: 0d9f38a9d6e76a2886f07bb4381f212b
    Z: 28.0
    valence: 16
    core: 12
    charge: 0.0
    file: /home/c.zeng/usr/data/gpaw-setups-0.9.20000/Ni.PBE.gz
    compensation charges: {type: gauss,
                           rc: 0.36,
                           lmax: 2}
    cutoffs: {filter: 2.14,
              core: 1.98}
    valence states:
      #              energy  rcut
      - 4s(2.00)    -5.642   1.164
      - 3p(6.00)   -71.394   1.207
      - 4p(0.00)    -1.226   1.207
      - 3d(8.00)    -8.875   1.138
      -  s          21.570   1.164
      -  d          18.337   1.138
  
    # Using partial waves for Ni as LCAO basis

  Fe:
    name: Iron
    id: 37abbd8d6c3c35915a9b583b742da910
    Z: 26.0
    valence: 8
    core: 18
    charge: 0.0
    file: /home/c.zeng/usr/data/gpaw-setups-0.9.20000/Fe.PBE.gz
    compensation charges: {type: gauss,
                           rc: 0.33,
                           lmax: 2}
    cutoffs: {filter: 2.06,
              core: 2.67}
    valence states:
      #              energy  rcut
      - 4s(2.00)    -5.291   1.164
      - 4p(0.00)    -1.326   1.058
      - 3d(6.00)    -7.505   1.058
      -  s          21.920   1.164
      -  p          25.885   1.058
      -  d          19.706   1.058
  
    # Using partial waves for Fe as LCAO basis

Reference energy: -4451268.207082  # eV

Spin-polarized calculation.
Magnetic moment: 175.600000

Convergence criteria:
 Maximum [total energy] change in last 3 cyles: 0.0001 eV / electron
 Maximum integral of absolute [dens]ity change: 0.0001 electrons / valence electron
 Maximum integral of absolute [eigenst]ate change: 4e-08 eV^2 / valence electron
 Maximum number of scf [iter]ations: 666
 (Square brackets indicate name in SCF output, whereas a 'c' in
 the SCF output indicates the quantity has converged.)

Symmetries present (total): 1

  ( 1  0  0)
  ( 0  1  0)
  ( 0  0  1)

4 k-points: 2 x 2 x 1 Monkhorst-Pack grid
2 k-points in the irreducible part of the Brillouin zone
       k-points in crystal coordinates                weights
   0:     0.25000000   -0.25000000    0.00000000          2/4
   1:     0.25000000    0.25000000    0.00000000          2/4

Wave functions: Plane wave expansion
  Cutoff energy: 350.000 eV
  Number of coefficients (min, max): 58495, 58567
  Pulay-stress correction: 0.000000 eV/Ang^3 (de/decut=0.000000)
  Using FFTW library
  ScaLapack parameters: grid=1x1, blocksize=None
  Wavefunction extrapolation:
    Improved wavefunction reuse through dual PAW basis 

Occupation numbers: Fermi-Dirac:
  width: 0.1000  # eV
 

Eigensolver
   Davidson(niter=2) 

Densities:
  Coarse grid: 54*54*128 grid
  Fine grid: 108*108*256 grid
  Total Charge: 0.000000 

Density mixing:
  Method: difference
  Backend: pulay
  Linear mixing parameter: 0.05
  old densities: 5
  Damping of long wavelength oscillations: 50 

Hamiltonian:
  XC and Coulomb potentials evaluated on a 108*108*256 grid
  Using the PBE Exchange-Correlation functional
  External potential:
    NoExternalPotential
 

XC parameters: PBE with 2 nearest neighbor stencil

Memory estimate:
  Process memory now: 369.93 MiB
  Calculator: 2405.48 MiB
    Density: 16.73 MiB
      Arrays: 6.75 MiB
      Localized functions: 7.29 MiB
      Mixer: 2.70 MiB
    Hamiltonian: 5.22 MiB
      Arrays: 5.01 MiB
      XC: 0.00 MiB
      Poisson: 0.00 MiB
      vbar: 0.21 MiB
    Wavefunctions: 2383.52 MiB
      Arrays psit_nG: 1501.35 MiB
      Eigensolver: 862.84 MiB
      Projections: 3.85 MiB
      Projectors: 0.98 MiB
      PW-descriptor: 14.51 MiB

Total number of cores used: 30
Parallelization over k-points: 2
Domain decomposition: 1 x 3 x 5

Number of atoms: 125
Number of atomic orbitals: 1218
Number of bands in calculation: 840
Number of valence electrons: 1217
Bands to converge: occupied

... initialized

Initializing position-dependent things.

Density initialized from atomic densities
Creating initial wave functions:
  840 bands from LCAO basis set

                                                                  
                                                                  
                                                                  
                                                                  
                                   Co    Co           Ni          
                         Ni    Ni    Co    Fe    Cr               
                    Co    Cr     Cr    Ni    Co                   
                                Fe    Ni    Ni    Cr    Co        
                Cr    Ni   NCr   CCo    NCo   Fe    Fe            
            Co    Ni   FCo   NCo   FNi   Fe     Ni                
       Ni                 CoCr    Cr     Cr    Co    Fe           
                   Fe   FFe   FCo   FNi   CCo   Cr    Cr          
              Ni   FFe    CNi   FFe   CFe   Ni                    
                               Ni    Ni    Cr    Fe    Cr         
               Cr   CFe   FCr   NFNi  CCNi  CCo   Co    Cr        
           Cr   CNi   FFe  CNCr   NFe   CFe         Co            
            Fe    Co          Fe    Cr        Ni                  
                       CNi   Fe    Cr    Ni     Cr                
             Fe    Cr    CFe   Co    CCo   Ni                     
              Co    Co    Cr     Ni    Cr                         
                                                                  
                                                                  
                                                                  
                                                                  
                                                                  

Positions:
   0 Cr    12.462288    1.423821   10.629080    ( 0.0000,  0.0000,  0.0000)
   1 Co     2.499576    1.440301   10.626527    ( 0.0000,  0.0000,  2.0000)
   2 Co     4.968611    1.438835   10.615079    ( 0.0000,  0.0000,  1.5000)
   3 Cr     7.462726    1.421460   10.639178    ( 0.0000,  0.0000,  2.1000)
   4 Ni     9.958813    1.440808   10.614286    ( 0.0000,  0.0000,  1.5000)
   5 Ni    13.701699    3.595687   10.631928    ( 0.0000,  0.0000,  0.0000)
   6 Fe     3.731720    3.588498   10.658463    ( 0.0000,  0.0000,  2.0000)
   7 Cr     6.206181    3.578862   10.616048    ( 0.0000,  0.0000,  0.0000)
   8 Co     8.708678    3.588487   10.610441    ( 0.0000,  0.0000,  0.0000)
   9 Co    11.213254    3.596560   10.610265    ( 0.0000,  0.0000,  0.0000)
  10 Cr    14.928341    5.748260   10.633307    ( 0.0000,  0.0000,  1.5000)
  11 Co     4.975718    5.742741   10.620568    ( 0.0000,  0.0000,  0.0000)
  12 Fe     7.478433    5.755029   10.612261    ( 0.0000,  0.0000,  0.0000)
  13 Cr     9.958968    5.766540   10.606596    ( 0.0000,  0.0000,  0.0000)
  14 Ni    12.428955    5.759114   10.623679    ( 0.0000,  0.0000,  2.0000)
  15 Co    16.172575    7.907763   10.614962    ( 0.0000,  0.0000,  0.0000)
  16 Co     6.230875    7.897556   10.631399    ( 0.0000,  0.0000,  1.5000)
  17 Co     8.712063    7.918800   10.624912    ( 0.0000,  0.0000,  1.5000)
  18 Cr    11.196407    7.900649   10.627583    ( 0.0000,  0.0000,  2.0000)
  19 Ni    13.685743    7.894915   10.608768    ( 0.0000,  0.0000,  0.0000)
  20 Cr    17.413095   10.061737   10.609531    ( 0.0000,  0.0000,  0.0000)
  21 Ni     7.473454   10.060875   10.626761    ( 0.0000,  0.0000,  1.5000)
  22 Co     9.959304   10.058201   10.606068    ( 0.0000,  0.0000,  0.0000)
  23 Co    12.452485   10.052985   10.619834    ( 0.0000,  0.0000,  1.5000)
  24 Co    14.933506   10.061047   10.614433    ( 0.0000,  0.0000,  2.0000)
  25 Co    12.449050   -0.000629   12.627234    ( 0.0000,  0.0000,  2.1000)
  26 Fe     2.492433    0.000558   12.634954    ( 0.0000,  0.0000,  2.1000)
  27 Cr     4.974333    0.000141   12.611941    ( 0.0000,  0.0000,  2.1000)
  28 Fe     7.468637   -0.006559   12.638564    ( 0.0000,  0.0000,  0.0000)
  29 Cr    16.167928   10.788301   12.619514    ( 0.0000,  0.0000,  2.0000)
  30 Fe     1.266555    2.151225   12.633662    ( 0.0000,  0.0000,  2.0000)
  31 Co     3.735748    2.148121   12.651127    ( 0.0000,  0.0000,  2.1000)
  32 Ni     6.204229    2.151322   12.625297    ( 0.0000,  0.0000,  2.0000)
  33 Fe     8.713864    2.159169   12.632341    ( 0.0000,  0.0000,  0.0000)
  34 Cr    11.209280    2.157261   12.630668    ( 0.0000,  0.0000,  2.0000)
  35 Cr     2.491537    4.311041   12.649513    ( 0.0000,  0.0000,  1.5000)
  36 Fe     4.975141    4.309004   12.661988    ( 0.0000,  0.0000,  1.5000)
  37 Ni     7.471546    4.302515   12.629612    ( 0.0000,  0.0000,  0.0000)
  38 Ni     9.959331    4.321389   12.624211    ( 0.0000,  0.0000,  2.0000)
  39 Fe    12.447216    4.322736   12.648779    ( 0.0000,  0.0000,  0.0000)
  40 Cr     3.727002    6.455713   12.638564    ( 0.0000,  0.0000,  2.0000)
  41 Fe     6.230130    6.458548   12.645726    ( 0.0000,  0.0000,  1.5000)
  42 Fe     8.722502    6.475815   12.624504    ( 0.0000,  0.0000,  2.1000)
  43 Co    11.197735    6.469758   12.643995    ( 0.0000,  0.0000,  1.5000)
  44 Co    13.683348    6.470059   12.640003    ( 0.0000,  0.0000,  2.1000)
  45 Cr    17.413993    8.621565   12.620189    ( 0.0000,  0.0000,  0.0000)
  46 Ni     7.471608    8.621834   12.638564    ( 0.0000,  0.0000,  1.5000)
  47 Ni     9.955597    8.628593   12.628115    ( 0.0000,  0.0000,  2.1000)
  48 Cr    12.449432    8.615173   12.619279    ( 0.0000,  0.0000,  1.5000)
  49 Fe    14.929575    8.617340   12.626089    ( 0.0000,  0.0000,  2.0000)
  50 Cr     1.254097    0.717223   14.680102    ( 0.0000,  0.0000,  2.1000)
  51 Ni     3.731090    0.711950   14.670063    ( 0.0000,  0.0000,  2.0000)
  52 Fe     6.214925    0.718289   14.674818    ( 0.0000,  0.0000,  0.0000)
  53 Cr     8.714063    0.718519   14.689084    ( 0.0000,  0.0000,  2.0000)
  54 Fe    11.204771    0.717512   14.682421    ( 0.0000,  0.0000,  0.0000)
  55 Cr     2.496837    2.862958   14.687264    ( 0.0000,  0.0000,  2.0000)
  56 Fe     4.979214    2.867151   14.683800    ( 0.0000,  0.0000,  2.1000)
  57 Cr     7.478991    2.885690   14.679133    ( 0.0000,  0.0000,  2.1000)
  58 Ni     9.958294    2.881486   14.688056    ( 0.0000,  0.0000,  2.1000)
  59 Ni    12.441997    2.882424   14.688409    ( 0.0000,  0.0000,  0.0000)
  60 Fe     3.731806    5.017201   14.686589    ( 0.0000,  0.0000,  2.1000)
  61 Cr     6.225452    5.035536   14.687205    ( 0.0000,  0.0000,  0.0000)
  62 Fe     8.715945    5.032324   14.674525    ( 0.0000,  0.0000,  2.1000)
  63 Cr    11.195745    5.039006   14.696011    ( 0.0000,  0.0000,  2.0000)
  64 Ni    13.700079    5.031203   14.681012    ( 0.0000,  0.0000,  2.1000)
  65 Fe     4.981869    7.184260   14.692048    ( 0.0000,  0.0000,  2.0000)
  66 Fe     7.477161    7.188130   14.678135    ( 0.0000,  0.0000,  1.5000)
  67 Fe     9.952805    7.179334   14.674554    ( 0.0000,  0.0000,  0.0000)
  68 Cr    12.443073    7.188992   14.681100    ( 0.0000,  0.0000,  2.0000)
  69 Cr    14.930068    7.191493   14.686618    ( 0.0000,  0.0000,  0.0000)
  70 Cr     6.231394    9.346900   14.677343    ( 0.0000,  0.0000,  0.0000)
  71 Cr     8.712453    9.336671   14.666629    ( 0.0000,  0.0000,  1.5000)
  72 Cr    11.193692    9.342761   14.657881    ( 0.0000,  0.0000,  1.5000)
  73 Co    13.688080    9.336294   14.678986    ( 0.0000,  0.0000,  2.1000)
  74 Fe    16.181709    9.338601   14.679603    ( 0.0000,  0.0000,  2.0000)
  75 Fe    12.451515    1.431333   16.739956    ( 0.0000,  0.0000,  2.0000)
  76 Ni     2.493173    1.440441   16.729476    ( 0.0000,  0.0000,  1.5000)
  77 Fe     4.973378    1.437348   16.717295    ( 0.0000,  0.0000,  1.5000)
  78 Ni     7.475017    1.438609   16.711571    ( 0.0000,  0.0000,  2.0000)
  79 Fe     9.955789    1.433845   16.723048    ( 0.0000,  0.0000,  2.1000)
  80 Co    13.696559    3.594351   16.715270    ( 0.0000,  0.0000,  2.1000)
  81 Fe     3.730077    3.579487   16.736903    ( 0.0000,  0.0000,  2.0000)
  82 Fe     6.225541    3.599416   16.704614    ( 0.0000,  0.0000,  1.5000)
  83 Co     8.709257    3.594792   16.716150    ( 0.0000,  0.0000,  2.1000)
  84 Ni    11.199463    3.603674   16.739691    ( 0.0000,  0.0000,  2.0000)
  85 Ni    14.943900    5.737718   16.712745    ( 0.0000,  0.0000,  1.5000)
  86 Fe     4.972339    5.736543   16.726893    ( 0.0000,  0.0000,  1.5000)
  87 Ni     7.458804    5.749316   16.714624    ( 0.0000,  0.0000,  2.1000)
  88 Fe     9.954095    5.748637   16.721228    ( 0.0000,  0.0000,  2.0000)
  89 Fe    12.462014    5.747344   16.728743    ( 0.0000,  0.0000,  2.0000)
  90 Fe    16.183410    7.912818   16.742715    ( 0.0000,  0.0000,  2.0000)
  91 Ni     6.219087    7.908313   16.727040    ( 0.0000,  0.0000,  2.1000)
  92 Co     8.705037    7.899237   16.717853    ( 0.0000,  0.0000,  1.5000)
  93 Ni    11.200247    7.900293   16.707726    ( 0.0000,  0.0000,  2.0000)
  94 Fe    13.685904    7.915049   16.733058    ( 0.0000,  0.0000,  2.0000)
  95 Co    17.435836   10.053955   16.714183    ( 0.0000,  0.0000,  2.1000)
  96 Fe     7.479895   10.064335   16.723694    ( 0.0000,  0.0000,  2.1000)
  97 Ni     9.948438   10.062297   16.717999    ( 0.0000,  0.0000,  2.0000)
  98 Ni    12.430846   10.066016   16.706229    ( 0.0000,  0.0000,  2.1000)
  99 Cr    14.931465   10.060206   16.719819    ( 0.0000,  0.0000,  2.0000)
 100 Ni     0.001393   -0.001477   18.721348    ( 0.0000,  0.0000,  2.1000)
 101 Co     8.706806   10.779893   18.727160    ( 0.0000,  0.0000,  2.1000)
 102 Co    11.204107   10.781618   18.717855    ( 0.0000,  0.0000,  1.5000)
 103 Co     7.469960    0.013195   18.707875    ( 0.0000,  0.0000,  2.0000)
 104 Ni    16.181919   10.775754   18.709108    ( 0.0000,  0.0000,  2.1000)
 105 Co     1.248004    2.161303   18.718354    ( 0.0000,  0.0000,  2.1000)
 106 Ni     3.733315    2.155634   18.745800    ( 0.0000,  0.0000,  1.5000)
 107 Co     6.228574    2.157186   18.698042    ( 0.0000,  0.0000,  2.0000)
 108 Co     8.707430    2.146688   18.721378    ( 0.0000,  0.0000,  1.5000)
 109 Ni    11.204420    2.145825   18.737698    ( 0.0000,  0.0000,  0.0000)
 110 Cr     2.490030    4.312410   18.723374    ( 0.0000,  0.0000,  2.1000)
 111 Ni     4.985099    4.302214   18.737992    ( 0.0000,  0.0000,  1.5000)
 112 Cr     7.468273    4.307150   18.718736    ( 0.0000,  0.0000,  1.5000)
 113 Co     9.951365    4.318112   18.731387    ( 0.0000,  0.0000,  1.5000)
 114 Co    12.445275    4.305296   18.744537    ( 0.0000,  0.0000,  0.0000)
 115 Co     3.740863    6.459076   18.741044    ( 0.0000,  0.0000,  0.0000)
 116 Cr     6.217689    6.472786   18.736054    ( 0.0000,  0.0000,  1.5000)
 117 Cr     8.709004    6.465931   18.718354    ( 0.0000,  0.0000,  0.0000)
 118 Ni    11.207929    6.465576   18.705468    ( 0.0000,  0.0000,  2.1000)
 119 Co    13.697451    6.465489   18.739900    ( 0.0000,  0.0000,  0.0000)
 120 Ni     4.983428    8.632721   18.739518    ( 0.0000,  0.0000,  1.5000)
 121 Ni     7.469224    8.629196   18.723022    ( 0.0000,  0.0000,  1.5000)
 122 Co     9.951770    8.622740   18.693815    ( 0.0000,  0.0000,  2.1000)
 123 Fe    12.435945    8.632257   18.713130    ( 0.0000,  0.0000,  0.0000)
 124 Cr    14.940770    8.642831   18.751406    ( 0.0000,  0.0000,  0.0000)

Unit cell:
           periodic     x           y           z      points  spacing
  1. axis:    yes   12.446800    0.000000    0.000000    54     0.1996
  2. axis:    yes    6.223010   10.778600    0.000000    54     0.1996
  3. axis:    no     0.000000    0.000000   29.353100   128     0.2293

  Lengths:  12.446800  12.446046  29.353100
  Angles:   90.000000  90.000000  60.000070

Effective grid spacing dv^(1/3) = 0.2193

     iter     time        total  log10-change:  magmom
                         energy  eigst   dens
iter:   1 06:41:30 -1141.532488                  +175.5309
iter:   2 06:44:10 -2110.699981  +0.57  -1.17    +140.9296
iter:   3 06:46:49 -1977.837068  +0.99  -0.85    +113.4461
iter:   4 06:49:28 -1165.424350  -0.43  -0.85    +79.5714
iter:   5 06:52:07 -1041.744662  -1.26  -1.21    +61.7152
iter:   6 06:54:46 -1030.525706  -1.78  -1.33    +46.3461
iter:   7 06:57:24 -1016.097808  -1.70  -1.35    +41.4860
iter:   8 07:00:03 -1153.967650  -1.02  -1.38    +42.8484
iter:   9 07:02:42 -1113.145440  -1.08  -1.14    +40.3847
iter:  10 07:05:21 -1009.669904  -1.66  -1.18    +34.9436
iter:  11 07:08:00  -999.520454  -1.94  -1.44    +34.5364
iter:  12 07:10:38 -1000.090185  -1.77  -1.47    +35.2848
iter:  13 07:13:15 -1004.152868  -1.76  -1.51    +37.6924
iter:  14 07:15:50  -998.925254  -1.49  -1.48    +38.8312
iter:  15 07:18:25  -996.458703  -1.78  -1.63    +39.5553
iter:  16 07:21:00 -1149.971846  -1.56  -1.61    +39.5493
iter:  17 07:23:35 -1001.505403  -1.47  -1.15    +38.6638
iter:  18 07:26:10  -999.534365  -2.17  -1.62    +37.3844
iter:  19 07:28:46  -996.848240  -2.21  -1.64    +37.4901
iter:  20 07:31:21  -997.554642  -2.52  -1.72    +37.2848
iter:  21 07:33:56  -990.991772  -2.31  -1.69    +38.1641
iter:  22 07:36:31 -1432.386115  -0.89  -1.84    +39.0582
iter:  23 07:39:07  -990.547535  -1.38  -0.99    +39.5043
iter:  24 07:41:42 -1000.904452  -2.02  -1.85    +41.1481
iter:  25 07:44:17  -990.692582  -2.66  -1.67    +41.9654
iter:  26 07:46:53  -989.726951  -3.03  -1.89    +43.0964
iter:  27 07:49:28  -990.192727  -3.33  -1.94    +45.2212
iter:  28 07:52:04 -1121.159261  -1.58  -1.95    +48.7335
iter:  29 07:54:39  -991.684601  -1.74  -1.18    +47.1920
iter:  30 07:57:14  -992.053618  -2.74  -1.92    +47.8797
iter:  31 07:59:50  -989.860851  -3.01  -1.93    +49.2483
iter:  32 08:02:25  -991.471262  -3.09  -2.04    +51.1479
iter:  33 08:05:00  -990.730032  -3.17  -2.00    +53.0271
iter:  34 08:07:36  -998.662492  -2.40  -2.06    +54.4930
iter:  35 08:10:12  -990.856768  -2.57  -1.80    +56.0672
iter:  36 08:12:47  -991.270151  -2.93  -2.15    +59.2309
iter:  37 08:15:23  -993.783580  -2.76  -2.17    +60.0832
iter:  38 08:17:59  -991.168451  -2.96  -2.02    +60.5439
iter:  39 08:20:34  -991.171546  -3.15  -2.28    +63.2462
iter:  40 08:23:09  -991.264306c -3.44  -2.33    +64.6271
iter:  41 08:25:39  -991.659799  -3.23  -2.42    +66.9564
iter:  42 08:28:06  -992.311808  -3.39  -2.39    +67.3913
iter:  43 08:30:34  -992.893022  -3.20  -2.26    +68.7927
iter:  44 08:33:01  -991.981325  -3.39  -2.20    +69.3399
iter:  45 08:35:28  -992.456344  -3.36  -2.42    +70.1929
iter:  46 08:37:56  -992.066117  -3.67  -2.33    +71.1446
iter:  47 08:40:24  -992.677841  -3.41  -2.53    +72.0050
iter:  48 08:42:52  -992.727888  -3.25  -2.37    +72.4269
iter:  49 08:45:19  -992.202825  -3.54  -2.33    +72.9505
iter:  50 08:47:47  -992.347571  -3.59  -2.65    +73.7077
iter:  51 08:50:15  -992.250771  -3.83  -2.58    +73.6500
iter:  52 08:52:42  -992.235826c -4.04  -2.71    +73.6929
iter:  53 08:55:10  -992.304800c -4.19  -2.82    +74.0847
iter:  54 08:57:37  -992.268417c -4.84  -2.75    +74.2153
iter:  55 09:00:04  -992.334754c -4.16  -2.85    +74.8820
iter:  56 09:02:31  -992.418642  -4.20  -2.84    +74.8873
iter:  57 09:04:59  -992.419579c -4.71  -2.79    +74.8012
iter:  58 09:07:26  -992.488466c -4.31  -2.80    +74.5871
iter:  59 09:09:54  -992.504007c -4.40  -2.76    +74.6461
iter:  60 09:12:21  -992.586584c -4.16  -2.72    +74.9687
iter:  61 09:14:49  -992.658092  -3.92  -2.67    +75.0427
iter:  62 09:17:17  -992.532972  -4.22  -2.60    +75.1058
iter:  63 09:19:44  -992.592836  -4.05  -2.81    +75.1978
iter:  64 09:22:11  -992.555655c -4.41  -2.75    +74.9758
iter:  65 09:24:39  -992.637738c -4.44  -2.86    +74.9335
iter:  66 09:27:06  -992.636859c -4.43  -2.76    +74.9790
iter:  67 09:29:34  -992.664748c -4.09  -2.77    +74.9192
iter:  68 09:32:01  -992.772949  -3.93  -2.82    +74.9228
iter:  69 09:34:29  -992.641446  -4.18  -2.68    +74.7230
iter:  70 09:36:57  -992.666373  -4.42  -3.10    +74.5265
iter:  71 09:39:24  -992.744424c -4.33  -3.11    +74.4033
iter:  72 09:41:51  -992.683139c -4.74  -2.82    +74.4691
iter:  73 09:44:18  -992.702528c -4.84  -3.20    +74.3769
iter:  74 09:46:46  -992.756871c -4.27  -3.22    +74.2559
iter:  75 09:49:13  -992.788743c -4.14  -3.07    +74.1814
iter:  76 09:51:40  -992.813304c -4.34  -3.07    +74.0798
iter:  77 09:54:08  -992.826837c -4.76  -3.00    +74.0973
iter:  78 09:56:36  -992.819031c -4.75  -2.95    +74.1207
iter:  79 09:59:03  -992.919912c -4.22  -3.01    +74.1614
iter:  80 10:01:30  -992.920241c -4.29  -2.67    +74.0679
iter:  81 10:03:58  -993.016957c -4.19  -2.69    +73.8257
iter:  82 10:06:25  -992.858283  -4.21  -2.61    +73.4622
iter:  83 10:08:53  -992.894303  -4.00  -2.84    +73.7123
iter:  84 10:11:21  -992.889122c -4.02  -2.75    +73.8141
iter:  85 10:13:48  -992.815803c -4.31  -2.85    +74.0352
iter:  86 10:16:16  -992.814896c -5.03  -3.19    +74.1203
iter:  87 10:18:43  -992.822820c -4.92  -3.32    +74.2247
iter:  88 10:21:10  -992.824666c -5.20  -3.25    +74.2433
iter:  89 10:23:38  -992.823695c -5.29  -3.25    +74.3472
iter:  90 10:26:05  -992.842767c -5.17  -3.48    +74.3840
iter:  91 10:28:33  -992.831737c -5.10  -3.13    +74.4142
iter:  92 10:31:00  -992.840862c -5.16  -3.46    +74.4343
iter:  93 10:33:27  -992.836450c -5.19  -3.25    +74.5349
iter:  94 10:35:54  -992.849529c -5.07  -3.61    +74.6186
iter:  95 10:38:22  -992.840981c -5.46  -3.29    +74.5818
iter:  96 10:40:49  -992.842991c -5.47  -3.52    +74.6420
iter:  97 10:43:16  -992.843232c -5.99  -3.61    +74.6716
iter:  98 10:45:43  -992.847834c -5.58  -3.81    +74.7359
iter:  99 10:48:11  -992.850651c -5.77  -3.82    +74.7969
iter: 100 10:50:38  -992.869605c -4.47  -3.79    +75.1007
iter: 101 10:53:28  -992.880148c -4.36  -3.43    +75.3412
iter: 102 10:56:32  -992.882896c -4.66  -3.29    +75.3800
iter: 103 10:59:34  -992.874479c -5.22  -3.23    +75.3275
iter: 104 11:02:41  -992.887288c -5.64  -3.25    +75.3066
iter: 105 11:05:47  -992.878956c -5.81  -3.19    +75.2833
iter: 106 11:08:53  -992.876174c -4.83  -3.25    +75.2444
iter: 107 11:12:00  -992.868572c -4.42  -3.09    +75.2197
iter: 108 11:15:06  -992.867110c -4.86  -3.21    +75.2090
iter: 109 11:18:11  -992.870096c -4.80  -3.25    +75.2311
iter: 110 11:21:18  -992.897569c -4.90  -3.26    +75.1480
iter: 111 11:24:25  -992.877274c -4.78  -3.00    +75.1303
iter: 112 11:27:32  -992.864018c -5.24  -3.23    +75.0453
iter: 113 11:30:36  -992.864583c -5.60  -3.56    +75.0803
iter: 114 11:33:41  -992.864734c -5.72  -3.71    +75.0440
iter: 115 11:36:43  -992.865408c -5.88  -3.71    +75.0144
iter: 116 11:39:59  -992.866232c -5.80  -3.70    +74.9863
iter: 117 11:43:04  -992.864701c -6.11  -3.54    +75.0217
iter: 118 11:46:08  -992.865947c -5.95  -3.86    +75.0257
iter: 119 11:49:09  -992.864891c -6.20  -3.80    +75.0009
iter: 120 11:52:09  -992.865382c -6.18  -3.84    +75.0106
iter: 121 11:55:10  -992.865918c -6.24  -3.83    +75.0267
iter: 122 11:58:11  -992.868955c -5.86  -3.71    +75.0286
iter: 123 12:01:13  -992.865275c -6.40  -3.50    +75.0105
iter: 124 12:04:17  -992.864761c -6.49  -4.03c   +75.0084
iter: 125 12:07:24  -992.865313c -6.65  -4.05c   +75.0106
iter: 126 12:10:28  -992.865173c -6.80  -4.02c   +75.0073
iter: 127 12:13:35  -992.865513c -6.55  -4.05c   +74.9934
iter: 128 12:16:41  -992.868323c -5.97  -3.92    +74.9953
iter: 129 12:19:47  -992.864938c -6.41  -3.49    +75.0152
iter: 130 12:22:54  -992.865398c -6.78  -4.20c   +75.0227
iter: 131 12:26:00  -992.864933c -6.89  -4.15c   +75.0173
iter: 132 12:29:08  -992.865035c -7.24  -4.15c   +75.0250
iter: 133 12:32:14  -992.865075c -7.09  -4.24c   +75.0393
iter: 134 12:35:20  -992.867478c -6.30  -4.18c   +75.0399
iter: 135 12:38:24  -992.865165c -6.66  -3.61    +75.0364
iter: 136 12:41:38  -992.864941c -7.19  -4.32c   +75.0409
iter: 137 12:44:44  -992.865293c -7.13  -4.32c   +75.0473
iter: 138 12:47:50  -992.865140c -7.44c -4.25c   +75.0490

Converged after 138 iterations.

Dipole moment: (50.925299, 28.067127, -0.017117) |e|*Ang

Total magnetic moment: (0.000000, 0.000000, 75.048986)
Local magnetic moments:
   0 Cr ( 0.000000,  0.000000, -2.242618)
   1 Co ( 0.000000,  0.000000,  1.493745)
   2 Co ( 0.000000,  0.000000,  1.212685)
   3 Cr ( 0.000000,  0.000000, -2.260539)
   4 Ni ( 0.000000,  0.000000,  0.119149)
   5 Ni ( 0.000000,  0.000000,  0.364793)
   6 Fe ( 0.000000,  0.000000,  2.309316)
   7 Cr ( 0.000000,  0.000000, -2.312585)
   8 Co ( 0.000000,  0.000000,  1.288419)
   9 Co ( 0.000000,  0.000000,  1.235951)
  10 Cr ( 0.000000,  0.000000, -2.021576)
  11 Co ( 0.000000,  0.000000,  1.155995)
  12 Fe ( 0.000000,  0.000000,  2.527503)
  13 Cr ( 0.000000,  0.000000, -2.382711)
  14 Ni ( 0.000000,  0.000000,  0.212712)
  15 Co ( 0.000000,  0.000000,  0.926223)
  16 Co ( 0.000000,  0.000000,  1.404113)
  17 Co ( 0.000000,  0.000000,  1.399403)
  18 Cr ( 0.000000,  0.000000,  1.862152)
  19 Ni ( 0.000000,  0.000000,  0.277792)
  20 Cr ( 0.000000,  0.000000,  1.737277)
  21 Ni ( 0.000000,  0.000000,  0.353177)
  22 Co ( 0.000000,  0.000000,  1.391671)
  23 Co ( 0.000000,  0.000000,  1.103572)
  24 Co ( 0.000000,  0.000000,  1.124568)
  25 Co ( 0.000000,  0.000000,  0.333060)
  26 Fe ( 0.000000,  0.000000,  2.113134)
  27 Cr ( 0.000000,  0.000000, -1.071302)
  28 Fe ( 0.000000,  0.000000,  1.777618)
  29 Cr ( 0.000000,  0.000000, -0.777906)
  30 Fe ( 0.000000,  0.000000,  1.762038)
  31 Co ( 0.000000,  0.000000,  1.126701)
  32 Ni ( 0.000000,  0.000000,  0.196029)
  33 Fe ( 0.000000,  0.000000,  1.998741)
  34 Cr ( 0.000000,  0.000000, -0.856719)
  35 Cr ( 0.000000,  0.000000, -0.541059)
  36 Fe ( 0.000000,  0.000000,  1.800797)
  37 Ni ( 0.000000,  0.000000,  0.335246)
  38 Ni ( 0.000000,  0.000000,  0.302812)
  39 Fe ( 0.000000,  0.000000,  2.047682)
  40 Cr ( 0.000000,  0.000000, -0.093903)
  41 Fe ( 0.000000,  0.000000,  1.898811)
  42 Fe ( 0.000000,  0.000000,  2.220642)
  43 Co ( 0.000000,  0.000000,  0.352703)
  44 Co ( 0.000000,  0.000000,  0.219320)
  45 Cr ( 0.000000,  0.000000, -0.849668)
  46 Ni ( 0.000000,  0.000000,  0.286438)
  47 Ni ( 0.000000,  0.000000,  0.145378)
  48 Cr ( 0.000000,  0.000000, -0.624831)
  49 Fe ( 0.000000,  0.000000,  1.374095)
  50 Cr ( 0.000000,  0.000000, -0.690986)
  51 Ni ( 0.000000,  0.000000,  0.166315)
  52 Fe ( 0.000000,  0.000000,  1.790268)
  53 Cr ( 0.000000,  0.000000, -1.089948)
  54 Fe ( 0.000000,  0.000000,  1.507574)
  55 Cr ( 0.000000,  0.000000, -1.047049)
  56 Fe ( 0.000000,  0.000000,  1.793733)
  57 Cr ( 0.000000,  0.000000, -0.999019)
  58 Ni ( 0.000000,  0.000000,  0.167994)
  59 Ni ( 0.000000,  0.000000,  0.164196)
  60 Fe ( 0.000000,  0.000000,  1.708678)
  61 Cr ( 0.000000,  0.000000, -1.503892)
  62 Fe ( 0.000000,  0.000000,  1.923523)
  63 Cr ( 0.000000,  0.000000, -1.398619)
  64 Ni ( 0.000000,  0.000000,  0.138302)
  65 Fe ( 0.000000,  0.000000,  1.415896)
  66 Fe ( 0.000000,  0.000000,  1.872325)
  67 Fe ( 0.000000,  0.000000, -1.229395)
  68 Cr ( 0.000000,  0.000000, -0.623832)
  69 Cr ( 0.000000,  0.000000, -0.882789)
  70 Cr ( 0.000000,  0.000000, -0.624896)
  71 Cr ( 0.000000,  0.000000, -0.948630)
  72 Cr ( 0.000000,  0.000000,  0.606775)
  73 Co ( 0.000000,  0.000000,  0.240245)
  74 Fe ( 0.000000,  0.000000,  1.074845)
  75 Fe ( 0.000000,  0.000000,  2.376217)
  76 Ni ( 0.000000,  0.000000,  0.412472)
  77 Fe ( 0.000000,  0.000000,  2.448319)
  78 Ni ( 0.000000,  0.000000,  0.381435)
  79 Fe ( 0.000000,  0.000000,  2.233659)
  80 Co ( 0.000000,  0.000000,  1.320318)
  81 Fe ( 0.000000,  0.000000,  2.108409)
  82 Fe ( 0.000000,  0.000000,  2.140273)
  83 Co ( 0.000000,  0.000000,  1.282147)
  84 Ni ( 0.000000,  0.000000,  0.517473)
  85 Ni ( 0.000000,  0.000000,  0.340796)
  86 Fe ( 0.000000,  0.000000,  1.978273)
  87 Ni ( 0.000000,  0.000000,  0.255729)
  88 Fe ( 0.000000,  0.000000,  2.185274)
  89 Fe ( 0.000000,  0.000000,  2.252955)
  90 Fe ( 0.000000,  0.000000,  2.025668)
  91 Ni ( 0.000000,  0.000000,  0.384196)
  92 Co ( 0.000000,  0.000000,  1.275840)
  93 Ni ( 0.000000,  0.000000,  0.348192)
  94 Fe ( 0.000000,  0.000000,  1.866391)
  95 Co ( 0.000000,  0.000000,  1.191342)
  96 Fe ( 0.000000,  0.000000,  2.231698)
  97 Ni ( 0.000000,  0.000000,  0.473093)
  98 Ni ( 0.000000,  0.000000,  0.415038)
  99 Cr ( 0.000000,  0.000000, -0.306861)
 100 Ni ( 0.000000,  0.000000,  0.661578)
 101 Co ( 0.000000,  0.000000,  1.745814)
 102 Co ( 0.000000,  0.000000,  1.720640)
 103 Co ( 0.000000,  0.000000,  1.421201)
 104 Ni ( 0.000000,  0.000000,  0.409479)
 105 Co ( 0.000000,  0.000000,  1.642544)
 106 Ni ( 0.000000,  0.000000,  0.577524)
 107 Co ( 0.000000,  0.000000,  1.582214)
 108 Co ( 0.000000,  0.000000,  1.619762)
 109 Ni ( 0.000000,  0.000000,  0.683049)
 110 Cr ( 0.000000,  0.000000, -2.582525)
 111 Ni ( 0.000000,  0.000000,  0.404094)
 112 Cr ( 0.000000,  0.000000, -2.309292)
 113 Co ( 0.000000,  0.000000,  1.394549)
 114 Co ( 0.000000,  0.000000,  1.658697)
 115 Co ( 0.000000,  0.000000,  1.357278)
 116 Cr ( 0.000000,  0.000000,  2.176934)
 117 Cr ( 0.000000,  0.000000, -2.435352)
 118 Ni ( 0.000000,  0.000000,  0.554350)
 119 Co ( 0.000000,  0.000000,  1.504305)
 120 Ni ( 0.000000,  0.000000,  0.432227)
 121 Ni ( 0.000000,  0.000000,  0.445276)
 122 Co ( 0.000000,  0.000000,  1.637098)
 123 Fe ( 0.000000,  0.000000,  2.645980)
 124 Cr ( 0.000000,  0.000000, -2.400098)

Energy contributions relative to reference atoms: (reference = -4451268.207082)

Kinetic:       +243.926264
Potential:     -298.482763
External:        +0.000000
XC:            -981.016071
Entropy (-ST):   -5.718157
Local:          +45.566507
--------------------------
Free energy:   -995.724219
Extrapolated:  -992.865140

Dipole-layer corrected work functions: 4.934734, 4.957820 eV

Spin contamination: 44.171842 electrons
Showing all kpts
                      Up                     Down
 Kpt  Band  Eigenvalues  Occupancy  Eigenvalues  Occupancy
  0   606     -0.05356    0.99625      0.83925    0.03403
  0   607     -0.03576    0.99552      0.85551    0.02907
  0   608     -0.02301    0.99492      0.86179    0.02735
  0   609     -0.00658    0.99401      0.88025    0.02284

  1   606     -0.02978    0.99525      0.83668    0.03488
  1   607     -0.01842    0.99468      0.84772    0.03135
  1   608     -0.01103    0.99427      0.86327    0.02696
  1   609     -0.00198    0.99373      0.86933    0.02541


Fermi level: 0.50465

No gap

Forces in eV/Ang:
  0 Cr    0.20754   -0.00187   -0.44693
  1 Co    0.04557   -0.09867    0.11072
  2 Co   -0.05508   -0.28987    0.19572
  3 Cr    0.46070   -0.79871   -0.23519
  4 Ni    0.01441    0.10626   -0.22795
  5 Ni   -0.21777    0.06914   -0.33134
  6 Fe   -0.18335   -0.19223   -0.27064
  7 Cr   -0.42042    0.91565   -0.13054
  8 Co    0.18371   -0.14081    0.18929
  9 Co    0.06760   -0.14340    0.33316
 10 Cr    0.16687    0.15993   -0.29434
 11 Co   -0.00799    0.26446    0.39808
 12 Fe   -0.30011    0.03008   -0.43031
 13 Cr   -0.17379   -0.08251   -0.07327
 14 Ni    0.23171   -0.26755   -0.01296
 15 Co   -0.01098   -0.05603    0.21454
 16 Co   -0.01800   -0.19360   -0.03584
 17 Co   -0.35982    0.13749    0.00025
 18 Cr    0.14763    0.09637   -0.32571
 19 Ni    0.18893    0.19502    0.03816
 20 Cr   -0.25861   -0.11472    0.02016
 21 Ni    0.17395   -0.11310   -0.06252
 22 Co   -0.07857    0.18298    0.02325
 23 Co   -0.20427    0.10282    0.12265
 24 Co   -0.10746   -0.15855    0.22985
 25 Co   -0.37266    0.12456    0.43709
 26 Fe    0.07590    0.01344   -0.21179
 27 Cr   -0.00314    0.10481   -0.29297
 28 Fe   -0.15553    0.02950   -0.05897
 29 Cr    0.16690   -0.26415   -0.39626
 30 Fe   -0.03372    0.02661   -0.12627
 31 Co    0.16042   -0.01173   -0.00571
 32 Ni   -0.01754   -0.03135    0.06075
 33 Fe    0.06282    0.07684   -0.04412
 34 Cr    0.02045    0.08049    0.18896
 35 Cr    0.14141    0.22200   -0.19965
 36 Fe    0.31060   -0.09486   -0.15895
 37 Ni    0.10971    0.11863   -0.10300
 38 Ni   -0.16364   -0.18741   -0.00793
 39 Fe   -0.24745   -0.06929   -0.32820
 40 Cr    0.22743   -0.08275   -0.29278
 41 Fe   -0.19308    0.17975   -0.08976
 42 Fe    0.20731    0.08635   -0.06226
 43 Co    0.02277    0.14607    0.33810
 44 Co   -0.09680    0.12049    0.18253
 45 Cr    0.23937   -0.21222   -0.09943
 46 Ni   -0.14286   -0.07346   -0.14983
 47 Ni    0.07074   -0.14804    0.01846
 48 Cr    0.13276   -0.07482   -0.10622
 49 Fe    0.15439    0.02011    0.15299
 50 Cr   -0.30765    0.07398   -0.18396
 51 Ni   -0.00332    0.04622   -0.04904
 52 Fe    0.38990    0.08828   -0.15735
 53 Cr   -0.06727   -0.30608    0.00945
 54 Fe    0.13341   -0.00375   -0.35026
 55 Cr    0.07368    0.24452    0.11072
 56 Fe   -0.13285   -0.19914   -0.47797
 57 Cr   -0.01141   -0.25804    0.00506
 58 Ni    0.12223   -0.04425   -0.14848
 59 Ni    0.02459   -0.17557   -0.13170
 60 Fe   -0.03738    0.17936    0.16759
 61 Cr   -0.20681    0.23457   -0.34661
 62 Fe   -0.10002   -0.23468   -0.11755
 63 Cr   -0.04870    0.02209   -0.18311
 64 Ni   -0.08800    0.07739   -0.15116
 65 Fe   -0.08773    0.20326   -0.25797
 66 Fe   -0.08861    0.16885    0.28137
 67 Fe    0.33279    0.21123   -0.37187
 68 Cr   -0.19681   -0.02323   -0.12110
 69 Cr    0.17245    0.20044   -0.19944
 70 Cr   -0.37108    0.14882    0.08723
 71 Cr    0.08858   -0.19530    0.06490
 72 Cr    0.26415   -0.24481    0.14834
 73 Co    0.04909   -0.02391   -0.03071
 74 Fe   -0.09390   -0.00965   -0.07844
 75 Fe    0.08688    0.24371   -0.07819
 76 Ni   -0.10727   -0.05665    0.04344
 77 Fe    0.04431   -0.21902    0.16328
 78 Ni   -0.08030    0.04181    0.14146
 79 Fe   -0.11062    0.11866   -0.00764
 80 Co   -0.06043   -0.18766    0.24884
 81 Fe   -0.16702    0.16300    0.33789
 82 Fe    0.20665    0.05881    0.32103
 83 Co   -0.02869   -0.02483    0.21778
 84 Ni    0.07290   -0.09154    0.05709
 85 Ni    0.01728    0.19296    0.30487
 86 Fe   -0.20770   -0.01181   -0.16053
 87 Ni    0.11102    0.08591   -0.16393
 88 Fe   -0.12194    0.04048    0.22701
 89 Fe    0.07807   -0.07304    0.22336
 90 Fe    0.19421   -0.06193    0.13855
 91 Ni    0.13776   -0.08226   -0.31498
 92 Co   -0.09672    0.13735   -0.01442
 93 Ni   -0.14113    0.15024   -0.10451
 94 Fe    0.12311    0.02756   -0.25143
 95 Co   -0.18560   -0.13608    0.03398
 96 Fe    0.12217   -0.27063    0.15129
 97 Ni   -0.04581   -0.05909    0.06798
 98 Ni    0.30435    0.07422    0.01711
 99 Cr   -0.10282   -0.07476   -0.16443
100 Ni    0.05571    0.04729    0.19699
101 Co    0.07976   -0.04805    0.13013
102 Co    0.03717    0.04690    0.05175
103 Co   -0.05679    0.06164    0.01497
104 Ni   -0.07255    0.14736    0.32711
105 Co   -0.17126   -0.08823   -0.10725
106 Ni    0.10920   -0.13925    0.12597
107 Co   -0.17664   -0.06672    0.17066
108 Co    0.14909    0.01570   -0.11299
109 Ni    0.04371    0.16287    0.21993
110 Cr    0.03180   -0.01293    0.34199
111 Ni   -0.12528   -0.12688    0.19950
112 Cr   -0.25125   -0.86404    0.19991
113 Co    0.07144   -0.11526   -0.17256
114 Co   -0.16445    0.01337   -0.21456
115 Co   -0.19238    0.11252   -0.30203
116 Cr    0.16957   -0.06280    0.59136
117 Cr    0.64686    0.70060    0.44283
118 Ni    0.04924   -0.08173    0.39202
119 Co   -0.17732   -0.04861   -0.31621
120 Ni   -0.04614    0.11338    0.10624
121 Ni    0.15637    0.26964    0.19723
122 Co   -0.18927    0.22111    0.06094
123 Fe   -0.12638    0.04015    0.37845
124 Cr    0.13518   -0.17730    0.39631

Timing:                              incl.     excl.
-----------------------------------------------------------
Forces:                             39.891    39.891   0.2% |
Hamiltonian:                         1.321     0.011   0.0% |
 Atomic:                             0.386     0.001   0.0% |
  XC Correction:                     0.384     0.384   0.0% |
 Calculate atomic Hamiltonians:      0.430     0.430   0.0% |
 Communicate:                        0.094     0.094   0.0% |
 Initialize Hamiltonian:             0.001     0.001   0.0% |
 Poisson:                            0.088     0.088   0.0% |
 XC 3D grid:                         0.311     0.311   0.0% |
LCAO initialization:               294.352     0.425   0.0% |
 LCAO eigensolver:                  14.980     0.014   0.0% |
  Calculate projections:             0.000     0.000   0.0% |
  DenseAtomicCorrection:             0.000     0.000   0.0% |
  Distribute overlap matrix:         9.419     9.419   0.0% |
  Orbital Layouts:                   5.509     5.509   0.0% |
  Potential matrix:                  0.004     0.004   0.0% |
  Sum over cells:                    0.032     0.032   0.0% |
 LCAO to grid:                     276.776   276.776   1.2% |
 Set positions (LCAO WFS):           2.171     1.878   0.0% |
  Basic WFS set positions:           0.004     0.004   0.0% |
  Basis functions set positions:     0.001     0.001   0.0% |
  P tci:                             0.000     0.000   0.0% |
  ST tci:                            0.114     0.114   0.0% |
  mktci:                             0.174     0.174   0.0% |
PWDescriptor:                        0.092     0.092   0.0% |
SCF-cycle:                       22155.741     0.931   0.0% |
 Davidson:                       21722.115  6808.204  30.3% |-----------|
  Apply H:                         348.148   342.162   1.5% ||
   HMM T:                            5.985     5.985   0.0% |
  Subspace diag:                  2355.444     0.043   0.0% |
   calc_h_matrix:                  928.302   630.022   2.8% ||
    Apply H:                       298.280   292.308   1.3% ||
     HMM T:                          5.972     5.972   0.0% |
   diagonalize:                    216.712   216.712   1.0% |
   rotate_psi:                    1210.386  1210.386   5.4% |-|
  calc. matrices:                 5516.418  4956.602  22.0% |--------|
   Apply H:                        559.816   547.922   2.4% ||
    HMM T:                          11.894    11.894   0.1% |
  diagonalize:                    4125.026  4125.026  18.3% |------|
  rotate_psi:                     2568.875  2568.875  11.4% |----|
 Density:                          237.330     0.004   0.0% |
  Atomic density matrices:           3.215     3.215   0.0% |
  Mix:                              80.474    80.474   0.4% |
  Multipole moments:                 0.091     0.091   0.0% |
  Pseudo density:                  153.546   153.542   0.7% |
   Symmetrize density:               0.005     0.005   0.0% |
 Hamiltonian:                      175.839     1.353   0.0% |
  Atomic:                           50.947     0.192   0.0% |
   XC Correction:                   50.755    50.755   0.2% |
  Calculate atomic Hamiltonians:    62.359    62.359   0.3% |
  Communicate:                      13.101    13.101   0.1% |
  Poisson:                           4.836     4.836   0.0% |
  XC 3D grid:                       43.244    43.244   0.2% |
 Orthonormalize:                    19.526     0.001   0.0% |
  calc_s_matrix:                     2.455     2.455   0.0% |
  inverse-cholesky:                  0.926     0.926   0.0% |
  projections:                      11.812    11.812   0.1% |
  rotate_psi_s:                      4.332     4.332   0.0% |
Set symmetry:                        0.001     0.001   0.0% |
Other:                               7.546     7.546   0.0% |
-----------------------------------------------------------
Total:                                     22498.944 100.0%

Date: Tue Apr 18 12:48:34 2023
