
  ___ ___ ___ _ _ _  
 |   |   |_  | | | | 
 | | | | | . | | | | 
 |__ |  _|___|_____|  22.8.0
 |___|_|             

User:   c.zeng@d0143
Date:   Sat Apr  8 05:03:30 2023
Arch:   x86_64
Pid:    61559
CWD:    /home/c.zeng/projects/hea-corrosion/hea-mlp/data-curation/volume/dft-jobs/141
Python: 3.8.1
gpaw:   /home/c.zeng/usr/installs/gpaw/source/gpaw-22.8.0/gpaw
_gpaw:  /home/c.zeng/usr/installs/gpaw/source/gpaw-22.8.0/
        _gpaw.cpython-38-x86_64-linux-gnu.so
ase:    /home/c.zeng/.local/lib/python3.8/site-packages/ase-3.22.1-py3.8.egg/ase (version 3.22.1)
numpy:  /shared/centos7/python/3.8.1/lib/python3.8/site-packages/numpy (version 1.17.4)
scipy:  /shared/centos7/python/3.8.1/lib/python3.8/site-packages/scipy (version 1.4.1)
libxc:  4.2.3
units:  Angstrom and eV
cores: 64
OpenMP: False
OMP_NUM_THREADS: 1

Input parameters:
  convergence: {energy: 0.0001}
  kpts: [2 2 2]
  maxiter: 666
  mode: {ecut: 350.0,
         name: pw}
  occupations: {fixmagmom: False,
                name: fermi-dirac,
                width: 0.1}
  spinpol: True
  xc: PBE

System changes: positions, numbers, cell, pbc, initial_charges, initial_magmoms 

Initialize ...

species:
  Al:
    name: Aluminium
    id: 0292cae29f5d6237e50f6abdd43a7bdd
    Z: 13.0
    valence: 3
    core: 10
    charge: 0.0
    file: /home/c.zeng/usr/data/gpaw-setups-0.9.20000/Al.PBE.gz
    compensation charges: {type: gauss,
                           rc: 0.34,
                           lmax: 2}
    cutoffs: {filter: 1.91,
              core: 2.36}
    valence states:
      #              energy  rcut
      - 3s(2.00)    -7.753   1.085
      - 3p(1.00)    -2.712   1.085
      -  s          19.459   1.085
      -  p          24.499   1.085
      -  d           0.000   1.085
  
    # Using partial waves for Al as LCAO basis

  Fe:
    name: Iron
    id: 37abbd8d6c3c35915a9b583b742da910
    Z: 26.0
    valence: 8
    core: 18
    charge: 0.0
    file: /home/c.zeng/usr/data/gpaw-setups-0.9.20000/Fe.PBE.gz
    compensation charges: {type: gauss,
                           rc: 0.33,
                           lmax: 2}
    cutoffs: {filter: 2.06,
              core: 2.67}
    valence states:
      #              energy  rcut
      - 4s(2.00)    -5.291   1.164
      - 4p(0.00)    -1.326   1.058
      - 3d(6.00)    -7.505   1.058
      -  s          21.920   1.164
      -  p          25.885   1.058
      -  d          19.706   1.058
  
    # Using partial waves for Fe as LCAO basis

  Cr:
    name: Chromium
    id: 33f258bda2ca9f93018e70263a35547b
    Z: 24.0
    valence: 6
    core: 18
    charge: 0.0
    file: /home/c.zeng/usr/data/gpaw-setups-0.9.20000/Cr.PBE.gz
    compensation charges: {type: gauss,
                           rc: 0.35,
                           lmax: 2}
    cutoffs: {filter: 2.14,
              core: 3.04}
    valence states:
      #              energy  rcut
      - 4s(1.00)    -4.007   1.164
      - 4p(0.00)    -0.989   1.217
      - 3d(5.00)    -2.913   1.111
      -  s          23.205   1.164
      -  p          26.223   1.217
      -  d          24.299   1.111
  
    # Using partial waves for Cr as LCAO basis

  Ni:
    name: Nickel
    id: 0d9f38a9d6e76a2886f07bb4381f212b
    Z: 28.0
    valence: 16
    core: 12
    charge: 0.0
    file: /home/c.zeng/usr/data/gpaw-setups-0.9.20000/Ni.PBE.gz
    compensation charges: {type: gauss,
                           rc: 0.36,
                           lmax: 2}
    cutoffs: {filter: 2.14,
              core: 1.98}
    valence states:
      #              energy  rcut
      - 4s(2.00)    -5.642   1.164
      - 3p(6.00)   -71.394   1.207
      - 4p(0.00)    -1.226   1.207
      - 3d(8.00)    -8.875   1.138
      -  s          21.570   1.164
      -  d          18.337   1.138
  
    # Using partial waves for Ni as LCAO basis

  Co:
    name: Cobalt
    id: 339d20d5b0b93d2de9531a1bee871d91
    Z: 27.0
    valence: 9
    core: 18
    charge: 0.0
    file: /home/c.zeng/usr/data/gpaw-setups-0.9.20000/Co.PBE.gz
    compensation charges: {type: gauss,
                           rc: 0.32,
                           lmax: 2}
    cutoffs: {filter: 1.87,
              core: 2.55}
    valence states:
      #              energy  rcut
      - 4s(2.00)    -5.469   1.005
      - 4p(0.00)    -1.277   1.058
      - 3d(7.00)    -8.205   1.005
      -  s          21.742   1.005
      -  p          25.934   1.058
      -  d          19.007   1.005
  
    # Using partial waves for Co as LCAO basis

Reference energy: -3235165.067515  # eV

Spin-polarized calculation.
Magnetic moment: 121.100000

Convergence criteria:
 Maximum [total energy] change in last 3 cyles: 0.0001 eV / electron
 Maximum integral of absolute [dens]ity change: 0.0001 electrons / valence electron
 Maximum integral of absolute [eigenst]ate change: 4e-08 eV^2 / valence electron
 Maximum number of scf [iter]ations: 666
 (Square brackets indicate name in SCF output, whereas a 'c' in
 the SCF output indicates the quantity has converged.)

Symmetries present (total): 1

  ( 1  0  0)
  ( 0  1  0)
  ( 0  0  1)

8 k-points: 2 x 2 x 2 Monkhorst-Pack grid
4 k-points in the irreducible part of the Brillouin zone
       k-points in crystal coordinates                weights
   0:     0.25000000   -0.25000000   -0.25000000          2/8
   1:     0.25000000   -0.25000000    0.25000000          2/8
   2:     0.25000000    0.25000000   -0.25000000          2/8
   3:     0.25000000    0.25000000    0.25000000          2/8

Wave functions: Plane wave expansion
  Cutoff energy: 350.000 eV
  Number of coefficients (min, max): 19084, 19084
  Pulay-stress correction: 0.000000 eV/Ang^3 (de/decut=0.000000)
  Using FFTW library
  ScaLapack parameters: grid=1x1, blocksize=None
  Wavefunction extrapolation:
    Improved wavefunction reuse through dual PAW basis 

Occupation numbers: Fermi-Dirac:
  width: 0.1000  # eV
 

Eigensolver
   Davidson(niter=2) 

Densities:
  Coarse grid: 48*48*48 grid
  Fine grid: 96*96*96 grid
  Total Charge: 0.000000 

Density mixing:
  Method: difference
  Backend: pulay
  Linear mixing parameter: 0.05
  old densities: 5
  Damping of long wavelength oscillations: 50 

Hamiltonian:
  XC and Coulomb potentials evaluated on a 96*96*96 grid
  Using the PBE Exchange-Correlation functional
  External potential:
    NoExternalPotential
 

XC parameters: PBE with 2 nearest neighbor stencil

Memory estimate:
  Process memory now: 177.97 MiB
  Calculator: 619.44 MiB
    Density: 5.13 MiB
      Arrays: 1.85 MiB
      Localized functions: 2.55 MiB
      Mixer: 0.74 MiB
    Hamiltonian: 1.45 MiB
      Arrays: 1.37 MiB
      XC: 0.00 MiB
      Poisson: 0.00 MiB
      vbar: 0.08 MiB
    Wavefunctions: 612.85 MiB
      Arrays psit_nG: 363.42 MiB
      Eigensolver: 242.60 MiB
      Projections: 2.19 MiB
      Projectors: 0.35 MiB
      PW-descriptor: 4.31 MiB

Total number of cores used: 64
Parallelization over k-points: 4
Domain decomposition: 4 x 2 x 2

Number of atoms: 108
Number of atomic orbitals: 933
Number of bands in calculation: 624
Number of valence electrons: 912
Bands to converge: occupied

... initialized

Initializing position-dependent things.

Density initialized from atomic densities
Creating initial wave functions:
  624 bands from LCAO basis set

        .--------Ni----------------.  
       /|           Ni             |  
      / |    CrFe     Co           |  
     / Al       Co       Ni        |  
    /   |Co      CoAl       Al     |  
   /    | FeFe      FCr            |  
  /    Cr  CorAlNi    Co Fe  CrCr  |  
 *      Cr     FeCoFe   CoNi     Al|  
 |      |AlAl   NiNiFe   NiFeAl   Cr  
 |      | FeCr   AlCoCrNi AlFeCr   |  
 |     Co  Fe NiCr  CrCr Fe  CrFe  |  
 |      Al  Cr AlNiNi AlNiNiCo   Co|  
 |      |CoAl   NiCoCo   CrCrCo   Al  
 |      .-NiCo-----NiAl-Cr--FeFe---.  
 |     Ni  Cr AlAl    Co Ni  Ni Co/   
 |    / Cr              Co       Ni   
 |   /           Fee      AlFe  /     
 |  /      Al       Co     FeFe/      
 | /                   Ni     /e      
 |/                          /        
 *--------------------------Al        

Positions:
   0 Al    10.797848    0.093653    0.085771    ( 0.0000,  0.0000,  0.0000)
   1 Fe    10.831824    1.844742    1.870705    ( 0.0000,  0.0000,  2.0000)
   2 Cr     1.786803   10.847361    1.827335    ( 0.0000,  0.0000,  0.0000)
   3 Cr     1.769603    1.870531   -0.031265    ( 0.0000,  0.0000,  0.0000)
   4 Ni     3.620857   10.822050   10.833629    ( 0.0000,  0.0000,  1.5000)
   5 Al     3.571246    1.883176    1.708402    ( 0.0000,  0.0000,  0.0000)
   6 Al     5.521113   10.788063    1.666217    ( 0.0000,  0.0000,  0.0000)
   7 Ni     5.520831    1.813973   10.830911    ( 0.0000,  0.0000,  1.5000)
   8 Fe     7.330846    0.011030   10.815657    ( 0.0000,  0.0000,  2.0000)
   9 Co     7.282018    1.809483    1.793250    ( 0.0000,  0.0000,  2.1000)
  10 Ni     9.029996    0.022002    1.811918    ( 0.0000,  0.0000,  1.5000)
  11 Fe     9.007196    1.868639   10.825714    ( 0.0000,  0.0000,  2.0000)
  12 Fe    10.861310    3.649723    0.014172    ( 0.0000,  0.0000,  2.0000)
  13 Co    10.867442    5.463468    1.819246    ( 0.0000,  0.0000,  2.1000)
  14 Cr     1.756088    3.650267    1.845949    ( 0.0000,  0.0000,  0.0000)
  15 Co     1.790358    5.439092   10.869095    ( 0.0000,  0.0000,  2.1000)
  16 Fe     3.687831    3.622803   -0.049281    ( 0.0000,  0.0000,  2.0000)
  17 Al     3.667358    5.391145    1.745368    ( 0.0000,  0.0000,  0.0000)
  18 Fe     5.497977    3.634426    1.792370    ( 0.0000,  0.0000,  2.0000)
  19 Fe     5.524897    5.448018    0.002551    ( 0.0000,  0.0000,  2.0000)
  20 Cr     7.223340    3.611877   10.834270    ( 0.0000,  0.0000,  0.0000)
  21 Co     7.217762    5.474830    1.807776    ( 0.0000,  0.0000,  2.1000)
  22 Al     9.073442    3.654344    1.775148    ( 0.0000,  0.0000,  0.0000)
  23 Fe     9.008740    5.418608    0.007695    ( 0.0000,  0.0000,  2.0000)
  24 Ni    10.859190    7.178720    0.014482    ( 0.0000,  0.0000,  1.5000)
  25 Al    -0.018110    8.970937    1.875391    ( 0.0000,  0.0000,  0.0000)
  26 Ni     1.817615    7.224025    1.802546    ( 0.0000,  0.0000,  1.5000)
  27 Cr     1.880729    8.993464   10.874031    ( 0.0000,  0.0000,  0.0000)
  28 Fe     3.684428    7.260437   -0.001357    ( 0.0000,  0.0000,  2.0000)
  29 Ni     3.612616    9.025636    1.761796    ( 0.0000,  0.0000,  1.5000)
  30 Ni     5.481440    7.275114    1.811211    ( 0.0000,  0.0000,  1.5000)
  31 Ni     5.461261    9.048153   10.833988    ( 0.0000,  0.0000,  1.5000)
  32 Co     7.245704    7.257881    0.056890    ( 0.0000,  0.0000,  2.1000)
  33 Cr     7.301969    9.004609    1.790304    ( 0.0000,  0.0000,  0.0000)
  34 Fe     9.029343    7.181775    1.815549    ( 0.0000,  0.0000,  2.0000)
  35 Ni     9.030550    9.042010    0.020227    ( 0.0000,  0.0000,  1.5000)
  36 Fe    -0.031048    0.001943    3.645701    ( 0.0000,  0.0000,  2.0000)
  37 Co    10.825910    1.804351    5.434602    ( 0.0000,  0.0000,  2.1000)
  38 Cr     1.743552   10.849296    5.484376    ( 0.0000,  0.0000,  0.0000)
  39 Ni     1.769755    1.791891    3.636068    ( 0.0000,  0.0000,  1.5000)
  40 Al     3.516667   10.719828    3.663227    ( 0.0000,  0.0000,  0.0000)
  41 Al     3.644244    1.785194    5.586728    ( 0.0000,  0.0000,  0.0000)
  42 Cr     5.484789   10.815429    5.504022    ( 0.0000,  0.0000,  0.0000)
  43 Al     5.457934    1.842230    3.658769    ( 0.0000,  0.0000,  0.0000)
  44 Al     7.360615   10.815429    3.672229    ( 0.0000,  0.0000,  0.0000)
  45 Co     7.266895    1.811614    5.485528    ( 0.0000,  0.0000,  2.1000)
  46 Cr     9.077986    0.023586    5.491932    ( 0.0000,  0.0000,  0.0000)
  47 Ni     9.066788    1.824215    3.671175    ( 0.0000,  0.0000,  1.5000)
  48 Fe    -0.047136    3.649615    3.617291    ( 0.0000,  0.0000,  2.0000)
  49 Fe    10.809264    5.435993    5.379805    ( 0.0000,  0.0000,  2.0000)
  50 Al     1.752316    3.624989    5.344665    ( 0.0000,  0.0000,  0.0000)
  51 Co     1.805786    5.472057    3.619389    ( 0.0000,  0.0000,  2.1000)
  52 Co     3.649408    3.633491    3.631251    ( 0.0000,  0.0000,  2.1000)
  53 Ni     3.657628    5.433797    5.434015    ( 0.0000,  0.0000,  1.5000)
  54 Ni     5.413368    3.672653    5.480309    ( 0.0000,  0.0000,  1.5000)
  55 Co     5.413846    5.465588    3.639677    ( 0.0000,  0.0000,  2.1000)
  56 Al     7.223449    3.731734    3.720829    ( 0.0000,  0.0000,  0.0000)
  57 Cr     7.220567    5.483180    5.485572    ( 0.0000,  0.0000,  0.0000)
  58 Ni     9.069039    3.623662    5.469720    ( 0.0000,  0.0000,  1.5000)
  59 Cr     9.064766    5.503837    3.636720    ( 0.0000,  0.0000,  0.0000)
  60 Co    -0.007802    7.208314    3.671501    ( 0.0000,  0.0000,  2.1000)
  61 Cr    -0.032908    9.095361    5.398690    ( 0.0000,  0.0000,  0.0000)
  62 Fe     1.823693    7.248727    5.440766    ( 0.0000,  0.0000,  2.0000)
  63 Fe     1.739845    8.989181    3.676437    ( 0.0000,  0.0000,  2.0000)
  64 Al     3.645353    7.306101    3.692343    ( 0.0000,  0.0000,  0.0000)
  65 Ni     3.652311    9.051556    5.521646    ( 0.0000,  0.0000,  1.5000)
  66 Co     5.474264    7.265362    5.482886    ( 0.0000,  0.0000,  2.1000)
  67 Cr     5.473612    9.034877    3.664390    ( 0.0000,  0.0000,  0.0000)
  68 Ni     7.218447    7.243171    3.634643    ( 0.0000,  0.0000,  1.5000)
  69 Ni     7.240823    9.039172    5.472862    ( 0.0000,  0.0000,  1.5000)
  70 Fe     8.972600    7.234071    5.399125    ( 0.0000,  0.0000,  2.0000)
  71 Cr     9.065505    8.978232    3.651180    ( 0.0000,  0.0000,  0.0000)
  72 Co    10.856755    0.017915    7.210891    ( 0.0000,  0.0000,  2.1000)
  73 Al    10.824670    1.882197    8.982799    ( 0.0000,  0.0000,  0.0000)
  74 Cr     1.860768   10.856646    9.009795    ( 0.0000,  0.0000,  0.0000)
  75 Co     1.767189    1.801926    7.237202    ( 0.0000,  0.0000,  2.1000)
  76 Co     3.637144   10.797772    7.275701    ( 0.0000,  0.0000,  2.1000)
  77 Al     3.668032    1.775843    9.018743    ( 0.0000,  0.0000,  0.0000)
  78 Co     5.482495   10.845176    9.071409    ( 0.0000,  0.0000,  2.1000)
  79 Cr     5.527517    1.773419    7.253489    ( 0.0000,  0.0000,  0.0000)
  80 Ni     7.260491    0.005379    7.255196    ( 0.0000,  0.0000,  1.5000)
  81 Fe     7.265112    1.802394    9.014883    ( 0.0000,  0.0000,  2.0000)
  82 Ni     9.024788    0.026385    9.025234    ( 0.0000,  0.0000,  1.5000)
  83 Fe     9.016296    1.814658    7.226449    ( 0.0000,  0.0000,  2.0000)
  84 Cr    10.804437    3.613877    7.198159    ( 0.0000,  0.0000,  0.0000)
  85 Cr    10.834662    5.395809    9.098938    ( 0.0000,  0.0000,  0.0000)
  86 Cr     1.818735    3.628870    9.065668    ( 0.0000,  0.0000,  0.0000)
  87 Al     1.809765    5.464294    7.231146    ( 0.0000,  0.0000,  0.0000)
  88 Cr     3.671588    3.637100    7.249553    ( 0.0000,  0.0000,  0.0000)
  89 Al     3.679535    5.412074    9.119606    ( 0.0000,  0.0000,  0.0000)
  90 Co     5.499651    3.591088    9.044989    ( 0.0000,  0.0000,  2.1000)
  91 Ni     5.468317    5.448464    7.223046    ( 0.0000,  0.0000,  1.5000)
  92 Cr     7.241888    3.617400    7.225101    ( 0.0000,  0.0000,  0.0000)
  93 Co     7.214642    5.385883    9.048577    ( 0.0000,  0.0000,  2.1000)
  94 Ni     8.994302    3.655975    9.039237    ( 0.0000,  0.0000,  1.5000)
  95 Fe     9.006587    5.423262    7.223296    ( 0.0000,  0.0000,  2.0000)
  96 Al    -0.070637    7.291956    7.110408    ( 0.0000,  0.0000,  0.0000)
  97 Al     0.073010    9.104570    9.068375    ( 0.0000,  0.0000,  0.0000)
  98 Fe     1.863247    7.257381    9.054785    ( 0.0000,  0.0000,  2.0000)
  99 Co     1.858343    9.053708    7.225819    ( 0.0000,  0.0000,  2.1000)
 100 Fe     3.683906    7.292456    7.235539    ( 0.0000,  0.0000,  2.0000)
 101 Co     3.628218    9.069539    9.051273    ( 0.0000,  0.0000,  2.1000)
 102 Al     5.530605    7.331879    9.040129    ( 0.0000,  0.0000,  0.0000)
 103 Fe     5.476232    9.097198    7.250467    ( 0.0000,  0.0000,  2.0000)
 104 Co     7.256827    7.264231    7.208456    ( 0.0000,  0.0000,  2.1000)
 105 Ni     7.272548    9.136437    9.056861    ( 0.0000,  0.0000,  1.5000)
 106 Al     8.936493    7.190875    9.109767    ( 0.0000,  0.0000,  0.0000)
 107 Cr     8.994682    9.112169    7.218480    ( 0.0000,  0.0000,  0.0000)

Unit cell:
           periodic     x           y           z      points  spacing
  1. axis:    yes   10.872400    0.000000    0.000000    48     0.2265
  2. axis:    yes    0.000000   10.872400    0.000000    48     0.2265
  3. axis:    yes    0.000000    0.000000   10.872400    48     0.2265

  Lengths:  10.872400  10.872400  10.872400
  Angles:   90.000000  90.000000  90.000000

Effective grid spacing dv^(1/3) = 0.2265

     iter     time        total  log10-change:  magmom
                         energy  eigst   dens
iter:   1 05:05:29  -974.537149                  +121.3860
iter:   2 05:06:18  -859.630616  -0.18  -1.16    +64.8611
iter:   3 05:07:07  -844.854297  -0.85  -1.20    +55.9876
iter:   4 05:07:56  -831.561586  -1.24  -1.26    +51.9977
iter:   5 05:08:45  -819.838862  -1.54  -1.29    +49.8279
iter:   6 05:09:35  -813.402256  -1.35  -1.35    +50.1047
iter:   7 05:10:23  -816.006374  -1.35  -1.48    +49.5105
iter:   8 05:11:12  -810.726673  -1.66  -1.52    +50.0358
iter:   9 05:12:02  -806.639597  -2.07  -1.64    +51.0667
iter:  10 05:12:50  -806.648645  -2.52  -1.77    +51.9931
iter:  11 05:13:37  -807.110861  -2.50  -1.80    +53.0120
iter:  12 05:14:25  -808.028436  -2.40  -1.85    +54.2343
iter:  13 05:15:12  -807.869307  -2.52  -1.87    +54.6391
iter:  14 05:15:59  -807.630945  -2.68  -1.93    +55.3421
iter:  15 05:16:45  -807.607055  -2.92  -1.99    +55.7686
iter:  16 05:17:32  -807.863100  -2.94  -2.04    +56.0244
iter:  17 05:18:22  -807.833469  -2.87  -2.08    +56.4316
iter:  18 05:19:11  -807.639539  -3.10  -2.14    +56.3518
iter:  19 05:20:00  -807.746115  -3.16  -2.25    +56.3988
iter:  20 05:20:52  -807.730738  -3.30  -2.28    +56.4182
iter:  21 05:21:41  -807.722848c -3.38  -2.33    +56.2466
iter:  22 05:22:30  -807.780563c -3.35  -2.40    +56.0925
iter:  23 05:23:23  -807.782734c -3.64  -2.43    +56.0195
iter:  24 05:24:11  -807.821372c -3.70  -2.48    +55.7083
iter:  25 05:25:03  -807.885618  -3.70  -2.51    +55.4705
iter:  26 05:25:54  -807.912436c -3.88  -2.53    +55.3058
iter:  27 05:26:44  -807.932574c -3.87  -2.56    +54.9764
iter:  28 05:27:34  -807.990917c -3.96  -2.62    +54.7005
iter:  29 05:28:28  -808.017404c -4.00  -2.64    +54.4995
iter:  30 05:29:19  -808.046267c -4.19  -2.67    +54.1546
iter:  31 05:30:07  -808.092039c -4.11  -2.71    +53.8362
iter:  32 05:30:56  -808.134311c -4.21  -2.74    +53.4683
iter:  33 05:31:45  -808.186128  -4.08  -2.77    +52.9931
iter:  34 05:32:35  -808.255751  -3.83  -2.80    +52.3408
iter:  35 05:33:22  -808.290390  -4.00  -2.81    +52.0038
iter:  36 05:34:09  -808.337739c -3.92  -2.81    +51.5607
iter:  37 05:34:59  -808.377864c -3.94  -2.75    +51.1961
iter:  38 05:35:49  -808.364604c -4.12  -2.75    +51.1696
iter:  39 05:36:41  -808.359689c -4.39  -2.87    +51.1615
iter:  40 05:37:28  -808.362608c -4.85  -2.91    +51.1267
iter:  41 05:38:15  -808.371293c -4.54  -2.93    +51.1122
iter:  42 05:39:03  -808.361901c -4.50  -2.92    +51.1239
iter:  43 05:39:51  -808.363562c -5.09  -2.99    +51.1272
iter:  44 05:40:39  -808.364317c -4.86  -3.01    +51.0903
iter:  45 05:41:27  -808.365977c -4.76  -3.06    +51.0985
iter:  46 05:42:14  -808.362037c -4.88  -3.13    +51.1143
iter:  47 05:43:02  -808.363337c -5.07  -3.21    +51.1011
iter:  48 05:43:51  -808.362108c -5.23  -3.26    +51.1128
iter:  49 05:44:39  -808.365822c -5.05  -3.34    +51.1428
iter:  50 05:45:26  -808.363419c -5.28  -3.34    +51.1311
iter:  51 05:46:14  -808.363257c -5.46  -3.44    +51.1288
iter:  52 05:47:01  -808.363919c -5.76  -3.52    +51.1432
iter:  53 05:47:48  -808.364050c -5.80  -3.57    +51.1482
iter:  54 05:48:37  -808.365578c -5.91  -3.58    +51.1474
iter:  55 05:49:25  -808.365344c -5.77  -3.61    +51.1492
iter:  56 05:50:14  -808.365539c -6.06  -3.69    +51.1385
iter:  57 05:51:02  -808.366299c -6.07  -3.76    +51.1407
iter:  58 05:51:49  -808.366676c -6.11  -3.80    +51.1312
iter:  59 05:52:38  -808.366994c -6.31  -3.78    +51.1282
iter:  60 05:53:25  -808.367393c -6.24  -3.87    +51.1226
iter:  61 05:54:13  -808.368226c -6.35  -3.92    +51.1185
iter:  62 05:55:00  -808.368134c -6.46  -3.95    +51.1145
iter:  63 05:55:47  -808.368804c -6.40  -4.00    +51.1108
iter:  64 05:56:35  -808.369461c -6.29  -4.06c   +51.1030
iter:  65 05:57:23  -808.369639c -6.57  -4.05c   +51.1053
iter:  66 05:58:10  -808.369910c -6.65  -4.11c   +51.1006
iter:  67 05:58:57  -808.370392c -6.46  -4.19c   +51.0944
iter:  68 05:59:44  -808.370909c -6.37  -4.19c   +51.0927
iter:  69 06:00:32  -808.371518c -6.37  -4.22c   +51.0915
iter:  70 06:01:19  -808.373392c -5.62  -4.18c   +51.0926
iter:  71 06:02:07  -808.372898c -6.89  -3.98    +51.0981
iter:  72 06:02:54  -808.373609c -6.34  -4.01c   +51.1019
iter:  73 06:03:41  -808.375666c -5.33  -3.97    +51.1180
iter:  74 06:04:29  -808.375865c -5.95  -3.81    +51.1283
iter:  75 06:05:17  -808.375717c -6.71  -3.79    +51.1251
iter:  76 06:06:04  -808.375708c -6.86  -3.82    +51.1346
iter:  77 06:06:53  -808.375652c -6.85  -3.81    +51.1403
iter:  78 06:07:41  -808.374782c -5.41  -3.83    +51.1446
iter:  79 06:08:32  -808.375015c -5.69  -3.63    +51.1437
iter:  80 06:09:21  -808.374280c -6.26  -3.84    +51.1223
iter:  81 06:10:09  -808.374109c -6.93  -4.00c   +51.1151
iter:  82 06:10:58  -808.374453c -6.30  -4.05c   +51.1088
iter:  83 06:11:46  -808.374050c -6.36  -3.90    +51.1031
iter:  84 06:12:35  -808.374572c -6.26  -4.11c   +51.0963
iter:  85 06:13:23  -808.373886c -6.50  -4.00    +51.1007
iter:  86 06:14:11  -808.374083c -6.41  -4.15c   +51.1006
iter:  87 06:15:00  -808.373905c -6.88  -4.10c   +51.0975
iter:  88 06:15:47  -808.373728c -7.04  -4.32c   +51.0958
iter:  89 06:16:34  -808.373761c -7.18  -4.28c   +51.0966
iter:  90 06:17:21  -808.373700c -7.14  -4.37c   +51.0974
iter:  91 06:18:08  -808.373738c -7.21  -4.37c   +51.0952
iter:  92 06:18:56  -808.373549c -7.30  -4.39c   +51.0969
iter:  93 06:19:43  -808.373540c -7.36  -4.49c   +51.0973
iter:  94 06:20:32  -808.373633c -7.32  -4.50c   +51.0972
iter:  95 06:21:20  -808.373512c -7.52c -4.50c   +51.0962

Converged after 95 iterations.

Dipole moment: (29.758493, 17.238926, 7.638094) |e|*Ang

Total magnetic moment: (0.000000, 0.000000, 51.096152)
Local magnetic moments:
   0 Al ( 0.000000,  0.000000, -0.004724)
   1 Fe ( 0.000000,  0.000000,  2.091314)
   2 Cr ( 0.000000,  0.000000, -2.125267)
   3 Cr ( 0.000000,  0.000000,  1.611330)
   4 Ni ( 0.000000,  0.000000,  0.066363)
   5 Al ( 0.000000,  0.000000, -0.009329)
   6 Al ( 0.000000,  0.000000, -0.014674)
   7 Ni ( 0.000000,  0.000000,  0.302705)
   8 Fe ( 0.000000,  0.000000,  2.328149)
   9 Co ( 0.000000,  0.000000,  0.956465)
  10 Ni ( 0.000000,  0.000000,  0.253936)
  11 Fe ( 0.000000,  0.000000,  2.058705)
  12 Fe ( 0.000000,  0.000000,  2.062607)
  13 Co ( 0.000000,  0.000000,  1.328489)
  14 Cr ( 0.000000,  0.000000, -2.062442)
  15 Co ( 0.000000,  0.000000,  0.944241)
  16 Fe ( 0.000000,  0.000000,  2.064118)
  17 Al ( 0.000000,  0.000000, -0.037857)
  18 Fe ( 0.000000,  0.000000,  2.247486)
  19 Fe ( 0.000000,  0.000000,  2.203749)
  20 Cr ( 0.000000,  0.000000, -1.948468)
  21 Co ( 0.000000,  0.000000,  1.129316)
  22 Al ( 0.000000,  0.000000, -0.035465)
  23 Fe ( 0.000000,  0.000000,  2.193342)
  24 Ni ( 0.000000,  0.000000,  0.082368)
  25 Al ( 0.000000,  0.000000, -0.013683)
  26 Ni ( 0.000000,  0.000000,  0.296875)
  27 Cr ( 0.000000,  0.000000, -1.294541)
  28 Fe ( 0.000000,  0.000000,  2.357246)
  29 Ni ( 0.000000,  0.000000,  0.206258)
  30 Ni ( 0.000000,  0.000000,  0.322519)
  31 Ni ( 0.000000,  0.000000,  0.268503)
  32 Co ( 0.000000,  0.000000,  1.190609)
  33 Cr ( 0.000000,  0.000000, -2.024033)
  34 Fe ( 0.000000,  0.000000,  2.091873)
  35 Ni ( 0.000000,  0.000000,  0.164453)
  36 Fe ( 0.000000,  0.000000,  1.912566)
  37 Co ( 0.000000,  0.000000,  0.840626)
  38 Cr ( 0.000000,  0.000000, -1.714135)
  39 Ni ( 0.000000,  0.000000, -0.006374)
  40 Al ( 0.000000,  0.000000,  0.001880)
  41 Al ( 0.000000,  0.000000, -0.000265)
  42 Cr ( 0.000000,  0.000000, -1.778302)
  43 Al ( 0.000000,  0.000000, -0.005403)
  44 Al ( 0.000000,  0.000000, -0.003460)
  45 Co ( 0.000000,  0.000000,  0.267016)
  46 Cr ( 0.000000,  0.000000, -1.626687)
  47 Ni ( 0.000000,  0.000000,  0.233952)
  48 Fe ( 0.000000,  0.000000,  2.200065)
  49 Fe ( 0.000000,  0.000000,  1.961451)
  50 Al ( 0.000000,  0.000000, -0.029888)
  51 Co ( 0.000000,  0.000000,  1.265781)
  52 Co ( 0.000000,  0.000000,  1.021310)
  53 Ni ( 0.000000,  0.000000,  0.361248)
  54 Ni ( 0.000000,  0.000000,  0.098103)
  55 Co ( 0.000000,  0.000000,  1.143549)
  56 Al ( 0.000000,  0.000000, -0.009639)
  57 Cr ( 0.000000,  0.000000, -1.511380)
  58 Ni ( 0.000000,  0.000000,  0.118856)
  59 Cr ( 0.000000,  0.000000, -1.688464)
  60 Co ( 0.000000,  0.000000,  1.018531)
  61 Cr ( 0.000000,  0.000000, -1.086920)
  62 Fe ( 0.000000,  0.000000,  2.207172)
  63 Fe ( 0.000000,  0.000000,  2.135557)
  64 Al ( 0.000000,  0.000000, -0.028513)
  65 Ni ( 0.000000,  0.000000,  0.329270)
  66 Co ( 0.000000,  0.000000,  1.079882)
  67 Cr ( 0.000000,  0.000000,  2.097770)
  68 Ni ( 0.000000,  0.000000,  0.171506)
  69 Ni ( 0.000000,  0.000000,  0.183822)
  70 Fe ( 0.000000,  0.000000,  1.667731)
  71 Cr ( 0.000000,  0.000000,  1.219008)
  72 Co ( 0.000000,  0.000000,  0.478601)
  73 Al ( 0.000000,  0.000000, -0.014417)
  74 Cr ( 0.000000,  0.000000, -1.877285)
  75 Co ( 0.000000,  0.000000,  0.054763)
  76 Co ( 0.000000,  0.000000,  0.965929)
  77 Al ( 0.000000,  0.000000, -0.021069)
  78 Co ( 0.000000,  0.000000,  1.349021)
  79 Cr ( 0.000000,  0.000000,  0.991223)
  80 Ni ( 0.000000,  0.000000,  0.322246)
  81 Fe ( 0.000000,  0.000000,  2.060562)
  82 Ni ( 0.000000,  0.000000,  0.246989)
  83 Fe ( 0.000000,  0.000000,  2.156063)
  84 Cr ( 0.000000,  0.000000, -1.414503)
  85 Cr ( 0.000000,  0.000000, -1.493202)
  86 Cr ( 0.000000,  0.000000, -1.544026)
  87 Al ( 0.000000,  0.000000, -0.019171)
  88 Cr ( 0.000000,  0.000000,  1.703924)
  89 Al ( 0.000000,  0.000000, -0.045383)
  90 Co ( 0.000000,  0.000000,  1.079339)
  91 Ni ( 0.000000,  0.000000,  0.179620)
  92 Cr ( 0.000000,  0.000000, -1.654555)
  93 Co ( 0.000000,  0.000000,  1.278736)
  94 Ni ( 0.000000,  0.000000,  0.223541)
  95 Fe ( 0.000000,  0.000000,  1.985576)
  96 Al ( 0.000000,  0.000000, -0.033071)
  97 Al ( 0.000000,  0.000000, -0.008829)
  98 Fe ( 0.000000,  0.000000,  2.061597)
  99 Co ( 0.000000,  0.000000,  1.035564)
 100 Fe ( 0.000000,  0.000000,  2.328982)
 101 Co ( 0.000000,  0.000000,  1.221016)
 102 Al ( 0.000000,  0.000000, -0.046174)
 103 Fe ( 0.000000,  0.000000,  2.333376)
 104 Co ( 0.000000,  0.000000,  1.113637)
 105 Ni ( 0.000000,  0.000000,  0.322183)
 106 Al ( 0.000000,  0.000000, -0.029666)
 107 Cr ( 0.000000,  0.000000,  1.514410)

Energy contributions relative to reference atoms: (reference = -3235165.067515)

Kinetic:       +244.278877
Potential:     -238.310125
External:        +0.000000
XC:            -843.774439
Entropy (-ST):   -3.918402
Local:          +31.391377
--------------------------
Free energy:   -810.332713
Extrapolated:  -808.373512

Spin contamination: 32.141346 electrons
Showing only first 2 kpts
                      Up                     Down
 Kpt  Band  Eigenvalues  Occupancy  Eigenvalues  Occupancy
  0   454      9.01911    0.99493      9.88136    0.03412
  0   455      9.03856    0.99385      9.88921    0.03163
  0   456      9.05345    0.99287      9.90374    0.02747
  0   457      9.07662    0.99102      9.91589    0.02440

  1   454      9.02420    0.99467      9.87279    0.03706
  1   455      9.04247    0.99360      9.88176    0.03399
  1   456      9.05765    0.99256      9.89383    0.03024
  1   457      9.07287    0.99135      9.91000    0.02584


Fermi level: 9.54705

No gap

Forces in eV/Ang:
  0 Al   -0.43003   -0.60080   -0.36804
  1 Fe    0.26778    0.01133    0.21654
  2 Cr   -0.09714    0.20690   -0.24421
  3 Cr    0.09739   -0.29668   -0.42275
  4 Ni   -0.22734    0.18327    0.04753
  5 Al    0.49201   -0.11895    0.26805
  6 Al   -0.67359    0.24471   -0.29790
  7 Ni   -0.27704   -0.12743    0.14429
  8 Fe    0.20516   -0.01782   -0.01455
  9 Co   -0.14870    0.12093    0.18922
 10 Ni    0.03185   -0.11494    0.12792
 11 Fe   -0.17325    0.10704    0.40410
 12 Fe   -0.02703    0.32437   -0.16481
 13 Co    0.57311    0.05625    0.00148
 14 Cr   -0.85883   -0.02328   -0.12172
 15 Co   -0.12645   -0.15917   -0.10883
 16 Fe    0.02764    0.31123    0.01658
 17 Al   -0.07021    0.36328    0.35422
 18 Fe    0.09147   -0.08969    0.11187
 19 Fe    0.30551   -0.05951   -0.11445
 20 Cr   -0.40837    0.06894   -0.18533
 21 Co   -0.10990   -0.03912    0.24510
 22 Al   -0.11242   -0.24668    0.36847
 23 Fe   -0.14798   -0.00702   -0.19218
 24 Ni    0.21646    0.33859   -0.29039
 25 Al   -0.25736   -0.34590   -0.57932
 26 Ni    0.00383   -0.22414    0.08284
 27 Cr    0.28663   -0.09837   -0.22346
 28 Fe   -0.42575    0.29970   -0.06090
 29 Ni    0.15146    0.11308    0.45749
 30 Ni   -0.30108   -0.28549   -0.12736
 31 Ni   -0.01945    0.03060    0.09815
 32 Co   -0.02417   -0.14777    0.24770
 33 Cr    0.34387   -0.36826   -0.20100
 34 Fe   -0.24465   -0.34835   -0.15806
 35 Ni    0.56171    0.16349   -0.28229
 36 Fe    0.15898    0.48036    0.18815
 37 Co    0.23502   -0.39202    0.16637
 38 Cr   -0.79512   -0.09327    0.74350
 39 Ni    0.24158   -0.12924   -0.00318
 40 Al    0.50853    0.14169    0.04507
 41 Al   -0.50347   -0.07007   -0.68195
 42 Cr   -0.00513   -0.03563    0.03005
 43 Al    0.19690    0.25730    0.24828
 44 Al   -0.04876    0.79423   -0.20677
 45 Co   -0.29896   -0.22989   -0.12224
 46 Cr    0.29059    0.11479    0.36573
 47 Ni    0.03972    0.04481   -0.41085
 48 Fe   -0.07479    0.07187   -0.06736
 49 Fe    0.03238   -0.12072    0.08452
 50 Al    0.41897   -0.14745   -0.33253
 51 Co   -0.18095   -0.09551    0.12112
 52 Co    0.03813    0.18186   -0.23125
 53 Ni   -0.11521   -0.01917    0.09781
 54 Ni    0.27987   -0.28695   -0.27645
 55 Co    0.03325   -0.14019   -0.07565
 56 Al    0.22044   -0.70338   -0.28585
 57 Cr   -0.29309    0.99711    0.30549
 58 Ni   -0.29255    0.11812   -0.12116
 59 Cr    0.56551    0.66156    0.14128
 60 Co    0.04052   -0.18710   -0.05171
 61 Cr    0.05297    0.04304   -0.27723
 62 Fe   -0.27620    0.09175   -0.04392
 63 Fe   -0.11989    0.08455    0.09229
 64 Al   -0.16426   -0.35796   -0.26562
 65 Ni   -0.42636    0.23387   -0.02533
 66 Co    0.04763   -0.22438    0.21977
 67 Cr    0.80906    0.15704    0.14415
 68 Ni   -0.01433   -0.14749    0.14346
 69 Ni    0.24976    0.07483   -0.15994
 70 Fe    0.08465   -0.31161   -0.26891
 71 Cr   -0.16553   -0.18979    0.81921
 72 Co    0.37525   -0.20811   -0.30396
 73 Al   -0.42649   -0.57313    0.04226
 74 Cr    0.08967    0.17877    0.11138
 75 Co    0.04970    0.34898   -0.08355
 76 Co   -0.05592   -0.25478    0.07224
 77 Al    0.44002   -0.20140    0.44009
 78 Co   -0.04038   -0.22794   -0.02076
 79 Cr    0.49460    0.09116    0.01500
 80 Ni   -0.21243   -0.04963   -0.29827
 81 Fe   -0.14429    0.15257    0.23414
 82 Ni    0.44539   -0.05022    0.29468
 83 Fe    0.15653    0.14798   -0.34031
 84 Cr   -0.33023    0.36989   -0.41155
 85 Cr    0.30631   -0.10562    0.48340
 86 Cr    0.01272   -0.05197    0.24647
 87 Al    0.16589    0.24314   -0.21228
 88 Cr    0.01631    0.38645    0.38542
 89 Al    0.21850    0.26071   -0.01417
 90 Co    0.14273    0.20992    0.00891
 91 Ni   -0.27779   -0.01422    0.33677
 92 Cr    0.05838   -0.29965    0.13861
 93 Co    0.02544   -0.20524   -0.10903
 94 Ni    0.25393    0.12606   -0.12017
 95 Fe    0.05071   -0.31960    0.05644
 96 Al    0.29268   -0.54746    0.54492
 97 Al   -0.83214   -0.17285   -0.16065
 98 Fe   -0.24324   -0.03071    0.28274
 99 Co   -0.14020   -0.01567   -0.09211
100 Fe   -0.25882   -0.13290   -0.09591
101 Co   -0.26725    0.35491   -0.12971
102 Al    0.51444   -0.12213    0.14227
103 Fe    0.06948    0.36022   -0.30703
104 Co   -0.02789   -0.04161   -0.29915
105 Ni   -0.07136   -0.28906    0.04709
106 Al   -0.29406    0.58936    0.17626
107 Cr    0.18123    0.20549   -0.33171

Timing:                              incl.     excl.
-----------------------------------------------------------
Forces:                             12.907    12.907   0.3% |
Hamiltonian:                         0.725     0.004   0.0% |
 Atomic:                             0.245     0.176   0.0% |
  XC Correction:                     0.069     0.069   0.0% |
 Calculate atomic Hamiltonians:      0.304     0.304   0.0% |
 Communicate:                        0.033     0.033   0.0% |
 Initialize Hamiltonian:             0.000     0.000   0.0% |
 Poisson:                            0.001     0.001   0.0% |
 XC 3D grid:                         0.139     0.139   0.0% |
LCAO initialization:                56.918     1.140   0.0% |
 LCAO eigensolver:                   5.637     0.005   0.0% |
  Calculate projections:             0.079     0.079   0.0% |
  DenseAtomicCorrection:             0.073     0.073   0.0% |
  Distribute overlap matrix:         1.269     1.269   0.0% |
  Orbital Layouts:                   2.568     2.568   0.1% |
  Potential matrix:                  1.315     1.315   0.0% |
  Sum over cells:                    0.328     0.328   0.0% |
 LCAO to grid:                      48.404    48.404   1.0% |
 Set positions (LCAO WFS):           1.737     1.024   0.0% |
  Basic WFS set positions:           0.004     0.004   0.0% |
  Basis functions set positions:     0.001     0.001   0.0% |
  P tci:                             0.167     0.167   0.0% |
  ST tci:                            0.182     0.182   0.0% |
  mktci:                             0.359     0.359   0.0% |
PWDescriptor:                        0.076     0.076   0.0% |
SCF-cycle:                        4610.196    43.968   0.9% |
 Davidson:                        4401.479  1354.275  28.9% |-----------|
  Apply H:                          44.103    42.602   0.9% |
   HMM T:                            1.501     1.501   0.0% |
  Subspace diag:                   393.042     0.039   0.0% |
   calc_h_matrix:                  149.567    97.491   2.1% ||
    Apply H:                        52.076    50.712   1.1% |
     HMM T:                          1.364     1.364   0.0% |
   diagonalize:                     66.844    66.844   1.4% ||
   rotate_psi:                     176.592   176.592   3.8% |-|
  calc. matrices:                  850.806   760.995  16.2% |-----|
   Apply H:                         89.811    86.856   1.9% ||
    HMM T:                           2.954     2.954   0.1% |
  diagonalize:                    1373.517  1373.517  29.3% |-----------|
  rotate_psi:                      385.735   385.735   8.2% |--|
 Density:                           75.119     0.002   0.0% |
  Atomic density matrices:           1.838     1.838   0.0% |
  Mix:                              50.674    50.674   1.1% |
  Multipole moments:                 0.077     0.077   0.0% |
  Pseudo density:                   22.527    22.522   0.5% |
   Symmetrize density:               0.005     0.005   0.0% |
 Hamiltonian:                       84.420     2.078   0.0% |
  Atomic:                           20.412    13.688   0.3% |
   XC Correction:                    6.723     6.723   0.1% |
  Calculate atomic Hamiltonians:    43.010    43.010   0.9% |
  Communicate:                       4.262     4.262   0.1% |
  Poisson:                           0.037     0.037   0.0% |
  XC 3D grid:                       14.621    14.621   0.3% |
 Orthonormalize:                     5.211     0.001   0.0% |
  calc_s_matrix:                     0.582     0.582   0.0% |
  inverse-cholesky:                  0.328     0.328   0.0% |
  projections:                       3.401     3.401   0.1% |
  rotate_psi_s:                      0.899     0.899   0.0% |
Set symmetry:                        0.001     0.001   0.0% |
Other:                               3.331     3.331   0.1% |
-----------------------------------------------------------
Total:                                      4684.155 100.0%

Date: Sat Apr  8 06:21:34 2023
