
  ___ ___ ___ _ _ _  
 |   |   |_  | | | | 
 | | | | | . | | | | 
 |__ |  _|___|_____|  22.8.0
 |___|_|             

User:   c.zeng@d0088
Date:   Wed Apr 19 17:06:49 2023
Arch:   x86_64
Pid:    14338
CWD:    /home/c.zeng/projects/hea-corrosion/hea-mlp/data-curation/surface-mcmc/dft-jobs/216
Python: 3.8.1
gpaw:   /home/c.zeng/usr/installs/gpaw/source/gpaw-22.8.0/gpaw
_gpaw:  /home/c.zeng/usr/installs/gpaw/source/gpaw-22.8.0/
        _gpaw.cpython-38-x86_64-linux-gnu.so
ase:    /home/c.zeng/.local/lib/python3.8/site-packages/ase-3.22.1-py3.8.egg/ase (version 3.22.1)
numpy:  /home/c.zeng/.local/lib/python3.8/site-packages/numpy (version 1.24.2)
scipy:  /home/c.zeng/.local/lib/python3.8/site-packages/scipy (version 1.10.1)
libxc:  4.2.3
units:  Angstrom and eV
cores: 30
OpenMP: False
OMP_NUM_THREADS: 1

Input parameters:
  convergence: {energy: 0.0001}
  kpts: [2 2 1]
  maxiter: 666
  mode: {ecut: 350.0,
         name: pw}
  occupations: {fixmagmom: False,
                name: fermi-dirac,
                width: 0.1}
  poissonsolver: {dipolelayer: xy}
  spinpol: True
  symmetry: {point_group: False}
  xc: PBE

System changes: positions, numbers, cell, pbc, initial_charges, initial_magmoms 

Initialize ...

species:
  Co:
    name: Cobalt
    id: 339d20d5b0b93d2de9531a1bee871d91
    Z: 27.0
    valence: 9
    core: 18
    charge: 0.0
    file: /home/c.zeng/usr/data/gpaw-setups-0.9.20000/Co.PBE.gz
    compensation charges: {type: gauss,
                           rc: 0.32,
                           lmax: 2}
    cutoffs: {filter: 1.87,
              core: 2.55}
    valence states:
      #              energy  rcut
      - 4s(2.00)    -5.469   1.005
      - 4p(0.00)    -1.277   1.058
      - 3d(7.00)    -8.205   1.005
      -  s          21.742   1.005
      -  p          25.934   1.058
      -  d          19.007   1.005
  
    # Using partial waves for Co as LCAO basis

  Al:
    name: Aluminium
    id: 0292cae29f5d6237e50f6abdd43a7bdd
    Z: 13.0
    valence: 3
    core: 10
    charge: 0.0
    file: /home/c.zeng/usr/data/gpaw-setups-0.9.20000/Al.PBE.gz
    compensation charges: {type: gauss,
                           rc: 0.34,
                           lmax: 2}
    cutoffs: {filter: 1.91,
              core: 2.36}
    valence states:
      #              energy  rcut
      - 3s(2.00)    -7.753   1.085
      - 3p(1.00)    -2.712   1.085
      -  s          19.459   1.085
      -  p          24.499   1.085
      -  d           0.000   1.085
  
    # Using partial waves for Al as LCAO basis

  Cr:
    name: Chromium
    id: 33f258bda2ca9f93018e70263a35547b
    Z: 24.0
    valence: 6
    core: 18
    charge: 0.0
    file: /home/c.zeng/usr/data/gpaw-setups-0.9.20000/Cr.PBE.gz
    compensation charges: {type: gauss,
                           rc: 0.35,
                           lmax: 2}
    cutoffs: {filter: 2.14,
              core: 3.04}
    valence states:
      #              energy  rcut
      - 4s(1.00)    -4.007   1.164
      - 4p(0.00)    -0.989   1.217
      - 3d(5.00)    -2.913   1.111
      -  s          23.205   1.164
      -  p          26.223   1.217
      -  d          24.299   1.111
  
    # Using partial waves for Cr as LCAO basis

  Ni:
    name: Nickel
    id: 0d9f38a9d6e76a2886f07bb4381f212b
    Z: 28.0
    valence: 16
    core: 12
    charge: 0.0
    file: /home/c.zeng/usr/data/gpaw-setups-0.9.20000/Ni.PBE.gz
    compensation charges: {type: gauss,
                           rc: 0.36,
                           lmax: 2}
    cutoffs: {filter: 2.14,
              core: 1.98}
    valence states:
      #              energy  rcut
      - 4s(2.00)    -5.642   1.164
      - 3p(6.00)   -71.394   1.207
      - 4p(0.00)    -1.226   1.207
      - 3d(8.00)    -8.875   1.138
      -  s          21.570   1.164
      -  d          18.337   1.138
  
    # Using partial waves for Ni as LCAO basis

  Fe:
    name: Iron
    id: 37abbd8d6c3c35915a9b583b742da910
    Z: 26.0
    valence: 8
    core: 18
    charge: 0.0
    file: /home/c.zeng/usr/data/gpaw-setups-0.9.20000/Fe.PBE.gz
    compensation charges: {type: gauss,
                           rc: 0.33,
                           lmax: 2}
    cutoffs: {filter: 2.06,
              core: 2.67}
    valence states:
      #              energy  rcut
      - 4s(2.00)    -5.291   1.164
      - 4p(0.00)    -1.326   1.058
      - 3d(6.00)    -7.505   1.058
      -  s          21.920   1.164
      -  p          25.885   1.058
      -  d          19.706   1.058
  
    # Using partial waves for Fe as LCAO basis

Reference energy: -3726899.091688  # eV

Spin-polarized calculation.
Magnetic moment: 140.000000

Convergence criteria:
 Maximum [total energy] change in last 3 cyles: 0.0001 eV / electron
 Maximum integral of absolute [dens]ity change: 0.0001 electrons / valence electron
 Maximum integral of absolute [eigenst]ate change: 4e-08 eV^2 / valence electron
 Maximum number of scf [iter]ations: 666
 (Square brackets indicate name in SCF output, whereas a 'c' in
 the SCF output indicates the quantity has converged.)

Symmetries present (total): 1

  ( 1  0  0)
  ( 0  1  0)
  ( 0  0  1)

4 k-points: 2 x 2 x 1 Monkhorst-Pack grid
2 k-points in the irreducible part of the Brillouin zone
       k-points in crystal coordinates                weights
   0:     0.25000000   -0.25000000    0.00000000          2/4
   1:     0.25000000    0.25000000    0.00000000          2/4

Wave functions: Plane wave expansion
  Cutoff energy: 350.000 eV
  Number of coefficients (min, max): 60935, 60955
  Pulay-stress correction: 0.000000 eV/Ang^3 (de/decut=0.000000)
  Using FFTW library
  ScaLapack parameters: grid=1x1, blocksize=None
  Wavefunction extrapolation:
    Improved wavefunction reuse through dual PAW basis 

Occupation numbers: Fermi-Dirac:
  width: 0.1000  # eV
 

Eigensolver
   Davidson(niter=2) 

Densities:
  Coarse grid: 56*56*128 grid
  Fine grid: 112*112*256 grid
  Total Charge: 0.000000 

Density mixing:
  Method: difference
  Backend: pulay
  Linear mixing parameter: 0.05
  old densities: 5
  Damping of long wavelength oscillations: 50 

Hamiltonian:
  XC and Coulomb potentials evaluated on a 112*112*256 grid
  Using the PBE Exchange-Correlation functional
  External potential:
    NoExternalPotential
 

XC parameters: PBE with 2 nearest neighbor stencil

Memory estimate:
  Process memory now: 379.56 MiB
  Calculator: 2131.41 MiB
    Density: 19.02 MiB
      Arrays: 7.39 MiB
      Localized functions: 8.68 MiB
      Mixer: 2.95 MiB
    Hamiltonian: 5.75 MiB
      Arrays: 5.49 MiB
      XC: 0.00 MiB
      Poisson: 0.00 MiB
      vbar: 0.26 MiB
    Wavefunctions: 2106.64 MiB
      Arrays psit_nG: 1335.62 MiB
      Eigensolver: 751.15 MiB
      Projections: 3.10 MiB
      Projectors: 1.18 MiB
      PW-descriptor: 15.59 MiB

Total number of cores used: 30
Parallelization over k-points: 2
Domain decomposition: 1 x 3 x 5

Number of atoms: 125
Number of atomic orbitals: 1075
Number of bands in calculation: 718
Number of valence electrons: 1050
Bands to converge: occupied

... initialized

Initializing position-dependent things.

Density initialized from atomic densities
Creating initial wave functions:
  718 bands from LCAO basis set

                                                                  
                                                                  
                                                                  
                                                                  
                          Fe    Al           Cr    Fe             
                                  Cr                              
                      Cr    Ni          Cr    Cr                  
                       Al    NAl   CFe   AAl    Fe    Al          
                   Al   NCr   CrAl   CNi   NFe   Ni               
        Al                 Fe    Co                               
               Ni   CCo  ANi   CCr    NCr   FNi   Cr              
                Fe   NAl   CCr   CFe     Cr   Al                  
           Ni    Co     Al    AlCo  Ni  Cr               Co       
                 Ni   CFe   FAl   NCo   CFe    Co                 
            Co   CFe    Fe    CCo   NAl                           
        Ni    Al    Ni    Cr Fe Co Al    CCr    Co    Al          
             Al    Ni   FNi    Cr    FFe   Fe    Fe               
               Fe   AAl   CNi   FFe    Ni    Co                   
                 Fe          Ni        Cr                         
                Cr    CAl   Co    Al    Co                        
           Al    Cr     Cr    Ni    Co                            
                                                                  
                                                                  
                                                                  
                                                                  
                                                                  

Positions:
   0 Co    12.697578    1.490688   10.582791    ( 0.0000,  0.0000,  2.1000)
   1 Al     2.542164    1.500437   10.627261    ( 0.0000,  0.0000,  2.0000)
   2 Cr     5.051596    1.499469   10.598054    ( 0.0000,  0.0000,  2.1000)
   3 Cr     7.634905    1.492702   10.546246    ( 0.0000,  0.0000,  2.0000)
   4 Ni    10.187798    1.493538   10.639090    ( 0.0000,  0.0000,  2.1000)
   5 Co    13.968644    3.696637   10.562654    ( 0.0000,  0.0000,  2.0000)
   6 Cr     3.815030    3.662669   10.568965    ( 0.0000,  0.0000,  2.1000)
   7 Cr     6.371550    3.676864   10.379256    ( 0.0000,  0.0000,  0.0000)
   8 Co     8.929883    3.680660   10.627114    ( 0.0000,  0.0000,  2.1000)
   9 Al    11.419281    3.649344   10.658345    ( 0.0000,  0.0000,  2.1000)
  10 Co    15.274513    5.897370   10.548477    ( 0.0000,  0.0000,  2.0000)
  11 Al     5.059810    5.865944   10.632192    ( 0.0000,  0.0000,  2.0000)
  12 Co     7.645770    5.857944   10.631253    ( 0.0000,  0.0000,  2.1000)
  13 Fe    10.112359    5.849582   10.633748    ( 0.0000,  0.0000,  2.1000)
  14 Cr    12.664006    5.872612   10.350226    ( 0.0000,  0.0000,  0.0000)
  15 Fe    16.518089    8.029617   10.573985    ( 0.0000,  0.0000,  2.0000)
  16 Fe     6.372474    8.042931   10.433618    ( 0.0000,  0.0000,  0.0000)
  17 Co     8.899359    8.058149   10.655528    ( 0.0000,  0.0000,  2.1000)
  18 Fe    11.347730    8.053396   10.581235    ( 0.0000,  0.0000,  0.0000)
  19 Fe    13.974474    8.072476   10.508234    ( 0.0000,  0.0000,  1.5000)
  20 Al    17.786763   10.267487   10.540522    ( 0.0000,  0.0000,  1.5000)
  21 Fe     7.620185   10.288537   10.551618    ( 0.0000,  0.0000,  1.5000)
  22 Al    10.097013   10.262150   10.527196    ( 0.0000,  0.0000,  0.0000)
  23 Co    12.628341   10.288140   10.200907    ( 0.0000,  0.0000,  0.0000)
  24 Co    15.305799   10.302687   10.215701    ( 0.0000,  0.0000,  0.0000)
  25 Co    18.929799   10.964438   12.614348    ( 0.0000,  0.0000,  0.0000)
  26 Co     8.907314   10.932825   12.633339    ( 0.0000,  0.0000,  0.0000)
  27 Fe     5.161938    0.027744   12.591364    ( 0.0000,  0.0000,  0.0000)
  28 Al     7.639849   -0.017272   12.455019    ( 0.0000,  0.0000,  2.0000)
  29 Ni    10.112151   -0.034156   12.574340    ( 0.0000,  0.0000,  0.0000)
  30 Ni    13.898459    2.274577   12.629494    ( 0.0000,  0.0000,  0.0000)
  31 Fe     3.834283    2.207500   12.641705    ( 0.0000,  0.0000,  1.5000)
  32 Al     6.373751    2.258204   12.578625    ( 0.0000,  0.0000,  1.5000)
  33 Ni     8.903971    2.228935   12.670354    ( 0.0000,  0.0000,  0.0000)
  34 Fe    11.398903    2.240324   12.667418    ( 0.0000,  0.0000,  2.1000)
  35 Al     2.693918    4.433332   12.569320    ( 0.0000,  0.0000,  0.0000)
  36 Ni     5.180997    4.392564   12.579271    ( 0.0000,  0.0000,  2.0000)
  37 Ni     7.640404    4.433761   12.623682    ( 0.0000,  0.0000,  1.5000)
  38 Cr    10.149737    4.418753   12.659728    ( 0.0000,  0.0000,  2.1000)
  39 Fe    12.642941    4.469149   12.588547    ( 0.0000,  0.0000,  0.0000)
  40 Co     3.879740    6.581821   12.636392    ( 0.0000,  0.0000,  2.0000)
  41 Ni     6.395207    6.593022   12.619455    ( 0.0000,  0.0000,  0.0000)
  42 Cr     8.882544    6.578464   12.632987    ( 0.0000,  0.0000,  2.0000)
  43 Ni    11.378039    6.588192   12.568968    ( 0.0000,  0.0000,  1.5000)
  44 Cr    13.955999    6.597324   12.503922    ( 0.0000,  0.0000,  0.0000)
  45 Co     5.115939    8.711196   12.577128    ( 0.0000,  0.0000,  2.0000)
  46 Fe     7.617963    8.744371   12.628555    ( 0.0000,  0.0000,  1.5000)
  47 Ni    10.162962    8.726392   12.644406    ( 0.0000,  0.0000,  1.5000)
  48 Cr    12.676321    8.832597   12.504509    ( 0.0000,  0.0000,  1.5000)
  49 Co    15.240247    8.741951   12.606188    ( 0.0000,  0.0000,  0.0000)
  50 Ni     1.269616    0.713733   14.695512    ( 0.0000,  0.0000,  2.1000)
  51 Al     3.799097    0.728240   14.717292    ( 0.0000,  0.0000,  0.0000)
  52 Ni     6.399959    0.810401   14.610329    ( 0.0000,  0.0000,  2.1000)
  53 Cr     8.880072    0.764388   14.691902    ( 0.0000,  0.0000,  1.5000)
  54 Co    11.370392    0.737436   14.704406    ( 0.0000,  0.0000,  1.5000)
  55 Co     2.596190    2.870472   14.732086    ( 0.0000,  0.0000,  0.0000)
  56 Fe     5.091424    2.954792   14.649428    ( 0.0000,  0.0000,  0.0000)
  57 Fe     7.608212    2.991224   14.707811    ( 0.0000,  0.0000,  2.1000)
  58 Co    10.154418    2.949686   14.778640    ( 0.0000,  0.0000,  2.1000)
  59 Al    12.643335    2.944834   14.730413    ( 0.0000,  0.0000,  0.0000)
  60 Ni     3.883223    5.134376   14.743182    ( 0.0000,  0.0000,  0.0000)
  61 Fe     6.365651    5.154303   14.674026    ( 0.0000,  0.0000,  2.1000)
  62 Al     8.874207    5.127400   14.687176    ( 0.0000,  0.0000,  2.1000)
  63 Co    11.381160    5.128401   14.701764    ( 0.0000,  0.0000,  1.5000)
  64 Fe    13.994437    5.150045   14.709073    ( 0.0000,  0.0000,  0.0000)
  65 Ni     5.105303    7.314819   14.691491    ( 0.0000,  0.0000,  0.0000)
  66 Co     7.621049    7.313641   14.679104    ( 0.0000,  0.0000,  2.0000)
  67 Co    10.101824    7.296971   14.657206    ( 0.0000,  0.0000,  0.0000)
  68 Cr    12.701036    7.418890   14.544344    ( 0.0000,  0.0000,  0.0000)
  69 Al    15.272539    7.347367   14.706285    ( 0.0000,  0.0000,  2.0000)
  70 Al     6.372338    9.509071   14.708838    ( 0.0000,  0.0000,  0.0000)
  71 Co     8.874214    9.489484   14.713828    ( 0.0000,  0.0000,  1.5000)
  72 Ni    11.385336    9.581859   14.631493    ( 0.0000,  0.0000,  2.1000)
  73 Fe    13.954574    9.609885   14.606455    ( 0.0000,  0.0000,  2.1000)
  74 Cr    16.558825    9.502579   14.642677    ( 0.0000,  0.0000,  0.0000)
  75 Ni    12.678535    1.403816   16.741746    ( 0.0000,  0.0000,  0.0000)
  76 Ni     2.534863    1.419242   16.733997    ( 0.0000,  0.0000,  2.1000)
  77 Co     5.032024    1.508844   16.664371    ( 0.0000,  0.0000,  1.5000)
  78 Al     7.624501    1.526769   16.714506    ( 0.0000,  0.0000,  2.0000)
  79 Al    10.140089    1.502748   16.858366    ( 0.0000,  0.0000,  2.0000)
  80 Cr    14.024748    3.670735   16.858777    ( 0.0000,  0.0000,  0.0000)
  81 Cr     3.842392    3.667775   16.756276    ( 0.0000,  0.0000,  0.0000)
  82 Al     6.334927    3.681056   16.705378    ( 0.0000,  0.0000,  0.0000)
  83 Cr     8.882482    3.670933   16.761471    ( 0.0000,  0.0000,  2.1000)
  84 Fe    11.419526    3.695856   16.803945    ( 0.0000,  0.0000,  2.0000)
  85 Ni    15.257368    5.911564   16.801303    ( 0.0000,  0.0000,  1.5000)
  86 Cr     5.087177    5.870422   16.771246    ( 0.0000,  0.0000,  0.0000)
  87 Ni     7.609371    5.857537   16.712716    ( 0.0000,  0.0000,  2.0000)
  88 Cr    10.109019    5.830149   16.764730    ( 0.0000,  0.0000,  1.5000)
  89 Cr    12.675452    5.872392   16.756129    ( 0.0000,  0.0000,  2.1000)
  90 Ni    16.524277    8.015940   16.738312    ( 0.0000,  0.0000,  2.1000)
  91 Ni     6.365933    8.035031   16.712716    ( 0.0000,  0.0000,  2.1000)
  92 Cr     8.835843    8.056003   16.741658    ( 0.0000,  0.0000,  2.0000)
  93 Co    11.351160    8.059051   16.752372    ( 0.0000,  0.0000,  0.0000)
  94 Ni    13.956058    8.042161   16.704057    ( 0.0000,  0.0000,  1.5000)
  95 Al    17.805404   10.218279   16.745210    ( 0.0000,  0.0000,  0.0000)
  96 Ni     7.627525   10.221888   16.720318    ( 0.0000,  0.0000,  2.1000)
  97 Co    10.100033   10.295513   16.718880    ( 0.0000,  0.0000,  1.5000)
  98 Al    12.667792   10.363481   16.695163    ( 0.0000,  0.0000,  0.0000)
  99 Fe    15.313358   10.247516   16.718322    ( 0.0000,  0.0000,  0.0000)
 100 Fe     6.385878   10.951211   18.797109    ( 0.0000,  0.0000,  0.0000)
 101 Al     8.871549   10.998570   18.734029    ( 0.0000,  0.0000,  0.0000)
 102 Fe     5.012222    0.026603   18.714245    ( 0.0000,  0.0000,  2.0000)
 103 Cr    13.906085   10.955272   18.815278    ( 0.0000,  0.0000,  0.0000)
 104 Fe    16.555065   10.890208   19.190793    ( 0.0000,  0.0000,  0.0000)
 105 Al     1.301962    2.175788   18.880296    ( 0.0000,  0.0000,  0.0000)
 106 Ni     3.763381    2.154408   18.701741    ( 0.0000,  0.0000,  2.0000)
 107 Co     6.282513    2.143955   18.673151    ( 0.0000,  0.0000,  1.5000)
 108 Fe     8.786510    2.178935   18.943933    ( 0.0000,  0.0000,  0.0000)
 109 Co    11.486117    2.202240   18.868055    ( 0.0000,  0.0000,  0.0000)
 110 Fe    15.251278    4.387183   18.855257    ( 0.0000,  0.0000,  1.5000)
 111 Al     5.107352    4.303073   18.990839    ( 0.0000,  0.0000,  0.0000)
 112 Cr     7.597350    4.408838   18.714597    ( 0.0000,  0.0000,  2.0000)
 113 Al    10.211555    4.416706   18.931135    ( 0.0000,  0.0000,  0.0000)
 114 Ni    12.733768    4.452313   18.836295    ( 0.0000,  0.0000,  1.5000)
 115 Fe    16.467351    6.659351   18.958316    ( 0.0000,  0.0000,  0.0000)
 116 Al     6.329237    6.609791   18.727483    ( 0.0000,  0.0000,  1.5000)
 117 Al     8.815790    6.680885   18.889219    ( 0.0000,  0.0000,  0.0000)
 118 Fe    11.427553    6.639820   18.779556    ( 0.0000,  0.0000,  2.0000)
 119 Al    13.906938    6.631006   18.740193    ( 0.0000,  0.0000,  0.0000)
 120 Cr     5.095653    8.774950   18.707200    ( 0.0000,  0.0000,  2.0000)
 121 Ni     7.571098    8.829550   18.729127    ( 0.0000,  0.0000,  1.5000)
 122 Cr    10.146396    8.866884   18.778117    ( 0.0000,  0.0000,  1.5000)
 123 Cr    12.685104    8.811284   18.742072    ( 0.0000,  0.0000,  2.0000)
 124 Cr    15.188299    8.776017   18.730565    ( 0.0000,  0.0000,  2.0000)

Unit cell:
           periodic     x           y           z      points  spacing
  1. axis:    yes   12.688900    0.000000    0.000000    56     0.1962
  2. axis:    yes    6.352870   11.003500    0.000000    56     0.1965
  3. axis:    no     0.000000    0.000000   29.353100   128     0.2293

  Lengths:  12.688900  12.705746  29.353100
  Angles:   90.000000  90.000000  60.000014

Effective grid spacing dv^(1/3) = 0.2169

     iter     time        total  log10-change:  magmom
                         energy  eigst   dens
iter:   1 17:12:30 -1029.785903                  +139.2899
iter:   2 17:14:23 -2461.601676  +0.84  -1.13    +99.1273
iter:   3 17:16:17 -1186.304855  +0.74  -0.66    +71.0314
iter:   4 17:18:11  -958.191845  -0.34  -0.99    +52.7133
iter:   5 17:20:05  -939.021336  -0.89  -1.22    +45.8975
iter:   6 17:21:59  -920.208475  -1.45  -1.24    +42.0088
iter:   7 17:23:53  -915.876195  -1.61  -1.29    +40.8963
iter:   8 17:25:47 -1107.102752  -0.89  -1.30    +42.2048
iter:   9 17:27:41  -919.200360  -1.12  -1.02    +39.6968
iter:  10 17:29:35  -902.384226  -1.68  -1.30    +38.9098
iter:  11 17:31:29  -898.750605  -1.50  -1.40    +40.8235
iter:  12 17:33:23  -924.616221  -1.57  -1.47    +42.1180
iter:  13 17:35:17  -917.057396  -1.38  -1.34    +43.7725
iter:  14 17:37:11  -932.694719  -1.43  -1.40    +42.9860
iter:  15 17:39:05  -892.537211  -1.65  -1.35    +36.1288
iter:  16 17:40:59  -895.517727  -2.16  -1.61    +37.9966
iter:  17 17:42:53  -891.706138  -2.28  -1.58    +39.7966
iter:  18 17:44:46  -891.814203  -2.49  -1.66    +41.9055
iter:  19 17:46:41  -948.559548  -1.65  -1.70    +42.4498
iter:  20 17:48:35  -892.958724  -1.77  -1.27    +43.4461
iter:  21 17:50:29  -890.298871  -2.28  -1.77    +45.0812
iter:  22 17:52:22  -897.639137  -2.31  -1.83    +46.2063
iter:  23 17:54:16  -890.538094  -2.48  -1.66    +46.4965
iter:  24 17:56:10  -889.799737  -2.89  -1.88    +47.3490
iter:  25 17:58:04  -890.896333  -2.84  -1.94    +49.0287
iter:  26 17:59:58  -891.115833  -2.86  -1.93    +50.5388
iter:  27 18:01:52  -892.167891  -2.50  -1.97    +52.3300
iter:  28 18:03:46  -895.723451  -2.46  -1.98    +53.0299
iter:  29 18:05:40  -893.283637  -2.54  -1.82    +53.9443
iter:  30 18:07:34  -893.107638  -2.57  -1.98    +55.3264
iter:  31 18:09:28  -892.986210  -2.86  -2.05    +57.1109
iter:  32 18:11:22  -892.836922  -2.93  -2.13    +57.0016
iter:  33 18:13:16  -892.895828  -3.39  -2.21    +58.1135
iter:  34 18:15:10  -893.712886  -3.08  -2.25    +59.3603
iter:  35 18:17:04  -893.691849  -3.27  -2.18    +59.4281
iter:  36 18:18:58  -893.850079  -3.33  -2.23    +60.5504
iter:  37 18:20:52  -894.933013  -3.01  -2.26    +61.2083
iter:  38 18:22:46  -894.114076  -3.42  -2.11    +61.1529
iter:  39 18:24:40  -894.237963  -3.16  -2.28    +61.6725
iter:  40 18:26:35  -894.210836  -3.49  -2.35    +61.3314
iter:  41 18:28:29  -894.345784  -3.30  -2.43    +61.7680
iter:  42 18:30:23  -895.124882  -3.30  -2.52    +62.1134
iter:  43 18:32:17  -895.352875  -3.03  -2.22    +61.9078
iter:  44 18:34:11  -894.575479  -3.33  -2.19    +62.4559
iter:  45 18:36:05  -894.575406  -3.73  -2.56    +63.0383
iter:  46 18:37:59  -894.732116  -3.69  -2.65    +63.4465
iter:  47 18:39:53  -894.743343  -4.09  -2.54    +63.2774
iter:  48 18:41:47  -895.011139  -3.78  -2.54    +63.0320
iter:  49 18:43:42  -895.940236  -3.14  -2.41    +62.9979
iter:  50 18:45:36  -894.864945  -3.39  -2.14    +63.3397
iter:  51 18:47:30  -894.910065  -3.41  -2.59    +63.7774
iter:  52 18:49:25  -894.902165c -3.83  -2.56    +64.0074
iter:  53 18:51:20  -894.887353c -3.85  -2.57    +64.0812
iter:  54 18:53:15  -894.875470c -4.05  -2.62    +63.9298
iter:  55 18:55:10  -895.121967  -3.58  -2.69    +64.2038
iter:  56 18:57:05  -894.991917  -3.78  -2.45    +64.3801
iter:  57 18:59:00  -894.844429  -4.08  -2.55    +64.4272
iter:  58 19:00:55  -894.857155  -4.40  -3.01    +64.5547
iter:  59 19:02:51  -894.862646c -4.75  -3.05    +64.7591
iter:  60 19:04:46  -894.881823c -4.56  -3.06    +65.0249
iter:  61 19:06:41  -894.903644c -4.56  -3.09    +65.2513
iter:  62 19:08:36  -894.945971c -4.50  -3.03    +65.3664
iter:  63 19:10:31  -894.939546c -4.65  -2.86    +65.3731
iter:  64 19:12:26  -894.951071c -4.64  -2.91    +65.4296
iter:  65 19:14:22  -895.012730c -4.03  -2.94    +65.5593
iter:  66 19:16:17  -894.962962c -4.42  -2.84    +65.6732
iter:  67 19:18:11  -895.000143c -4.61  -2.93    +65.6996
iter:  68 19:20:07  -895.008268c -5.09  -2.88    +65.7063
iter:  69 19:22:02  -895.073352c -4.41  -2.88    +65.7661
iter:  70 19:23:57  -895.006307c -4.26  -2.69    +65.7003
iter:  71 19:25:52  -895.016658c -4.70  -2.82    +65.8167
iter:  72 19:27:47  -895.036311c -3.84  -2.81    +65.8588
iter:  73 19:29:42  -895.029835c -4.03  -2.85    +65.8147
iter:  74 19:31:37  -895.033573c -4.20  -2.89    +65.6641
iter:  75 19:33:32  -895.018354c -4.57  -2.85    +65.7745
iter:  76 19:35:27  -895.033871c -4.06  -2.96    +65.6556
iter:  77 19:37:22  -895.009942c -4.42  -2.89    +65.6967
iter:  78 19:39:17  -895.004978c -4.69  -3.05    +65.6643
iter:  79 19:41:12  -895.005640c -4.66  -3.14    +65.6155
iter:  80 19:43:07  -895.030589c -4.83  -3.13    +65.6340
iter:  81 19:45:02  -895.037499c -4.35  -2.87    +65.5755
iter:  82 19:46:57  -894.998405c -4.51  -2.86    +65.6165
iter:  83 19:48:52  -894.996956c -5.11  -3.29    +65.7085
iter:  84 19:50:47  -894.998185c -5.46  -3.33    +65.7153
iter:  85 19:52:42  -894.997467c -5.47  -3.33    +65.6955
iter:  86 19:54:37  -894.997656c -5.45  -3.43    +65.7299
iter:  87 19:56:32  -894.998537c -5.52  -3.46    +65.7641
iter:  88 19:58:26  -895.006334c -5.32  -3.51    +65.8161
iter:  89 20:00:20  -894.998271c -5.55  -3.19    +65.7961
iter:  90 20:02:15  -894.998886c -5.86  -3.58    +65.8200
iter:  91 20:04:10  -894.999738c -5.78  -3.64    +65.8638
iter:  92 20:06:04  -894.999808c -5.97  -3.65    +65.8586
iter:  93 20:07:58  -895.000200c -5.92  -3.71    +65.8702
iter:  94 20:09:52  -895.003175c -5.82  -3.71    +65.8784
iter:  95 20:11:47  -895.002552c -5.66  -3.44    +65.8818
iter:  96 20:13:41  -895.001699c -5.88  -3.54    +65.8756
iter:  97 20:15:35  -895.002117c -5.97  -3.74    +65.8440
iter:  98 20:17:30  -895.002719c -6.19  -3.78    +65.8571
iter:  99 20:19:24  -895.003145c -6.48  -3.79    +65.8561
iter: 100 20:21:18  -894.999777c -4.82  -3.77    +65.8506
iter: 101 20:23:12  -895.001572c -5.49  -3.63    +65.8997
iter: 102 20:25:06  -895.000766c -6.10  -3.68    +65.8991
iter: 103 20:27:01  -895.001364c -6.04  -3.77    +65.9195
iter: 104 20:28:55  -895.002083c -6.22  -3.97    +65.9321
iter: 105 20:30:49  -895.002289c -6.19  -3.91    +65.9212
iter: 106 20:32:43  -895.003280c -5.85  -3.94    +65.8996
iter: 107 20:34:38  -895.003524c -6.09  -3.95    +65.8940
iter: 108 20:36:32  -895.004396c -6.13  -4.01c   +65.8842
iter: 109 20:38:26  -895.004538c -6.80  -3.91    +65.8834
iter: 110 20:40:21  -895.005693c -5.95  -3.84    +65.8992
iter: 111 20:42:15  -895.005696c -6.80  -3.95    +65.9092
iter: 112 20:44:09  -895.007256c -5.76  -3.93    +65.8533
iter: 113 20:46:03  -895.011605c -5.54  -3.75    +65.9050
iter: 114 20:47:58  -895.008568c -5.57  -3.34    +65.8264
iter: 115 20:49:52  -895.010890c -5.60  -3.85    +65.7809
iter: 116 20:51:46  -895.007722c -5.37  -3.71    +65.8581
iter: 117 20:53:40  -895.007256c -5.29  -3.69    +65.8409
iter: 118 20:55:35  -895.008085c -5.50  -3.53    +65.8418
iter: 119 20:57:29  -895.009976c -5.72  -3.74    +65.8666
iter: 120 20:59:23  -895.010368c -5.84  -3.59    +65.8228
iter: 121 21:01:18  -895.012226c -5.62  -3.76    +65.7885
iter: 122 21:03:12  -895.014591c -5.88  -3.75    +65.7872
iter: 123 21:05:06  -895.015344c -5.54  -3.53    +65.7447
iter: 124 21:07:01  -895.018881c -5.40  -3.62    +65.7177
iter: 125 21:08:55  -895.019740c -5.47  -3.44    +65.7554
iter: 126 21:10:50  -895.020243c -5.49  -3.48    +65.7128
iter: 127 21:12:44  -895.022739c -5.56  -3.61    +65.6428
iter: 128 21:14:38  -895.025882c -5.56  -3.66    +65.6711
iter: 129 21:16:33  -895.029461c -5.14  -3.48    +65.6032
iter: 130 21:18:27  -895.080188c -4.69  -3.41    +65.5539
iter: 131 21:20:21  -895.036666c -4.78  -2.83    +65.6075
iter: 132 21:22:16  -895.038240c -5.17  -3.36    +65.5678
iter: 133 21:24:10  -895.045443c -4.85  -3.46    +65.4835
iter: 134 21:26:05  -895.063900c -4.81  -3.32    +65.4419
iter: 135 21:27:59  -895.049998c -5.34  -3.03    +65.4049
iter: 136 21:29:53  -895.060906c -4.69  -3.28    +65.3148
iter: 137 21:31:48  -895.051801c -5.46  -3.10    +65.2553
iter: 138 21:33:42  -895.065023c -4.88  -3.45    +65.1274
iter: 139 21:35:36  -895.060203c -5.17  -3.19    +65.1498
iter: 140 21:37:31  -895.069134c -4.93  -3.26    +65.1324
iter: 141 21:39:25  -895.066130c -5.44  -3.23    +65.1352
iter: 142 21:41:19  -895.093068c -5.00  -3.27    +64.9571
iter: 143 21:43:14  -895.167959c -4.40  -2.98    +65.1104
iter: 144 21:45:08  -895.087135c -4.36  -2.68    +64.6155
iter: 145 21:47:02  -895.102847c -4.59  -3.13    +64.4663
iter: 146 21:48:56  -895.104613c -4.94  -2.97    +64.4012
iter: 147 21:50:51  -895.142153c -4.27  -2.99    +64.2401
iter: 148 21:52:45  -895.122780c -4.46  -2.83    +64.1648
iter: 149 21:54:40  -895.206080c -3.90  -2.82    +64.3907
iter: 150 21:56:34  -895.700844  -3.39  -2.65    +64.2090
iter: 151 21:58:28  -895.090806  -3.71  -2.29    +64.4286
iter: 152 22:00:23  -895.143996  -3.92  -2.95    +64.6683
iter: 153 22:02:17  -895.104448c -4.14  -2.76    +64.3797
iter: 154 22:04:12  -895.062746c -4.37  -2.86    +64.2506
iter: 155 22:06:06  -895.059262c -4.89  -3.23    +64.3779
iter: 156 22:08:00  -895.062145c -4.74  -3.39    +64.5284
iter: 157 22:09:54  -895.061147c -5.22  -3.26    +64.6619
iter: 158 22:11:49  -895.063162c -5.29  -3.39    +64.6656
iter: 159 22:13:43  -895.061982c -5.23  -3.26    +64.6729
iter: 160 22:15:37  -895.065232c -5.45  -3.44    +64.7057
iter: 161 22:17:31  -895.060797c -5.56  -3.25    +64.6688
iter: 162 22:19:26  -895.064345c -5.64  -3.51    +64.7045
iter: 163 22:21:20  -895.059659c -5.65  -3.31    +64.6851
iter: 164 22:23:15  -895.059764c -5.49  -3.57    +64.7193
iter: 165 22:25:09  -895.061258c -5.31  -3.55    +64.7947
iter: 166 22:27:03  -895.064058c -5.39  -3.48    +64.7984
iter: 167 22:28:58  -895.060175c -5.66  -3.34    +64.8084
iter: 168 22:30:52  -895.060580c -5.67  -3.60    +64.8243
iter: 169 22:32:46  -895.061125c -5.75  -3.52    +64.8931
iter: 170 22:34:41  -895.061079c -6.01  -3.52    +64.8934
iter: 171 22:36:35  -895.060732c -6.09  -3.58    +64.8926
iter: 172 22:38:29  -895.062770c -5.43  -3.62    +64.8960
iter: 173 22:40:24  -895.060650c -5.68  -3.37    +64.9067
iter: 174 22:42:18  -895.061865c -5.79  -3.64    +64.9276
iter: 175 22:44:12  -895.060922c -5.68  -3.50    +64.9194
iter: 176 22:46:07  -895.059537c -6.06  -3.60    +64.9471
iter: 177 22:48:01  -895.059882c -6.10  -3.81    +65.0016
iter: 178 22:49:56  -895.060375c -6.26  -3.89    +65.0404
iter: 179 22:51:50  -895.060092c -6.43  -3.82    +65.0417
iter: 180 22:53:44  -895.060163c -6.56  -3.85    +65.0526
iter: 181 22:55:38  -895.060462c -6.17  -3.88    +65.0917
iter: 182 22:57:33  -895.060412c -6.50  -3.77    +65.0784
iter: 183 22:59:27  -895.060300c -6.26  -3.91    +65.0799
iter: 184 23:01:21  -895.060626c -6.10  -3.93    +65.0782
iter: 185 23:03:16  -895.060536c -6.20  -3.66    +65.0855
iter: 186 23:05:10  -895.060164c -6.55  -3.86    +65.0879
iter: 187 23:07:04  -895.060326c -6.47  -3.99    +65.0834
iter: 188 23:08:59  -895.060004c -7.08  -3.92    +65.0989
iter: 189 23:10:53  -895.060078c -6.94  -4.08c   +65.1177
iter: 190 23:12:47  -895.060365c -6.73  -4.11c   +65.1321
iter: 191 23:14:42  -895.060253c -6.79  -4.05c   +65.1290
iter: 192 23:16:36  -895.060280c -6.76  -3.97    +65.1336
iter: 193 23:18:31  -895.060520c -6.41  -4.15c   +65.1407
iter: 194 23:20:25  -895.060388c -6.65  -3.85    +65.1268
iter: 195 23:22:19  -895.060288c -6.83  -4.11c   +65.1238
iter: 196 23:24:14  -895.060235c -6.63  -4.24c   +65.1216
iter: 197 23:26:08  -895.060253c -7.05  -3.95    +65.1267
iter: 198 23:28:03  -895.060157c -7.28  -4.28c   +65.1272
iter: 199 23:29:57  -895.060299c -7.26  -4.37c   +65.1321
iter: 200 23:31:52  -895.060148c -7.36  -4.16c   +65.1398
iter: 201 23:33:46  -895.060189c -7.46c -4.31c   +65.1485

Converged after 201 iterations.

Dipole moment: (63.006306, 51.785720, 0.028919) |e|*Ang

Total magnetic moment: (0.000000, 0.000000, 65.148488)
Local magnetic moments:
   0 Co ( 0.000000,  0.000000,  1.517023)
   1 Al ( 0.000000,  0.000000, -0.050070)
   2 Cr ( 0.000000,  0.000000,  1.319376)
   3 Cr ( 0.000000,  0.000000,  2.406358)
   4 Ni ( 0.000000,  0.000000,  0.450808)
   5 Co ( 0.000000,  0.000000,  1.153491)
   6 Cr ( 0.000000,  0.000000,  1.613437)
   7 Cr ( 0.000000,  0.000000, -2.698249)
   8 Co ( 0.000000,  0.000000,  1.215914)
   9 Al ( 0.000000,  0.000000, -0.040966)
  10 Co ( 0.000000,  0.000000,  1.070519)
  11 Al ( 0.000000,  0.000000, -0.045012)
  12 Co ( 0.000000,  0.000000,  1.261864)
  13 Fe ( 0.000000,  0.000000,  2.356783)
  14 Cr ( 0.000000,  0.000000, -2.833848)
  15 Fe ( 0.000000,  0.000000,  2.536432)
  16 Fe ( 0.000000,  0.000000,  2.702660)
  17 Co ( 0.000000,  0.000000,  1.421474)
  18 Fe ( 0.000000,  0.000000,  2.533889)
  19 Fe ( 0.000000,  0.000000,  2.525417)
  20 Al ( 0.000000,  0.000000, -0.061771)
  21 Fe ( 0.000000,  0.000000,  2.508173)
  22 Al ( 0.000000,  0.000000, -0.058648)
  23 Co ( 0.000000,  0.000000,  1.446983)
  24 Co ( 0.000000,  0.000000,  1.593519)
  25 Co ( 0.000000,  0.000000,  1.543434)
  26 Co ( 0.000000,  0.000000,  1.393094)
  27 Fe ( 0.000000,  0.000000,  2.259814)
  28 Al ( 0.000000,  0.000000, -0.028858)
  29 Ni ( 0.000000,  0.000000,  0.302840)
  30 Ni ( 0.000000,  0.000000,  0.376574)
  31 Fe ( 0.000000,  0.000000,  1.949660)
  32 Al ( 0.000000,  0.000000, -0.031177)
  33 Ni ( 0.000000,  0.000000,  0.261524)
  34 Fe ( 0.000000,  0.000000,  2.395465)
  35 Al ( 0.000000,  0.000000, -0.039105)
  36 Ni ( 0.000000,  0.000000,  0.213486)
  37 Ni ( 0.000000,  0.000000,  0.279397)
  38 Cr ( 0.000000,  0.000000, -1.612573)
  39 Fe ( 0.000000,  0.000000,  1.961078)
  40 Co ( 0.000000,  0.000000,  1.192867)
  41 Ni ( 0.000000,  0.000000,  0.427399)
  42 Cr ( 0.000000,  0.000000,  0.703675)
  43 Ni ( 0.000000,  0.000000,  0.269329)
  44 Cr ( 0.000000,  0.000000,  1.390683)
  45 Co ( 0.000000,  0.000000,  1.394308)
  46 Fe ( 0.000000,  0.000000,  2.501802)
  47 Ni ( 0.000000,  0.000000,  0.350848)
  48 Cr ( 0.000000,  0.000000, -1.739260)
  49 Co ( 0.000000,  0.000000,  1.083706)
  50 Ni ( 0.000000,  0.000000,  0.348742)
  51 Al ( 0.000000,  0.000000, -0.042093)
  52 Ni ( 0.000000,  0.000000,  0.319540)
  53 Cr ( 0.000000,  0.000000,  1.520589)
  54 Co ( 0.000000,  0.000000,  0.800304)
  55 Co ( 0.000000,  0.000000,  1.052649)
  56 Fe ( 0.000000,  0.000000,  2.015787)
  57 Fe ( 0.000000,  0.000000,  1.564765)
  58 Co ( 0.000000,  0.000000,  0.719559)
  59 Al ( 0.000000,  0.000000, -0.033008)
  60 Ni ( 0.000000,  0.000000,  0.303878)
  61 Fe ( 0.000000,  0.000000,  2.349696)
  62 Al ( 0.000000,  0.000000, -0.013866)
  63 Co ( 0.000000,  0.000000,  0.927600)
  64 Fe ( 0.000000,  0.000000,  2.254302)
  65 Ni ( 0.000000,  0.000000,  0.154930)
  66 Co ( 0.000000,  0.000000,  1.130165)
  67 Co ( 0.000000,  0.000000,  1.031439)
  68 Cr ( 0.000000,  0.000000, -1.181213)
  69 Al ( 0.000000,  0.000000, -0.024064)
  70 Al ( 0.000000,  0.000000, -0.028085)
  71 Co ( 0.000000,  0.000000,  1.361305)
  72 Ni ( 0.000000,  0.000000,  0.313158)
  73 Fe ( 0.000000,  0.000000,  2.027812)
  74 Cr ( 0.000000,  0.000000, -1.589747)
  75 Ni ( 0.000000,  0.000000, -0.064105)
  76 Ni ( 0.000000,  0.000000,  0.220711)
  77 Co ( 0.000000,  0.000000,  0.988346)
  78 Al ( 0.000000,  0.000000,  0.013788)
  79 Al ( 0.000000,  0.000000,  0.014189)
  80 Cr ( 0.000000,  0.000000, -1.930495)
  81 Cr ( 0.000000,  0.000000,  0.982334)
  82 Al ( 0.000000,  0.000000, -0.037006)
  83 Cr ( 0.000000,  0.000000, -1.064504)
  84 Fe ( 0.000000,  0.000000,  1.715471)
  85 Ni ( 0.000000,  0.000000,  0.110529)
  86 Cr ( 0.000000,  0.000000, -1.151404)
  87 Ni ( 0.000000,  0.000000,  0.141439)
  88 Cr ( 0.000000,  0.000000,  0.944927)
  89 Cr ( 0.000000,  0.000000,  0.861453)
  90 Ni ( 0.000000,  0.000000,  0.126283)
  91 Ni ( 0.000000,  0.000000,  0.158880)
  92 Cr ( 0.000000,  0.000000, -1.516565)
  93 Co ( 0.000000,  0.000000,  0.537520)
  94 Ni ( 0.000000,  0.000000,  0.086250)
  95 Al ( 0.000000,  0.000000,  0.024229)
  96 Ni ( 0.000000,  0.000000,  0.072834)
  97 Co ( 0.000000,  0.000000,  1.133261)
  98 Al ( 0.000000,  0.000000, -0.010207)
  99 Fe ( 0.000000,  0.000000, -1.695163)
 100 Fe ( 0.000000,  0.000000, -2.390894)
 101 Al ( 0.000000,  0.000000, -0.008862)
 102 Fe ( 0.000000,  0.000000,  2.094704)
 103 Cr ( 0.000000,  0.000000, -2.083929)
 104 Fe ( 0.000000,  0.000000, -2.690897)
 105 Al ( 0.000000,  0.000000,  0.012094)
 106 Ni ( 0.000000,  0.000000,  0.237766)
 107 Co ( 0.000000,  0.000000,  0.809351)
 108 Fe ( 0.000000,  0.000000, -2.334903)
 109 Co ( 0.000000,  0.000000, -1.201669)
 110 Fe ( 0.000000,  0.000000,  2.380772)
 111 Al ( 0.000000,  0.000000, -0.016923)
 112 Cr ( 0.000000,  0.000000,  2.091470)
 113 Al ( 0.000000,  0.000000, -0.007449)
 114 Ni ( 0.000000,  0.000000,  0.013375)
 115 Fe ( 0.000000,  0.000000, -2.192091)
 116 Al ( 0.000000,  0.000000, -0.000080)
 117 Al ( 0.000000,  0.000000, -0.014454)
 118 Fe ( 0.000000,  0.000000,  1.847798)
 119 Al ( 0.000000,  0.000000, -0.018221)
 120 Cr ( 0.000000,  0.000000,  2.534535)
 121 Ni ( 0.000000,  0.000000, -0.020190)
 122 Cr ( 0.000000,  0.000000,  1.698938)
 123 Cr ( 0.000000,  0.000000,  1.340063)
 124 Cr ( 0.000000,  0.000000,  1.914525)

Energy contributions relative to reference atoms: (reference = -3726899.091688)

Kinetic:       +415.342813
Potential:     -381.544266
External:        +0.000000
XC:            -961.609937
Entropy (-ST):   -5.044997
Local:          +35.273700
--------------------------
Free energy:   -897.582688
Extrapolated:  -895.060189

Dipole-layer corrected work functions: 4.841513, 4.804034 eV

Spin contamination: 38.259522 electrons
Showing all kpts
                      Up                     Down
 Kpt  Band  Eigenvalues  Occupancy  Eigenvalues  Occupancy
  0   523     -0.02564    0.99124      0.79307    0.03053
  0   524     -0.00796    0.98957      0.80720    0.02661
  0   525      0.00146    0.98855      0.81546    0.02456
  0   526      0.01449    0.98697      0.82925    0.02146

  1   523     -0.04031    0.99243      0.79865    0.02892
  1   524     -0.02025    0.99076      0.80933    0.02607
  1   525     -0.01189    0.98996      0.81927    0.02366
  1   526     -0.00224    0.98896      0.82922    0.02147


Fermi level: 0.44726

Gap: 0.014 eV
Transition (v -> c):
  (s=1, k=0, n=492, [0.25, -0.25, 0.00]) -> (s=0, k=0, n=558, [0.25, -0.25, 0.00])

Forces in eV/Ang:
  0 Co    0.20028   -0.11500    0.48526
  1 Al   -1.42625    0.20943   -0.62213
  2 Cr    0.39648    0.16383   -0.69762
  3 Cr    0.36536    0.15471   -1.28555
  4 Ni   -0.15769   -0.09364   -0.18482
  5 Co   -0.13796    0.19942    0.50599
  6 Cr    0.42532   -0.38892   -0.93600
  7 Cr    0.27297   -0.20031    0.08128
  8 Co   -0.00926    0.21294    0.22219
  9 Al    0.03566   -0.64556   -1.93304
 10 Co   -0.39910   -0.14270    0.10440
 11 Al    0.38865    0.52386   -0.83801
 12 Co    0.15953    0.21513   -0.00269
 13 Fe   -0.34980   -0.29701   -0.59404
 14 Cr    0.44971    0.56509    0.53584
 15 Fe   -0.67535    0.41367    0.16733
 16 Fe    0.51547   -0.02200    0.42459
 17 Co   -0.36422   -0.11991   -0.18954
 18 Fe    0.37189    0.25229   -0.19364
 19 Fe    0.01840    0.65320   -0.12498
 20 Al   -0.30622    0.19728   -0.60376
 21 Fe   -0.23656    0.00687    0.47439
 22 Al    0.69133   -0.82683   -0.48767
 23 Co    0.35814   -0.13986    1.17090
 24 Co   -0.51521   -0.44235    1.04614
 25 Co    0.99840    0.32138    0.24357
 26 Co   -0.30427    0.29753    0.21668
 27 Fe   -0.58712   -0.45154   -0.17790
 28 Al    0.91777   -0.70307    0.03451
 29 Ni    0.07013    0.05623    0.34577
 30 Ni    0.33449   -0.51197    0.36180
 31 Fe   -0.20529   -0.33951    0.23853
 32 Al    0.16314    0.66600    0.76015
 33 Ni   -0.22306   -0.10321   -0.19536
 34 Fe   -0.20798   -0.95666    0.24575
 35 Al   -0.98269   -0.27011    1.14124
 36 Ni   -0.32618    0.01514    0.36973
 37 Ni    0.06229   -0.17530   -0.27700
 38 Cr   -0.03286   -0.06228   -0.05691
 39 Fe    0.58224   -0.11674    0.30970
 40 Co   -0.30752    0.66084    0.24375
 41 Ni   -0.19905    0.09580    0.16945
 42 Cr    0.08037    0.20950   -0.30723
 43 Ni    0.39211    0.13153    0.45080
 44 Cr   -0.04745    0.62230    0.04145
 45 Co   -0.13194    0.25657    0.08010
 46 Fe   -0.06259    0.48397   -0.09862
 47 Ni   -0.04798    0.67843    0.28254
 48 Cr   -0.43236   -0.84440   -0.32514
 49 Co    0.16556    0.25428   -0.18089
 50 Ni   -0.06344    0.10534   -0.35717
 51 Al   -0.08173   -0.29505   -0.42308
 52 Ni   -0.35679   -0.43371    0.13130
 53 Cr    0.99447   -0.03807   -0.40169
 54 Co   -0.22425   -0.44050   -0.37116
 55 Co   -0.30944    0.79049   -0.20530
 56 Fe   -0.30915    0.17010    0.10750
 57 Fe    0.42859   -0.15184   -0.12657
 58 Co   -0.34279   -0.24581   -0.31734
 59 Al    0.53781   -0.23266   -0.14499
 60 Ni   -0.21087   -0.19235   -0.19260
 61 Fe   -0.48513    0.18140   -0.28345
 62 Al   -0.14204    0.30167    0.12744
 63 Co    0.44939    0.63514    0.11554
 64 Fe   -0.20162   -0.40003   -0.05862
 65 Ni    0.06217   -0.00472   -0.24082
 66 Co    0.30538    0.02446   -0.31435
 67 Co    0.65269    0.25187    0.23762
 68 Cr   -0.92094   -0.54375    0.58757
 69 Al    0.07311   -0.67861   -0.05811
 70 Al    0.96534   -0.08571   -0.97189
 71 Co    0.30926   -0.27351   -0.49727
 72 Ni    0.15479   -0.46040    0.20761
 73 Fe    0.27498   -0.80678   -0.21357
 74 Cr   -1.06086    0.84471   -0.74510
 75 Ni    0.12101    0.54450    0.26162
 76 Ni   -0.35502    0.36016   -0.22303
 77 Co    0.01901    0.11468    0.46909
 78 Al   -0.59876   -0.65982    0.51590
 79 Al    1.25848   -0.40014    0.46956
 80 Cr    0.19188    0.65717   -0.52097
 81 Cr   -0.89561    0.07176   -0.26599
 82 Al   -0.39324    0.05290   -0.20867
 83 Cr    0.38012    0.71862    0.58258
 84 Fe    0.39487    0.05944    0.17839
 85 Ni    0.05082   -0.58406   -0.04093
 86 Cr   -1.27107   -0.02020   -0.71104
 87 Ni   -0.02571    0.42310    0.06039
 88 Cr    0.84839    0.55317   -0.00902
 89 Cr   -0.86770    0.11676   -1.03090
 90 Ni    0.00513    0.21857    0.10820
 91 Ni   -0.15000    0.06315   -0.00293
 92 Cr    0.46831    0.35872   -0.76990
 93 Co    0.48553   -0.06581   -0.18147
 94 Ni   -0.28634    0.68310   -0.37495
 95 Al   -0.21465    0.57978    0.19329
 96 Ni   -0.09436    0.37091   -0.11232
 97 Co    0.47233   -0.63469    0.13732
 98 Al   -0.46074   -1.36549   -0.97102
 99 Fe   -0.68769    0.20457    0.43224
100 Fe   -1.02075    0.56920    0.20990
101 Al    0.12389   -0.35417    0.82733
102 Fe    0.17676    0.27265   -0.12036
103 Cr    0.05768   -0.09339    0.64404
104 Fe    0.00713    0.55521   -0.93888
105 Al   -0.75816    0.45996    0.73657
106 Ni    0.25262    0.38250    0.33524
107 Co    0.20202   -0.07033    0.04941
108 Fe    0.61403    0.29774   -0.31483
109 Co   -0.47513   -0.38741   -0.50346
110 Fe   -0.06542    0.18105   -0.45058
111 Al   -0.85576   -0.31063    0.66743
112 Cr    0.92903   -1.06002    0.39029
113 Al    0.45109   -0.71068    0.72234
114 Ni   -0.14413   -0.34292    0.05640
115 Fe    0.28006    0.01112   -0.83601
116 Al    0.21262    0.37556    1.27481
117 Al    0.67296   -0.02068    0.81273
118 Fe   -0.44167    0.03257   -0.34386
119 Al    0.57624   -0.83766    1.37521
120 Cr   -0.34161    0.12083    1.51962
121 Ni    0.33682   -0.32771    0.20127
122 Cr    0.67749   -0.45574   -0.41764
123 Cr   -0.33044    0.12481   -0.02583
124 Cr    0.23321    0.59704    0.04216

Timing:                              incl.     excl.
-----------------------------------------------------------
Forces:                             33.441    33.441   0.1% |
Hamiltonian:                         1.368     0.012   0.0% |
 Atomic:                             0.314     0.001   0.0% |
  XC Correction:                     0.313     0.313   0.0% |
 Calculate atomic Hamiltonians:      0.549     0.549   0.0% |
 Communicate:                        0.102     0.102   0.0% |
 Initialize Hamiltonian:             0.000     0.000   0.0% |
 Poisson:                            0.081     0.081   0.0% |
 XC 3D grid:                         0.309     0.309   0.0% |
LCAO initialization:               211.110     0.459   0.0% |
 LCAO eigensolver:                  10.825     0.011   0.0% |
  Calculate projections:             0.000     0.000   0.0% |
  DenseAtomicCorrection:             0.000     0.000   0.0% |
  Distribute overlap matrix:         7.277     7.277   0.0% |
  Orbital Layouts:                   3.513     3.513   0.0% |
  Potential matrix:                  0.003     0.003   0.0% |
  Sum over cells:                    0.021     0.021   0.0% |
 LCAO to grid:                     198.021   198.021   0.9% |
 Set positions (LCAO WFS):           1.805     1.556   0.0% |
  Basic WFS set positions:           0.003     0.003   0.0% |
  Basis functions set positions:     0.000     0.000   0.0% |
  P tci:                             0.000     0.000   0.0% |
  ST tci:                            0.096     0.096   0.0% |
  mktci:                             0.149     0.149   0.0% |
PWDescriptor:                        0.217     0.217   0.0% |
SCF-cycle:                       23001.359     8.767   0.0% |
 Davidson:                       22242.108  7782.344  33.5% |------------|
  Apply H:                         428.561   421.009   1.8% ||
   HMM T:                            7.551     7.551   0.0% |
  Subspace diag:                  2440.483     0.060   0.0% |
   calc_h_matrix:                 1016.714   637.084   2.7% ||
    Apply H:                       379.630   372.058   1.6% ||
     HMM T:                          7.571     7.571   0.0% |
   diagonalize:                    194.819   194.819   0.8% |
   rotate_psi:                    1228.890  1228.890   5.3% |-|
  calc. matrices:                 5725.931  4995.962  21.5% |--------|
   Apply H:                        729.969   714.314   3.1% ||
    HMM T:                          15.655    15.655   0.1% |
  diagonalize:                    3256.392  3256.392  14.0% |-----|
  rotate_psi:                     2608.397  2608.397  11.2% |---|
 Density:                          418.737     0.007   0.0% |
  Atomic density matrices:           4.168     4.168   0.0% |
  Mix:                             191.629   191.629   0.8% |
  Multipole moments:                 0.123     0.123   0.0% |
  Pseudo density:                  222.811   222.802   1.0% |
   Symmetrize density:               0.009     0.009   0.0% |
 Hamiltonian:                      316.987     2.145   0.0% |
  Atomic:                           63.025     0.222   0.0% |
   XC Correction:                   62.804    62.804   0.3% |
  Calculate atomic Hamiltonians:   163.377   163.377   0.7% |
  Communicate:                      21.320    21.320   0.1% |
  Poisson:                           6.702     6.702   0.0% |
  XC 3D grid:                       60.418    60.418   0.3% |
 Orthonormalize:                    14.759     0.000   0.0% |
  calc_s_matrix:                     1.744     1.744   0.0% |
  inverse-cholesky:                  0.608     0.608   0.0% |
  projections:                       9.372     9.372   0.0% |
  rotate_psi_s:                      3.035     3.035   0.0% |
Set symmetry:                        0.001     0.001   0.0% |
Other:                               6.681     6.681   0.0% |
-----------------------------------------------------------
Total:                                     23254.177 100.0%

Date: Wed Apr 19 23:34:23 2023
