
  ___ ___ ___ _ _ _  
 |   |   |_  | | | | 
 | | | | | . | | | | 
 |__ |  _|___|_____|  22.8.0
 |___|_|             

User:   c.zeng@d0022
Date:   Wed Apr 19 08:46:21 2023
Arch:   x86_64
Pid:    104526
CWD:    /home/c.zeng/projects/hea-corrosion/hea-mlp/data-curation/surface-mcmc/dft-jobs/182
Python: 3.8.1
gpaw:   /home/c.zeng/usr/installs/gpaw/source/gpaw-22.8.0/gpaw
_gpaw:  /home/c.zeng/usr/installs/gpaw/source/gpaw-22.8.0/
        _gpaw.cpython-38-x86_64-linux-gnu.so
ase:    /home/c.zeng/.local/lib/python3.8/site-packages/ase-3.22.1-py3.8.egg/ase (version 3.22.1)
numpy:  /home/c.zeng/.local/lib/python3.8/site-packages/numpy (version 1.24.2)
scipy:  /home/c.zeng/.local/lib/python3.8/site-packages/scipy (version 1.10.1)
libxc:  4.2.3
units:  Angstrom and eV
cores: 30
OpenMP: False
OMP_NUM_THREADS: 1

Input parameters:
  convergence: {energy: 0.0001}
  kpts: [2 2 1]
  maxiter: 666
  mode: {ecut: 350.0,
         name: pw}
  occupations: {fixmagmom: False,
                name: fermi-dirac,
                width: 0.1}
  poissonsolver: {dipolelayer: xy}
  spinpol: True
  symmetry: {point_group: False}
  xc: PBE

System changes: positions, numbers, cell, pbc, initial_charges, initial_magmoms 

Initialize ...

species:
  Ni:
    name: Nickel
    id: 0d9f38a9d6e76a2886f07bb4381f212b
    Z: 28.0
    valence: 16
    core: 12
    charge: 0.0
    file: /home/c.zeng/usr/data/gpaw-setups-0.9.20000/Ni.PBE.gz
    compensation charges: {type: gauss,
                           rc: 0.36,
                           lmax: 2}
    cutoffs: {filter: 2.14,
              core: 1.98}
    valence states:
      #              energy  rcut
      - 4s(2.00)    -5.642   1.164
      - 3p(6.00)   -71.394   1.207
      - 4p(0.00)    -1.226   1.207
      - 3d(8.00)    -8.875   1.138
      -  s          21.570   1.164
      -  d          18.337   1.138
  
    # Using partial waves for Ni as LCAO basis

  Cr:
    name: Chromium
    id: 33f258bda2ca9f93018e70263a35547b
    Z: 24.0
    valence: 6
    core: 18
    charge: 0.0
    file: /home/c.zeng/usr/data/gpaw-setups-0.9.20000/Cr.PBE.gz
    compensation charges: {type: gauss,
                           rc: 0.35,
                           lmax: 2}
    cutoffs: {filter: 2.14,
              core: 3.04}
    valence states:
      #              energy  rcut
      - 4s(1.00)    -4.007   1.164
      - 4p(0.00)    -0.989   1.217
      - 3d(5.00)    -2.913   1.111
      -  s          23.205   1.164
      -  p          26.223   1.217
      -  d          24.299   1.111
  
    # Using partial waves for Cr as LCAO basis

  Fe:
    name: Iron
    id: 37abbd8d6c3c35915a9b583b742da910
    Z: 26.0
    valence: 8
    core: 18
    charge: 0.0
    file: /home/c.zeng/usr/data/gpaw-setups-0.9.20000/Fe.PBE.gz
    compensation charges: {type: gauss,
                           rc: 0.33,
                           lmax: 2}
    cutoffs: {filter: 2.06,
              core: 2.67}
    valence states:
      #              energy  rcut
      - 4s(2.00)    -5.291   1.164
      - 4p(0.00)    -1.326   1.058
      - 3d(6.00)    -7.505   1.058
      -  s          21.920   1.164
      -  p          25.885   1.058
      -  d          19.706   1.058
  
    # Using partial waves for Fe as LCAO basis

  Al:
    name: Aluminium
    id: 0292cae29f5d6237e50f6abdd43a7bdd
    Z: 13.0
    valence: 3
    core: 10
    charge: 0.0
    file: /home/c.zeng/usr/data/gpaw-setups-0.9.20000/Al.PBE.gz
    compensation charges: {type: gauss,
                           rc: 0.34,
                           lmax: 2}
    cutoffs: {filter: 1.91,
              core: 2.36}
    valence states:
      #              energy  rcut
      - 3s(2.00)    -7.753   1.085
      - 3p(1.00)    -2.712   1.085
      -  s          19.459   1.085
      -  p          24.499   1.085
      -  d           0.000   1.085
  
    # Using partial waves for Al as LCAO basis

  Co:
    name: Cobalt
    id: 339d20d5b0b93d2de9531a1bee871d91
    Z: 27.0
    valence: 9
    core: 18
    charge: 0.0
    file: /home/c.zeng/usr/data/gpaw-setups-0.9.20000/Co.PBE.gz
    compensation charges: {type: gauss,
                           rc: 0.32,
                           lmax: 2}
    cutoffs: {filter: 1.87,
              core: 2.55}
    valence states:
      #              energy  rcut
      - 4s(2.00)    -5.469   1.005
      - 4p(0.00)    -1.277   1.058
      - 3d(7.00)    -8.205   1.005
      -  s          21.742   1.005
      -  p          25.934   1.058
      -  d          19.007   1.005
  
    # Using partial waves for Co as LCAO basis

Reference energy: -3927717.499734  # eV

Spin-polarized calculation.
Magnetic moment: 149.100000

Convergence criteria:
 Maximum [total energy] change in last 3 cyles: 0.0001 eV / electron
 Maximum integral of absolute [dens]ity change: 0.0001 electrons / valence electron
 Maximum integral of absolute [eigenst]ate change: 4e-08 eV^2 / valence electron
 Maximum number of scf [iter]ations: 666
 (Square brackets indicate name in SCF output, whereas a 'c' in
 the SCF output indicates the quantity has converged.)

Symmetries present (total): 1

  ( 1  0  0)
  ( 0  1  0)
  ( 0  0  1)

4 k-points: 2 x 2 x 1 Monkhorst-Pack grid
2 k-points in the irreducible part of the Brillouin zone
       k-points in crystal coordinates                weights
   0:     0.25000000   -0.25000000    0.00000000          2/4
   1:     0.25000000    0.25000000    0.00000000          2/4

Wave functions: Plane wave expansion
  Cutoff energy: 350.000 eV
  Number of coefficients (min, max): 60143, 60161
  Pulay-stress correction: 0.000000 eV/Ang^3 (de/decut=0.000000)
  Using FFTW library
  ScaLapack parameters: grid=1x1, blocksize=None
  Wavefunction extrapolation:
    Improved wavefunction reuse through dual PAW basis 

Occupation numbers: Fermi-Dirac:
  width: 0.1000  # eV
 

Eigensolver
   Davidson(niter=2) 

Densities:
  Coarse grid: 56*56*128 grid
  Fine grid: 112*112*256 grid
  Total Charge: 0.000000 

Density mixing:
  Method: difference
  Backend: pulay
  Linear mixing parameter: 0.05
  old densities: 5
  Damping of long wavelength oscillations: 50 

Hamiltonian:
  XC and Coulomb potentials evaluated on a 112*112*256 grid
  Using the PBE Exchange-Correlation functional
  External potential:
    NoExternalPotential
 

XC parameters: PBE with 2 nearest neighbor stencil

Memory estimate:
  Process memory now: 380.23 MiB
  Calculator: 2209.57 MiB
    Density: 18.91 MiB
      Arrays: 7.39 MiB
      Localized functions: 8.57 MiB
      Mixer: 2.95 MiB
    Hamiltonian: 5.75 MiB
      Arrays: 5.49 MiB
      XC: 0.00 MiB
      Poisson: 0.00 MiB
      vbar: 0.26 MiB
    Wavefunctions: 2184.92 MiB
      Arrays psit_nG: 1382.48 MiB
      Eigensolver: 782.37 MiB
      Projections: 3.31 MiB
      Projectors: 1.16 MiB
      PW-descriptor: 15.59 MiB

Total number of cores used: 30
Parallelization over k-points: 2
Domain decomposition: 1 x 3 x 5

Number of atoms: 125
Number of atomic orbitals: 1116
Number of bands in calculation: 753
Number of valence electrons: 1098
Bands to converge: occupied

... initialized

Initializing position-dependent things.

Density initialized from atomic densities
Creating initial wave functions:
  753 bands from LCAO basis set

                                                               
                                                               
                                                               
                                                               
                          Ni          Ni     Ni    Co          
                            Fe    Co    Cr    Co    Ni         
                                                               
                       Al    CFe   FFe   CCr   NCr   Cr        
                   Fe   CFe    Al    Co    Ni    Cr            
        Ni                       Cr                            
               Ni   FAl  CFCr  CCo   NNi    Cr    Ni           
          Ni    Fe   FAl   NCo   CCr   NFe   Cr                
           Fe    Co    Fe Fe  FeCo  Co       Al   Fe           
                Al    Co    ACo   FAl   CNi   Co    Cr         
            Ni   AFe   ANi    Al    Co    Fe                   
        Fe    Co    Ni    Co Ni Co Cr    Ni    Ni    Co        
             Co    Al   CFe    Cr    Fe    Ni    Ni            
         Cr    Cr   CAl   AFe   CFe   Ni     Ni                
                Fe          Ni                                 
               Cr     Cr          Co    Co                     
           Cr    Cr    Fe    Al     Ni                         
                                                               
                                                               
                                                               
                                                               
                                                               

Positions:
   0 Ni    12.638410    1.500640   10.473714    ( 0.0000,  0.0000,  0.0000)
   1 Cr     2.522937    1.464200   10.500925    ( 0.0000,  0.0000,  0.0000)
   2 Cr     5.053910    1.499679   10.110352    ( 0.0000,  0.0000,  0.0000)
   3 Fe     7.557679    1.474012   10.651858    ( 0.0000,  0.0000,  2.0000)
   4 Al    10.063098    1.480808   10.510582    ( 0.0000,  0.0000,  0.0000)
   5 Co    13.876684    3.701125   10.575129    ( 0.0000,  0.0000,  2.1000)
   6 Cr     3.765065    3.676845   10.563946    ( 0.0000,  0.0000,  2.1000)
   7 Cr     6.296333    3.639618   10.618367    ( 0.0000,  0.0000,  1.5000)
   8 Ni     8.839996    3.605986   10.672787    ( 0.0000,  0.0000,  2.0000)
   9 Co    11.352953    3.684964   10.549299    ( 0.0000,  0.0000,  1.5000)
  10 Ni    15.161276    5.824565   10.498577    ( 0.0000,  0.0000,  1.5000)
  11 Co     5.025278    5.836147   10.574572    ( 0.0000,  0.0000,  1.5000)
  12 Al     7.581095    5.809082   10.450437    ( 0.0000,  0.0000,  0.0000)
  13 Cr    10.115365    5.826084   10.611674    ( 0.0000,  0.0000,  0.0000)
  14 Ni    12.590175    5.838835   10.516863    ( 0.0000,  0.0000,  0.0000)
  15 Ni    16.389239    7.986063   10.611380    ( 0.0000,  0.0000,  2.0000)
  16 Co     6.336726    8.007129   10.633278    ( 0.0000,  0.0000,  2.0000)
  17 Cr     8.860477    8.041112   10.593798    ( 0.0000,  0.0000,  2.0000)
  18 Cr    11.352548    8.028917   10.631722    ( 0.0000,  0.0000,  2.1000)
  19 Ni    13.851584    7.983364   10.505680    ( 0.0000,  0.0000,  2.0000)
  20 Co    17.745314   10.116747   10.074659    ( 0.0000,  0.0000,  0.0000)
  21 Ni     7.636083   10.176440   10.530337    ( 0.0000,  0.0000,  1.5000)
  22 Cr    10.089221   10.193890   10.552029    ( 0.0000,  0.0000,  2.1000)
  23 Ni    12.605039   10.182297   10.523703    ( 0.0000,  0.0000,  2.1000)
  24 Ni    15.064141   10.171206   10.358709    ( 0.0000,  0.0000,  0.0000)
  25 Fe     6.302566   10.804692   12.567941    ( 0.0000,  0.0000,  0.0000)
  26 Co     8.851494   10.898072   12.591335    ( 0.0000,  0.0000,  2.0000)
  27 Fe     5.076351    0.044825   12.536856    ( 0.0000,  0.0000,  0.0000)
  28 Al    13.909654   10.893450   12.608008    ( 0.0000,  0.0000,  1.5000)
  29 Fe    16.352727   10.867270   12.510966    ( 0.0000,  0.0000,  0.0000)
  30 Cr     1.347779    2.234477   12.606775    ( 0.0000,  0.0000,  0.0000)
  31 Cr     3.839937    2.209280   12.530604    ( 0.0000,  0.0000,  2.1000)
  32 Al     6.320342    2.230959   12.618927    ( 0.0000,  0.0000,  0.0000)
  33 Fe     8.782195    2.170075   12.671851    ( 0.0000,  0.0000,  0.0000)
  34 Fe    11.261675    2.259871   12.615258    ( 0.0000,  0.0000,  0.0000)
  35 Co     2.575110    4.392020   12.601990    ( 0.0000,  0.0000,  1.5000)
  36 Al     5.033696    4.384579   12.606305    ( 0.0000,  0.0000,  2.1000)
  37 Fe     7.564379    4.363294   12.629230    ( 0.0000,  0.0000,  2.0000)
  38 Cr    10.052143    4.418954   12.638359    ( 0.0000,  0.0000,  2.0000)
  39 Fe    12.588573    4.408563   12.597529    ( 0.0000,  0.0000,  2.0000)
  40 Al     3.825223    6.539248   12.601110    ( 0.0000,  0.0000,  0.0000)
  41 Al     6.285427    6.556719   12.584144    ( 0.0000,  0.0000,  0.0000)
  42 Cr     8.820218    6.557845   12.561307    ( 0.0000,  0.0000,  2.0000)
  43 Al    11.348710    6.570170   12.593977    ( 0.0000,  0.0000,  2.0000)
  44 Fe    13.909132    6.548655   12.525790    ( 0.0000,  0.0000,  0.0000)
  45 Cr    17.626555    8.699096   12.604162    ( 0.0000,  0.0000,  0.0000)
  46 Al     7.618200    8.725899   12.612235    ( 0.0000,  0.0000,  1.5000)
  47 Fe    10.087472    8.739109   12.626412    ( 0.0000,  0.0000,  1.5000)
  48 Cr    12.639844    8.757204   12.602842    ( 0.0000,  0.0000,  2.1000)
  49 Co    15.116728    8.758580   12.586668    ( 0.0000,  0.0000,  0.0000)
  50 Fe     1.234973    0.732950   14.688585    ( 0.0000,  0.0000,  2.1000)
  51 Co     3.756660    0.776875   14.661198    ( 0.0000,  0.0000,  2.0000)
  52 Ni     6.353364    0.739044   14.685297    ( 0.0000,  0.0000,  2.0000)
  53 Co     8.843197    0.707504   14.667421    ( 0.0000,  0.0000,  1.5000)
  54 Co    11.308149    0.724265   14.667803    ( 0.0000,  0.0000,  2.1000)
  55 Ni     2.562577    2.918904   14.681980    ( 0.0000,  0.0000,  0.0000)
  56 Fe     5.047514    2.876224   14.673262    ( 0.0000,  0.0000,  2.0000)
  57 Ni     7.587094    2.887588   14.717057    ( 0.0000,  0.0000,  2.1000)
  58 Al    10.059655    2.923122   14.721842    ( 0.0000,  0.0000,  2.1000)
  59 Co    12.581173    2.902022   14.699768    ( 0.0000,  0.0000,  2.0000)
  60 Al     3.748435    5.096399   14.714592    ( 0.0000,  0.0000,  2.0000)
  61 Co     6.262723    5.033089   14.723016    ( 0.0000,  0.0000,  0.0000)
  62 Co     8.857244    5.082347   14.703790    ( 0.0000,  0.0000,  1.5000)
  63 Al    11.325799    5.051271   14.695776    ( 0.0000,  0.0000,  0.0000)
  64 Ni    13.876183    5.054495   14.660318    ( 0.0000,  0.0000,  2.1000)
  65 Fe     5.052567    7.279870   14.704259    ( 0.0000,  0.0000,  2.0000)
  66 Ni     7.623886    7.324091   14.709690    ( 0.0000,  0.0000,  0.0000)
  67 Co    10.091768    7.250248   14.682744    ( 0.0000,  0.0000,  1.5000)
  68 Ni    12.609710    7.231017   14.738808    ( 0.0000,  0.0000,  0.0000)
  69 Cr    15.165859    7.289737   14.678898    ( 0.0000,  0.0000,  0.0000)
  70 Cr     6.290924    9.483294   14.711891    ( 0.0000,  0.0000,  0.0000)
  71 Cr     8.799610    9.526006   14.705668    ( 0.0000,  0.0000,  2.0000)
  72 Ni    11.328536    9.524116   14.771390    ( 0.0000,  0.0000,  0.0000)
  73 Fe    13.905777    9.475951   14.693692    ( 0.0000,  0.0000,  2.0000)
  74 Ni    16.402593    9.490986   14.643939    ( 0.0000,  0.0000,  1.5000)
  75 Co    12.559989    1.424700   16.738106    ( 0.0000,  0.0000,  0.0000)
  76 Fe     2.519368    1.415325   16.732030    ( 0.0000,  0.0000,  2.1000)
  77 Co     5.058418    1.426623   16.724633    ( 0.0000,  0.0000,  2.1000)
  78 Fe     7.588593    1.431310   16.719262    ( 0.0000,  0.0000,  1.5000)
  79 Fe    10.080282    1.446990   16.712775    ( 0.0000,  0.0000,  2.1000)
  80 Fe    13.906517    3.636537   16.770219    ( 0.0000,  0.0000,  0.0000)
  81 Fe     3.830827    3.632472   16.750288    ( 0.0000,  0.0000,  2.1000)
  82 Al     6.307138    3.580352   16.791881    ( 0.0000,  0.0000,  2.0000)
  83 Co     8.837036    3.649693   16.760356    ( 0.0000,  0.0000,  1.5000)
  84 Cr    11.316239    3.632713   16.757567    ( 0.0000,  0.0000,  0.0000)
  85 Cr    15.124416    5.819298   16.794875    ( 0.0000,  0.0000,  1.5000)
  86 Fe     5.069314    5.825133   16.817741    ( 0.0000,  0.0000,  2.0000)
  87 Fe     7.591000    5.828182   16.790531    ( 0.0000,  0.0000,  1.5000)
  88 Co    10.100423    5.832104   16.795022    ( 0.0000,  0.0000,  2.1000)
  89 Ni    12.591819    5.816097   16.796049    ( 0.0000,  0.0000,  1.5000)
  90 Cr    16.393148    8.022678   16.766491    ( 0.0000,  0.0000,  0.0000)
  91 Co     6.343718    8.036435   16.784337    ( 0.0000,  0.0000,  2.1000)
  92 Al     8.869407    8.031059   16.785541    ( 0.0000,  0.0000,  1.5000)
  93 Al    11.350811    8.006966   16.850353    ( 0.0000,  0.0000,  0.0000)
  94 Cr    13.848456    8.043231   16.790120    ( 0.0000,  0.0000,  1.5000)
  95 Cr    17.664975   10.214378   16.704673    ( 0.0000,  0.0000,  1.5000)
  96 Co     7.577805   10.200216   16.752871    ( 0.0000,  0.0000,  0.0000)
  97 Fe    10.073950   10.240525   16.814835    ( 0.0000,  0.0000,  0.0000)
  98 Co    12.634825   10.205702   16.792879    ( 0.0000,  0.0000,  2.1000)
  99 Ni    15.128204   10.222671   16.717207    ( 0.0000,  0.0000,  2.1000)
 100 Ni     6.295996   10.895646   18.725164    ( 0.0000,  0.0000,  2.1000)
 101 Ni     2.531103    0.010731   18.808028    ( 0.0000,  0.0000,  0.0000)
 102 Ni    11.354102   10.922176   18.789712    ( 0.0000,  0.0000,  2.0000)
 103 Ni    13.893055   10.918669   18.754371    ( 0.0000,  0.0000,  1.5000)
 104 Co    16.407321   10.902924   18.697866    ( 0.0000,  0.0000,  2.0000)
 105 Ni     1.242615    2.122916   18.813664    ( 0.0000,  0.0000,  0.0000)
 106 Ni     3.777583    2.163727   18.725751    ( 0.0000,  0.0000,  2.0000)
 107 Al     6.316494    2.112186   18.751024    ( 0.0000,  0.0000,  1.5000)
 108 Cr     8.821019    2.135678   18.724841    ( 0.0000,  0.0000,  1.5000)
 109 Cr    11.346910    2.127920   18.772482    ( 0.0000,  0.0000,  0.0000)
 110 Ni    15.041821    4.389824   19.217240    ( 0.0000,  0.0000,  0.0000)
 111 Fe     5.122707    4.340730   18.947661    ( 0.0000,  0.0000,  0.0000)
 112 Fe     7.593428    4.391189   18.757570    ( 0.0000,  0.0000,  0.0000)
 113 Al    10.074524    4.387147   18.958463    ( 0.0000,  0.0000,  0.0000)
 114 Co    12.568500    4.377597   18.792178    ( 0.0000,  0.0000,  2.1000)
 115 Cr    16.401190    6.592941   18.854788    ( 0.0000,  0.0000,  0.0000)
 116 Al     6.333626    6.597181   18.774830    ( 0.0000,  0.0000,  2.1000)
 117 Fe     8.832315    6.612293   18.776708    ( 0.0000,  0.0000,  2.0000)
 118 Fe    11.357713    6.592056   18.807559    ( 0.0000,  0.0000,  1.5000)
 119 Cr    13.843649    6.600634   18.766083    ( 0.0000,  0.0000,  2.1000)
 120 Ni    17.672908    8.762055   18.787393    ( 0.0000,  0.0000,  1.5000)
 121 Fe     7.589466    8.752057   18.793733    ( 0.0000,  0.0000,  0.0000)
 122 Co    10.105305    8.758351   18.804653    ( 0.0000,  0.0000,  2.1000)
 123 Cr    12.605169    8.778467   18.827842    ( 0.0000,  0.0000,  2.0000)
 124 Co    15.105383    8.773889   18.800925    ( 0.0000,  0.0000,  1.5000)

Unit cell:
           periodic     x           y           z      points  spacing
  1. axis:    yes   12.614700    0.000000    0.000000    56     0.1951
  2. axis:    yes    6.308550   10.926700    0.000000    56     0.1951
  3. axis:    no     0.000000    0.000000   29.353100   128     0.2293

  Lengths:  12.614700  12.617075  29.353100
  Angles:   90.000000  90.000000  59.999934

Effective grid spacing dv^(1/3) = 0.2160

     iter     time        total  log10-change:  magmom
                         energy  eigst   dens
iter:   1 08:55:03 -1070.688012                  +148.4802
iter:   2 08:58:02 -1847.406393  +0.38  -1.14    +107.1428
iter:   3 09:01:01 -1766.601726  +0.87  -0.81    +76.6089
iter:   4 09:04:00 -1112.784419  -0.25  -0.82    +51.4691
iter:   5 09:06:58  -988.175267  -1.21  -1.16    +39.3744
iter:   6 09:09:56  -971.766739  -1.69  -1.29    +31.7248
iter:   7 09:12:54  -957.088390  -1.84  -1.31    +29.4862
iter:   8 09:15:53 -1181.068906  -0.58  -1.34    +30.8362
iter:   9 09:18:51 -1075.814049  -0.83  -1.01    +29.1729
iter:  10 09:21:49  -939.801091  -1.43  -1.09    +26.6639
iter:  11 09:24:47  -921.969148  -1.78  -1.40    +28.3125
iter:  12 09:27:42  -929.456348  -1.61  -1.49    +28.6615
iter:  13 09:30:40  -930.925108  -1.72  -1.47    +29.1878
iter:  14 09:33:39  -940.287960  -1.61  -1.46    +30.3622
iter:  15 09:36:38  -946.849838  -1.74  -1.43    +31.7264
iter:  16 09:39:37  -937.294528  -1.52  -1.41    +32.3630
iter:  17 09:42:35  -920.400959  -1.73  -1.48    +32.0035
iter:  18 09:45:34  -921.466220  -2.13  -1.66    +32.7373
iter:  19 09:48:28  -920.299065  -1.90  -1.63    +33.9442
iter:  20 09:51:26  -913.207437  -2.40  -1.66    +35.7355
iter:  21 09:54:25  -913.770807  -2.92  -1.79    +37.8326
iter:  22 09:57:23  -922.540437  -2.48  -1.80    +38.8049
iter:  23 10:00:22  -916.916243  -2.45  -1.63    +41.1763
iter:  24 10:03:20  -918.015799  -2.38  -1.78    +42.3148
iter:  25 10:06:18  -919.652071  -2.28  -1.80    +44.3819
iter:  26 10:09:16  -920.028706  -2.23  -1.78    +45.8746
iter:  27 10:12:15  -917.899075  -2.34  -1.81    +48.4718
iter:  28 10:15:12  -921.977167  -2.56  -1.85    +49.9563
iter:  29 10:18:11  -917.154652  -2.61  -1.76    +51.5063
iter:  30 10:21:11  -916.863262  -3.07  -1.93    +53.3389
iter:  31 10:24:11  -917.867376  -3.00  -2.00    +55.2724
iter:  32 10:27:11  -918.129453  -2.84  -1.97    +56.9796
iter:  33 10:30:12  -918.455114  -2.77  -2.01    +58.2509
iter:  34 10:33:13  -927.675819  -2.54  -2.08    +59.7061
iter:  35 10:36:14  -925.861280  -2.18  -1.70    +60.1484
iter:  36 10:39:15  -918.934564  -2.59  -1.75    +59.7749
iter:  37 10:42:17  -919.316690  -2.88  -2.19    +60.3148
iter:  38 10:45:19  -918.530867  -3.32  -2.11    +60.9629
iter:  39 10:48:20  -918.738201  -3.46  -2.26    +62.2832
iter:  40 10:51:22  -919.318218  -2.94  -2.29    +64.8311
iter:  41 10:54:22  -919.760109  -3.15  -2.27    +66.2854
iter:  42 10:57:21  -919.964789  -3.25  -2.24    +67.2822
iter:  43 11:00:19  -920.090976  -3.62  -2.22    +67.5350
iter:  44 11:03:19  -919.788824  -3.52  -2.20    +67.8235
iter:  45 11:06:19  -920.975520  -3.22  -2.22    +68.1116
iter:  46 11:09:19  -923.125272  -2.22  -2.08    +68.1767
iter:  47 11:12:20  -919.541073  -2.85  -2.00    +67.8238
iter:  48 11:15:20  -919.533946  -3.15  -2.33    +67.6856
iter:  49 11:18:20  -919.973353  -3.28  -2.39    +67.3853
iter:  50 11:21:15  -922.169041  -2.91  -2.36    +67.0683
iter:  51 11:24:15  -919.946584  -3.43  -2.04    +67.1084
iter:  52 11:27:15  -920.223230  -3.80  -2.47    +67.0859
iter:  53 11:30:14  -920.184634  -3.26  -2.42    +67.2151
iter:  54 11:33:13  -919.991805  -3.66  -2.32    +67.2491
iter:  55 11:36:13  -920.135731  -4.05  -2.48    +67.4370
iter:  56 11:39:13  -920.963091  -3.31  -2.43    +67.4200
iter:  57 11:42:12  -920.073099  -3.56  -2.22    +67.4302
iter:  58 11:45:12  -920.376690  -3.37  -2.60    +67.8006
iter:  59 11:48:12  -920.139138  -3.80  -2.47    +67.8040
iter:  60 11:51:09  -920.268080  -3.60  -2.72    +67.9223
iter:  61 11:54:08  -920.746478  -3.59  -2.69    +67.9011
iter:  62 11:57:07  -920.422808  -3.61  -2.33    +67.9299
iter:  63 12:00:07  -920.293619  -4.05  -2.54    +68.2276
iter:  64 12:03:06  -920.345646  -4.17  -2.78    +68.3094
iter:  65 12:06:05  -920.477326  -3.93  -2.78    +68.3930
iter:  66 12:09:05  -920.500570  -3.97  -2.68    +68.3402
iter:  67 12:12:04  -920.623145  -3.71  -2.61    +68.4424
iter:  68 12:15:04  -920.629525  -3.92  -2.54    +68.4305
iter:  69 12:18:03  -920.518030  -4.06  -2.53    +68.4754
iter:  70 12:21:01  -920.683191  -3.56  -2.68    +68.3629
iter:  71 12:23:59  -920.542419  -4.07  -2.53    +68.3255
iter:  72 12:26:56  -920.593298  -3.93  -2.70    +68.0980
iter:  73 12:29:55  -920.701422  -4.17  -2.68    +67.8688
iter:  74 12:32:53  -920.722976  -4.53  -2.57    +67.8194
iter:  75 12:35:52  -920.734875c -4.94  -2.59    +67.8574
iter:  76 12:38:51  -920.744931c -4.01  -2.58    +67.7985
iter:  77 12:41:49  -921.265685  -3.38  -2.62    +67.6645
iter:  78 12:44:48  -920.975089  -3.41  -2.29    +67.4872
iter:  79 12:47:47  -920.870830  -3.30  -2.42    +67.2900
iter:  80 12:50:46  -920.779929  -3.87  -2.49    +67.2713
iter:  81 12:53:44  -920.926601  -3.72  -2.56    +67.4410
iter:  82 12:56:41  -920.688955  -3.82  -2.47    +67.5008
iter:  83 12:59:39  -920.733815  -3.82  -2.75    +67.6028
iter:  84 13:02:35  -920.833168  -3.76  -2.64    +67.4761
iter:  85 13:05:34  -920.722236  -4.04  -2.57    +67.4252
iter:  86 13:08:32  -920.690078  -4.61  -2.72    +67.5357
iter:  87 13:11:31  -920.690944c -4.44  -2.84    +67.6082
iter:  88 13:14:30  -920.788920c -3.75  -2.85    +67.5773
iter:  89 13:17:28  -920.713802c -4.39  -2.78    +67.5647
iter:  90 13:20:27  -920.735632c -4.15  -2.85    +67.5988
iter:  91 13:23:24  -923.313565  -3.10  -2.82    +67.4859
iter:  92 13:26:20  -920.702179  -3.40  -2.02    +67.3926
iter:  93 13:29:19  -920.678300  -4.27  -3.01    +67.3463
iter:  94 13:32:17  -920.683444c -4.85  -3.19    +67.3124
iter:  95 13:35:16  -920.681587c -5.03  -3.26    +67.3129
iter:  96 13:38:13  -920.687803c -5.13  -3.28    +67.2744
iter:  97 13:41:09  -920.781526c -4.49  -3.32    +67.2511
iter:  98 13:44:08  -920.686925c -4.76  -2.73    +67.2340
iter:  99 13:47:06  -920.692644c -5.04  -3.37    +67.2513
iter: 100 13:50:04  -920.689291c -5.42  -3.33    +67.2320
iter: 101 13:53:03  -920.693758c -5.35  -3.52    +67.1736
iter: 102 13:56:01  -920.690923c -5.79  -3.45    +67.1843
iter: 103 13:58:59  -920.697788c -5.45  -3.53    +67.1897
iter: 104 14:01:55  -920.700854c -5.25  -3.32    +67.1748
iter: 105 14:04:54  -920.694976c -5.49  -3.24    +67.1461
iter: 106 14:07:52  -920.696378c -5.60  -3.54    +67.1368
iter: 107 14:10:50  -920.696716c -5.59  -3.56    +67.1376
iter: 108 14:13:46  -920.697788c -5.61  -3.57    +67.1256
iter: 109 14:16:43  -920.697518c -5.95  -3.60    +67.1035
iter: 110 14:19:40  -920.700422c -5.49  -3.62    +67.0937
iter: 111 14:22:38  -920.697949c -5.87  -3.47    +67.0955
iter: 112 14:25:36  -920.698377c -6.08  -3.84    +67.0807
iter: 113 14:28:34  -920.698479c -6.47  -3.82    +67.0690
iter: 114 14:31:29  -920.700987c -5.82  -3.94    +67.0405
iter: 115 14:34:28  -920.702080c -5.79  -3.57    +67.0518
iter: 116 14:37:26  -920.699697c -6.04  -3.55    +67.0525
iter: 117 14:40:24  -920.700076c -6.56  -4.19c   +67.0482
iter: 118 14:43:22  -920.700472c -6.72  -4.21c   +67.0291
iter: 119 14:46:19  -920.700733c -6.86  -4.25c   +67.0227
iter: 120 14:49:15  -920.701061c -6.97  -4.25c   +67.0163
iter: 121 14:52:13  -920.701626c -6.43  -4.27c   +67.0018
iter: 122 14:55:11  -920.701689c -7.11  -4.19c   +67.0020
iter: 123 14:58:09  -920.701793c -7.02  -4.24c   +66.9960
iter: 124 15:01:06  -920.701961c -6.98  -4.23c   +66.9936
iter: 125 15:04:02  -920.702061c -7.04  -4.28c   +66.9910
iter: 126 15:07:01  -920.702093c -7.08  -4.31c   +66.9902
iter: 127 15:09:59  -920.702355c -7.09  -4.35c   +66.9825
iter: 128 15:12:58  -920.702437c -6.91  -4.16c   +66.9828
iter: 129 15:15:56  -920.702260c -7.13  -4.09c   +66.9820
iter: 130 15:18:53  -920.702407c -7.50c -4.47c   +66.9791

Converged after 130 iterations.

Dipole moment: (55.276600, 43.590598, -0.027518) |e|*Ang

Total magnetic moment: (0.000000, 0.000000, 66.979116)
Local magnetic moments:
   0 Ni ( 0.000000,  0.000000,  0.422677)
   1 Cr ( 0.000000,  0.000000,  2.026316)
   2 Cr ( 0.000000,  0.000000, -2.781019)
   3 Fe ( 0.000000,  0.000000,  2.157432)
   4 Al ( 0.000000,  0.000000, -0.050185)
   5 Co ( 0.000000,  0.000000,  1.237117)
   6 Cr ( 0.000000,  0.000000,  1.612649)
   7 Cr ( 0.000000,  0.000000, -2.239141)
   8 Ni ( 0.000000,  0.000000,  0.157006)
   9 Co ( 0.000000,  0.000000,  1.413638)
  10 Ni ( 0.000000,  0.000000,  0.312915)
  11 Co ( 0.000000,  0.000000, -0.057613)
  12 Al ( 0.000000,  0.000000, -0.004574)
  13 Cr ( 0.000000,  0.000000, -1.927000)
  14 Ni ( 0.000000,  0.000000,  0.345054)
  15 Ni ( 0.000000,  0.000000,  0.127768)
  16 Co ( 0.000000,  0.000000,  0.561946)
  17 Cr ( 0.000000,  0.000000,  1.338128)
  18 Cr ( 0.000000,  0.000000,  1.957646)
  19 Ni ( 0.000000,  0.000000,  0.310691)
  20 Co ( 0.000000,  0.000000,  1.849002)
  21 Ni ( 0.000000,  0.000000,  0.259843)
  22 Cr ( 0.000000,  0.000000, -2.132011)
  23 Ni ( 0.000000,  0.000000,  0.072976)
  24 Ni ( 0.000000,  0.000000,  0.446070)
  25 Fe ( 0.000000,  0.000000,  2.419779)
  26 Co ( 0.000000,  0.000000,  0.757494)
  27 Fe ( 0.000000,  0.000000,  2.171239)
  28 Al ( 0.000000,  0.000000, -0.052895)
  29 Fe ( 0.000000,  0.000000,  2.390187)
  30 Cr ( 0.000000,  0.000000, -2.010156)
  31 Cr ( 0.000000,  0.000000, -1.430616)
  32 Al ( 0.000000,  0.000000, -0.020267)
  33 Fe ( 0.000000,  0.000000,  2.089771)
  34 Fe ( 0.000000,  0.000000,  2.328271)
  35 Co ( 0.000000,  0.000000,  0.394838)
  36 Al ( 0.000000,  0.000000, -0.020841)
  37 Fe ( 0.000000,  0.000000,  1.544800)
  38 Cr ( 0.000000,  0.000000,  0.376754)
  39 Fe ( 0.000000,  0.000000,  2.050269)
  40 Al ( 0.000000,  0.000000, -0.015337)
  41 Al ( 0.000000,  0.000000, -0.014950)
  42 Cr ( 0.000000,  0.000000,  0.496699)
  43 Al ( 0.000000,  0.000000, -0.015379)
  44 Fe ( 0.000000,  0.000000,  2.421888)
  45 Cr ( 0.000000,  0.000000, -1.579201)
  46 Al ( 0.000000,  0.000000, -0.015330)
  47 Fe ( 0.000000,  0.000000,  1.469465)
  48 Cr ( 0.000000,  0.000000, -1.966251)
  49 Co ( 0.000000,  0.000000,  0.879630)
  50 Fe ( 0.000000,  0.000000,  2.229057)
  51 Co ( 0.000000,  0.000000,  1.242913)
  52 Ni ( 0.000000,  0.000000,  0.489565)
  53 Co ( 0.000000,  0.000000,  1.307941)
  54 Co ( 0.000000,  0.000000,  1.107004)
  55 Ni ( 0.000000,  0.000000,  0.237004)
  56 Fe ( 0.000000,  0.000000,  2.159551)
  57 Ni ( 0.000000,  0.000000,  0.418779)
  58 Al ( 0.000000,  0.000000, -0.033758)
  59 Co ( 0.000000,  0.000000,  0.853649)
  60 Al ( 0.000000,  0.000000, -0.033703)
  61 Co ( 0.000000,  0.000000,  1.177546)
  62 Co ( 0.000000,  0.000000,  1.108867)
  63 Al ( 0.000000,  0.000000, -0.021945)
  64 Ni ( 0.000000,  0.000000,  0.028263)
  65 Fe ( 0.000000,  0.000000,  1.480430)
  66 Ni ( 0.000000,  0.000000,  0.137755)
  67 Co ( 0.000000,  0.000000,  0.873362)
  68 Ni ( 0.000000,  0.000000,  0.142943)
  69 Cr ( 0.000000,  0.000000, -1.851403)
  70 Cr ( 0.000000,  0.000000, -1.339245)
  71 Cr ( 0.000000,  0.000000,  1.065301)
  72 Ni ( 0.000000,  0.000000,  0.351366)
  73 Fe ( 0.000000,  0.000000,  2.275970)
  74 Ni ( 0.000000,  0.000000,  0.138102)
  75 Co ( 0.000000,  0.000000,  0.857727)
  76 Fe ( 0.000000,  0.000000,  2.419174)
  77 Co ( 0.000000,  0.000000,  1.296743)
  78 Fe ( 0.000000,  0.000000,  2.119247)
  79 Fe ( 0.000000,  0.000000,  1.948536)
  80 Fe ( 0.000000,  0.000000, -2.446031)
  81 Fe ( 0.000000,  0.000000,  2.271217)
  82 Al ( 0.000000,  0.000000, -0.067404)
  83 Co ( 0.000000,  0.000000,  0.954825)
  84 Cr ( 0.000000,  0.000000, -1.476830)
  85 Cr ( 0.000000,  0.000000,  1.579113)
  86 Fe ( 0.000000,  0.000000,  1.882288)
  87 Fe ( 0.000000,  0.000000,  2.263792)
  88 Co ( 0.000000,  0.000000,  0.938001)
  89 Ni ( 0.000000,  0.000000,  0.098567)
  90 Cr ( 0.000000,  0.000000, -1.481071)
  91 Co ( 0.000000,  0.000000,  0.958524)
  92 Al ( 0.000000,  0.000000, -0.056431)
  93 Al ( 0.000000,  0.000000, -0.025878)
  94 Cr ( 0.000000,  0.000000,  1.398785)
  95 Cr ( 0.000000,  0.000000,  1.087420)
  96 Co ( 0.000000,  0.000000,  1.039438)
  97 Fe ( 0.000000,  0.000000,  2.299431)
  98 Co ( 0.000000,  0.000000,  0.988026)
  99 Ni ( 0.000000,  0.000000,  0.344484)
 100 Ni ( 0.000000,  0.000000,  0.381410)
 101 Ni ( 0.000000,  0.000000,  0.585367)
 102 Ni ( 0.000000,  0.000000,  0.386149)
 103 Ni ( 0.000000,  0.000000,  0.303629)
 104 Co ( 0.000000,  0.000000,  1.317453)
 105 Ni ( 0.000000,  0.000000,  0.323640)
 106 Ni ( 0.000000,  0.000000,  0.597944)
 107 Al ( 0.000000,  0.000000, -0.036516)
 108 Cr ( 0.000000,  0.000000, -2.416728)
 109 Cr ( 0.000000,  0.000000,  2.072106)
 110 Ni ( 0.000000,  0.000000,  0.093389)
 111 Fe ( 0.000000,  0.000000,  2.525992)
 112 Fe ( 0.000000,  0.000000,  2.081217)
 113 Al ( 0.000000,  0.000000, -0.042390)
 114 Co ( 0.000000,  0.000000,  1.040670)
 115 Cr ( 0.000000,  0.000000, -2.450094)
 116 Al ( 0.000000,  0.000000, -0.066750)
 117 Fe ( 0.000000,  0.000000,  2.315347)
 118 Fe ( 0.000000,  0.000000,  2.259917)
 119 Cr ( 0.000000,  0.000000, -1.976950)
 120 Ni ( 0.000000,  0.000000,  0.225652)
 121 Fe ( 0.000000,  0.000000,  2.654748)
 122 Co ( 0.000000,  0.000000,  1.147873)
 123 Cr ( 0.000000,  0.000000, -2.399038)
 124 Co ( 0.000000,  0.000000,  1.055702)

Energy contributions relative to reference atoms: (reference = -3927717.499734)

Kinetic:       +388.079043
Potential:     -372.719669
External:        +0.000000
XC:            -971.669775
Entropy (-ST):   -5.103684
Local:          +38.159837
--------------------------
Free energy:   -923.254249
Extrapolated:  -920.702407

Dipole-layer corrected work functions: 4.820456, 4.856582 eV

Spin contamination: 41.193516 electrons
Showing all kpts
                      Up                     Down
 Kpt  Band  Eigenvalues  Occupancy  Eigenvalues  Occupancy
  0   547     -0.03593    0.99419      0.81060    0.03478
  0   548     -0.02766    0.99369      0.83131    0.02846
  0   549     -0.01890    0.99311      0.83325    0.02792
  0   550      0.00033    0.99167      0.84189    0.02567

  1   547     -0.03260    0.99399      0.81610    0.03298
  1   548     -0.01580    0.99290      0.82956    0.02894
  1   549     -0.00315    0.99195      0.84351    0.02527
  1   550      0.00800    0.99101      0.85221    0.02321


Fermi level: 0.47825

No gap

Forces in eV/Ang:
  0 Ni   -0.27326   -0.31665    0.59198
  1 Cr   -0.16700   -0.10114    0.20065
  2 Cr   -0.11067   -0.77442    0.50560
  3 Fe   -0.18040   -0.20027   -0.62176
  4 Al    0.44795   -0.27651   -0.85931
  5 Co   -0.14379   -0.06023    0.33847
  6 Cr   -0.34437    0.16545   -0.13048
  7 Cr    0.38331    0.62647   -1.06903
  8 Ni   -0.05456    0.23381   -0.31347
  9 Co    0.44558   -0.02340    0.64608
 10 Ni   -0.19070    0.05474    0.34129
 11 Co    0.14616   -0.06184    0.26510
 12 Al   -0.43966   -0.06521   -1.18781
 13 Cr    0.00000   -0.38419   -0.92421
 14 Ni    0.25191   -0.15599    0.15939
 15 Ni    0.26905    0.38989   -0.30790
 16 Co   -0.32375    0.36448   -0.02455
 17 Cr   -0.07120   -0.27057   -0.50022
 18 Cr    0.70758    0.48048   -1.01637
 19 Ni    0.12214    0.27990    0.31327
 20 Co   -0.08768    0.05538    1.68404
 21 Ni   -0.90868    0.16185    0.06879
 22 Cr    0.24377   -0.12712    0.31148
 23 Ni    0.28369    0.10975   -0.04261
 24 Ni    0.57867    0.04897    0.71513
 25 Fe   -0.41711    1.11515   -0.51991
 26 Co    0.24232    0.41622    0.16529
 27 Fe   -0.93614   -0.54750    0.15620
 28 Al    0.20625   -0.09600   -0.13403
 29 Fe    0.93648   -0.12145    0.08943
 30 Cr   -0.71167   -0.06277   -0.31909
 31 Cr   -1.22161   -0.84297   -0.08359
 32 Al    0.22326   -0.96582    0.85243
 33 Fe    0.37310   -0.08368   -0.23959
 34 Fe    1.19012   -0.42484   -0.30576
 35 Co   -0.32158   -0.14705   -0.24860
 36 Al    0.24913   -0.32434    0.30415
 37 Fe    0.35116    0.26592    0.21491
 38 Cr   -0.55230   -0.20608   -1.27172
 39 Fe    0.52469   -0.62064   -0.56050
 40 Al   -1.92354    0.69130   -1.09558
 41 Al    1.16336   -0.45951    0.80291
 42 Cr    0.86803   -0.33963    0.98969
 43 Al    0.76314    0.26750    1.04457
 44 Fe   -0.23978    0.00249    0.35291
 45 Cr   -0.39557    1.70932   -0.70618
 46 Al   -0.15655    0.85141    0.15552
 47 Fe    0.40889    0.45817    0.69859
 48 Cr   -0.69219   -0.51413    0.25391
 49 Co    0.12584   -0.26984   -0.41694
 50 Fe   -0.36440    0.55476   -0.20950
 51 Co    0.34567   -0.34331   -0.17639
 52 Ni   -0.53245   -0.28531   -0.09305
 53 Co    0.05810   -0.08013    0.10040
 54 Co    0.44176   -0.07117   -0.38974
 55 Ni   -0.29239   -0.15831   -0.27628
 56 Fe   -0.16455   -0.10567    0.33870
 57 Ni   -0.23244    0.29575   -0.08680
 58 Al   -0.71119   -1.11897   -0.34395
 59 Co    0.14379   -0.41522    0.17473
 60 Al    0.00901   -0.75357    0.61257
 61 Co    0.41473    0.38353   -0.28287
 62 Co   -0.74470    0.50892   -0.18293
 63 Al    1.14537    1.26720    0.67038
 64 Ni   -0.12364    0.23776    0.11716
 65 Fe    0.19269    0.34490    0.38279
 66 Ni   -0.47493   -0.53870   -0.09424
 67 Co   -0.38051    0.37695   -0.07798
 68 Ni    0.07857    0.45627   -0.50493
 69 Cr   -1.12721    0.86604   -0.11620
 70 Cr   -0.18753   -0.08000    0.64041
 71 Cr    0.78600    0.18814   -0.34162
 72 Ni    0.25919   -0.32025   -0.68174
 73 Fe   -0.27013   -0.32862    0.10077
 74 Ni   -0.09345   -0.33586   -0.04088
 75 Co    0.21255    0.24019   -0.35894
 76 Fe   -0.15467    0.23574    0.19269
 77 Co   -0.25363   -0.05039   -0.49922
 78 Fe    0.38552   -0.40896   -0.45081
 79 Fe   -0.04861   -0.15043    0.09624
 80 Fe   -0.15269    0.13282    0.40704
 81 Fe   -0.23881   -0.19427    0.68783
 82 Al    0.29482    0.87715   -1.21389
 83 Co    0.22845    0.20172    0.24994
 84 Cr    0.58462   -0.59397    1.61570
 85 Cr   -0.31357   -0.05776    1.10145
 86 Fe   -0.04934   -0.04169   -0.21151
 87 Fe    0.10249   -0.17586   -0.92068
 88 Co   -0.40406   -0.37437    0.01084
 89 Ni    0.29534   -0.14553   -0.15570
 90 Cr    0.41815    0.13456    0.21606
 91 Co   -0.32521   -0.06776   -0.61153
 92 Al   -0.96170   -0.09194   -0.68383
 93 Al    0.22989    0.03312   -1.77911
 94 Cr    0.80651    0.34919    0.05437
 95 Cr    0.24163   -0.23542    0.01980
 96 Co    0.01126    0.14521    0.17206
 97 Fe    0.29415    0.33358   -0.04647
 98 Co   -0.14646    0.05359   -0.10059
 99 Ni    0.01634   -0.19138    0.20687
100 Ni    0.01139    0.06330    0.17608
101 Ni   -0.07624   -0.16655   -0.09837
102 Ni   -0.23432   -0.14619   -0.05131
103 Ni    0.16144   -0.14499   -0.04945
104 Co   -0.11673   -0.23849   -0.01211
105 Ni    0.13696    0.51688   -0.30858
106 Ni   -0.08560    0.38444    0.30834
107 Al   -0.86292   -0.70288    1.95125
108 Cr    0.74471    0.01788    0.23894
109 Cr    0.29637    0.21616   -0.01430
110 Ni    0.20549   -0.09912   -1.51791
111 Fe   -0.80641    0.35653   -0.45271
112 Fe   -0.28809   -0.32681    0.17284
113 Al    0.22228    0.43181    0.58383
114 Co    0.23660   -0.16287   -0.42044
115 Cr   -0.51418   -0.57168    0.32597
116 Al    0.15046    0.04690    1.32587
117 Fe    0.43708   -0.31164    0.40368
118 Fe   -0.08942   -0.44256    0.34928
119 Cr    0.34042   -1.00439   -0.12488
120 Ni   -0.16585    0.05792    0.01283
121 Fe    0.02495    0.78474    0.26121
122 Co   -0.09458    0.27191    0.07545
123 Cr    0.06109    0.92006    0.72427
124 Co    0.41292   -0.16225   -0.47245

Timing:                              incl.     excl.
-----------------------------------------------------------
Forces:                             49.170    49.170   0.2% |
Hamiltonian:                         2.231     0.014   0.0% |
 Atomic:                             0.392     0.002   0.0% |
  XC Correction:                     0.391     0.391   0.0% |
 Calculate atomic Hamiltonians:      1.095     1.095   0.0% |
 Communicate:                        0.197     0.197   0.0% |
 Initialize Hamiltonian:             0.000     0.000   0.0% |
 Poisson:                            0.114     0.114   0.0% |
 XC 3D grid:                         0.418     0.418   0.0% |
LCAO initialization:               319.834     0.576   0.0% |
 LCAO eigensolver:                  15.428     0.012   0.0% |
  Calculate projections:             0.000     0.000   0.0% |
  DenseAtomicCorrection:             0.000     0.000   0.0% |
  Distribute overlap matrix:        10.149    10.149   0.0% |
  Orbital Layouts:                   5.232     5.232   0.0% |
  Potential matrix:                  0.004     0.004   0.0% |
  Sum over cells:                    0.030     0.030   0.0% |
 LCAO to grid:                     301.337   301.337   1.3% ||
 Set positions (LCAO WFS):           2.493     2.165   0.0% |
  Basic WFS set positions:           0.004     0.004   0.0% |
  Basis functions set positions:     0.001     0.001   0.0% |
  P tci:                             0.000     0.000   0.0% |
  ST tci:                            0.125     0.125   0.0% |
  mktci:                             0.198     0.198   0.0% |
PWDescriptor:                        0.125     0.125   0.0% |
SCF-cycle:                       23225.111  1952.404   8.3% |--|
 Davidson:                       20528.530  6558.390  27.8% |----------|
  Apply H:                         454.477   448.690   1.9% ||
   HMM T:                            5.787     5.787   0.0% |
  Subspace diag:                  2236.365     0.057   0.0% |
   calc_h_matrix:                 1002.331   537.226   2.3% ||
    Apply H:                       465.105   459.187   1.9% ||
     HMM T:                          5.918     5.918   0.0% |
   diagonalize:                    201.886   201.886   0.9% |
   rotate_psi:                    1032.091  1032.091   4.4% |-|
  calc. matrices:                 5115.512  4344.429  18.4% |------|
   Apply H:                        771.084   757.931   3.2% ||
    HMM T:                          13.152    13.152   0.1% |
  diagonalize:                    3966.656  3966.656  16.8% |------|
  rotate_psi:                     2197.129  2197.129   9.3% |---|
 Density:                          414.736     0.005   0.0% |
  Atomic density matrices:           3.845     3.845   0.0% |
  Mix:                             198.784   198.784   0.8% |
  Multipole moments:                 0.107     0.107   0.0% |
  Pseudo density:                  211.995   211.989   0.9% |
   Symmetrize density:               0.007     0.007   0.0% |
 Hamiltonian:                      310.039     1.650   0.0% |
  Atomic:                           53.764     0.224   0.0% |
   XC Correction:                   53.540    53.540   0.2% |
  Calculate atomic Hamiltonians:   169.503   169.503   0.7% |
  Communicate:                      25.455    25.455   0.1% |
  Poisson:                           6.159     6.159   0.0% |
  XC 3D grid:                       53.508    53.508   0.2% |
 Orthonormalize:                    19.402     0.001   0.0% |
  calc_s_matrix:                     2.248     2.248   0.0% |
  inverse-cholesky:                  1.008     1.008   0.0% |
  projections:                      12.189    12.189   0.1% |
  rotate_psi_s:                      3.956     3.956   0.0% |
Set symmetry:                        0.001     0.001   0.0% |
Other:                              12.349    12.349   0.1% |
-----------------------------------------------------------
Total:                                     23608.822 100.0%

Date: Wed Apr 19 15:19:50 2023
