
  ___ ___ ___ _ _ _  
 |   |   |_  | | | | 
 | | | | | . | | | | 
 |__ |  _|___|_____|  22.8.0
 |___|_|             

User:   c.zeng@d0150
Date:   Sat Apr  8 17:00:41 2023
Arch:   x86_64
Pid:    67005
CWD:    /home/c.zeng/projects/hea-corrosion/hea-mlp/data-curation/volume/dft-jobs/95
Python: 3.8.1
gpaw:   /home/c.zeng/usr/installs/gpaw/source/gpaw-22.8.0/gpaw
_gpaw:  /home/c.zeng/usr/installs/gpaw/source/gpaw-22.8.0/
        _gpaw.cpython-38-x86_64-linux-gnu.so
ase:    /home/c.zeng/.local/lib/python3.8/site-packages/ase-3.22.1-py3.8.egg/ase (version 3.22.1)
numpy:  /shared/centos7/python/3.8.1/lib/python3.8/site-packages/numpy (version 1.17.4)
scipy:  /shared/centos7/python/3.8.1/lib/python3.8/site-packages/scipy (version 1.4.1)
libxc:  4.2.3
units:  Angstrom and eV
cores: 64
OpenMP: False
OMP_NUM_THREADS: 1

Input parameters:
  convergence: {energy: 0.0001}
  kpts: [2 2 2]
  maxiter: 666
  mode: {ecut: 350.0,
         name: pw}
  occupations: {fixmagmom: False,
                name: fermi-dirac,
                width: 0.1}
  spinpol: True
  xc: PBE

System changes: positions, numbers, cell, pbc, initial_charges, initial_magmoms 

Initialize ...

species:
  Fe:
    name: Iron
    id: 37abbd8d6c3c35915a9b583b742da910
    Z: 26.0
    valence: 8
    core: 18
    charge: 0.0
    file: /home/c.zeng/usr/data/gpaw-setups-0.9.20000/Fe.PBE.gz
    compensation charges: {type: gauss,
                           rc: 0.33,
                           lmax: 2}
    cutoffs: {filter: 2.06,
              core: 2.67}
    valence states:
      #              energy  rcut
      - 4s(2.00)    -5.291   1.164
      - 4p(0.00)    -1.326   1.058
      - 3d(6.00)    -7.505   1.058
      -  s          21.920   1.164
      -  p          25.885   1.058
      -  d          19.706   1.058
  
    # Using partial waves for Fe as LCAO basis

  Cr:
    name: Chromium
    id: 33f258bda2ca9f93018e70263a35547b
    Z: 24.0
    valence: 6
    core: 18
    charge: 0.0
    file: /home/c.zeng/usr/data/gpaw-setups-0.9.20000/Cr.PBE.gz
    compensation charges: {type: gauss,
                           rc: 0.35,
                           lmax: 2}
    cutoffs: {filter: 2.14,
              core: 3.04}
    valence states:
      #              energy  rcut
      - 4s(1.00)    -4.007   1.164
      - 4p(0.00)    -0.989   1.217
      - 3d(5.00)    -2.913   1.111
      -  s          23.205   1.164
      -  p          26.223   1.217
      -  d          24.299   1.111
  
    # Using partial waves for Cr as LCAO basis

  Ni:
    name: Nickel
    id: 0d9f38a9d6e76a2886f07bb4381f212b
    Z: 28.0
    valence: 16
    core: 12
    charge: 0.0
    file: /home/c.zeng/usr/data/gpaw-setups-0.9.20000/Ni.PBE.gz
    compensation charges: {type: gauss,
                           rc: 0.36,
                           lmax: 2}
    cutoffs: {filter: 2.14,
              core: 1.98}
    valence states:
      #              energy  rcut
      - 4s(2.00)    -5.642   1.164
      - 3p(6.00)   -71.394   1.207
      - 4p(0.00)    -1.226   1.207
      - 3d(8.00)    -8.875   1.138
      -  s          21.570   1.164
      -  d          18.337   1.138
  
    # Using partial waves for Ni as LCAO basis

  Al:
    name: Aluminium
    id: 0292cae29f5d6237e50f6abdd43a7bdd
    Z: 13.0
    valence: 3
    core: 10
    charge: 0.0
    file: /home/c.zeng/usr/data/gpaw-setups-0.9.20000/Al.PBE.gz
    compensation charges: {type: gauss,
                           rc: 0.34,
                           lmax: 2}
    cutoffs: {filter: 1.91,
              core: 2.36}
    valence states:
      #              energy  rcut
      - 3s(2.00)    -7.753   1.085
      - 3p(1.00)    -2.712   1.085
      -  s          19.459   1.085
      -  p          24.499   1.085
      -  d           0.000   1.085
  
    # Using partial waves for Al as LCAO basis

  Co:
    name: Cobalt
    id: 339d20d5b0b93d2de9531a1bee871d91
    Z: 27.0
    valence: 9
    core: 18
    charge: 0.0
    file: /home/c.zeng/usr/data/gpaw-setups-0.9.20000/Co.PBE.gz
    compensation charges: {type: gauss,
                           rc: 0.32,
                           lmax: 2}
    cutoffs: {filter: 1.87,
              core: 2.55}
    valence states:
      #              energy  rcut
      - 4s(2.00)    -5.469   1.005
      - 4p(0.00)    -1.277   1.058
      - 3d(7.00)    -8.205   1.005
      -  s          21.742   1.005
      -  p          25.934   1.058
      -  d          19.007   1.005
  
    # Using partial waves for Co as LCAO basis

Reference energy: -3382523.201499  # eV

Spin-polarized calculation.
Magnetic moment: 128.800000

Convergence criteria:
 Maximum [total energy] change in last 3 cyles: 0.0001 eV / electron
 Maximum integral of absolute [dens]ity change: 0.0001 electrons / valence electron
 Maximum integral of absolute [eigenst]ate change: 4e-08 eV^2 / valence electron
 Maximum number of scf [iter]ations: 666
 (Square brackets indicate name in SCF output, whereas a 'c' in
 the SCF output indicates the quantity has converged.)

Symmetries present (total): 1

  ( 1  0  0)
  ( 0  1  0)
  ( 0  0  1)

8 k-points: 2 x 2 x 2 Monkhorst-Pack grid
4 k-points in the irreducible part of the Brillouin zone
       k-points in crystal coordinates                weights
   0:     0.25000000   -0.25000000   -0.25000000          2/8
   1:     0.25000000   -0.25000000    0.25000000          2/8
   2:     0.25000000    0.25000000   -0.25000000          2/8
   3:     0.25000000    0.25000000    0.25000000          2/8

Wave functions: Plane wave expansion
  Cutoff energy: 350.000 eV
  Number of coefficients (min, max): 20795, 20795
  Pulay-stress correction: 0.000000 eV/Ang^3 (de/decut=0.000000)
  Using FFTW library
  ScaLapack parameters: grid=1x1, blocksize=None
  Wavefunction extrapolation:
    Improved wavefunction reuse through dual PAW basis 

Occupation numbers: Fermi-Dirac:
  width: 0.1000  # eV
 

Eigensolver
   Davidson(niter=2) 

Densities:
  Coarse grid: 49*49*49 grid
  Fine grid: 98*98*98 grid
  Total Charge: 0.000000 

Density mixing:
  Method: difference
  Backend: pulay
  Linear mixing parameter: 0.05
  old densities: 5
  Damping of long wavelength oscillations: 50 

Hamiltonian:
  XC and Coulomb potentials evaluated on a 98*98*98 grid
  Using the PBE Exchange-Correlation functional
  External potential:
    NoExternalPotential
 

XC parameters: PBE with 2 nearest neighbor stencil

Memory estimate:
  Process memory now: 180.85 MiB
  Calculator: 698.18 MiB
    Density: 5.66 MiB
      Arrays: 2.02 MiB
      Localized functions: 2.77 MiB
      Mixer: 0.87 MiB
    Hamiltonian: 1.58 MiB
      Arrays: 1.50 MiB
      XC: 0.00 MiB
      Poisson: 0.00 MiB
      vbar: 0.08 MiB
    Wavefunctions: 690.94 MiB
      Arrays psit_nG: 411.86 MiB
      Eigensolver: 271.81 MiB
      Projections: 2.31 MiB
      Projectors: 0.38 MiB
      PW-descriptor: 4.58 MiB

Total number of cores used: 64
Parallelization over k-points: 4
Domain decomposition: 4 x 2 x 2

Number of atoms: 108
Number of atomic orbitals: 961
Number of bands in calculation: 649
Number of valence electrons: 945
Bands to converge: occupied

... initialized

Initializing position-dependent things.

Density initialized from atomic densities
Creating initial wave functions:
  649 bands from LCAO basis set

        .--------------------------Fe 
       /|                    Ni    |  
      / |            Cr        NiNi|  
     /  |                          |  
    /   |Cr     Al       NiAl     Fe  
   /i   FeCo       Cr     CoCo     |  
  /  FeCr  NiFe     CoCr     Fe    |  
 *      Co  Co CrNi  Fe AlFe   CoNi|  
 |      |CrFe   CrCoAl   FeCrCo   Co  
 |   Co NiAlNi     AlAl     CrNi   |  
 |     Co  Ni       Ni       Cr    |  
 |      |     FeFe    Ni Ni    Cr  |  
 |      CoFe   AlFe  Ni AlCo     Fe|  
 |      |AlAl   CrFeCo   CrCoCo   Cr  
 |      .-CrAl-----FeNi---AlCoNi---.  
 |     Cr  Al CrNi  FeFe Ni    Cr /   
 |    / FeFe   CrCoCr   NiCo     /    
 |   /     Fe     FeCo          /     
 |  /                        Cr/      
 | /  Ni    Co       Cr Ni    /       
 |/             Al       Co  /        
 *--------Al----------------*         

Positions:
   0 Fe    11.177978   11.177989   11.177978    ( 0.0000,  0.0000,  2.0000)
   1 Cr    11.177989    1.863004    1.862993    ( 0.0000,  0.0000,  0.0000)
   2 Ni     1.862993    0.000030    1.863037    ( 0.0000,  0.0000,  1.5000)
   3 Cr     1.862981    1.863026   11.177989    ( 0.0000,  0.0000,  0.0000)
   4 Al     3.725996    0.000083    0.000078    ( 0.0000,  0.0000,  0.0000)
   5 Fe     3.725996    1.863004    1.863015    ( 0.0000,  0.0000,  2.0000)
   6 Ni     5.588966   11.177989    1.863060    ( 0.0000,  0.0000,  1.5000)
   7 Al     5.588899    1.863138    0.000075    ( 0.0000,  0.0000,  0.0000)
   8 Al     7.452093   11.177866    0.000072    ( 0.0000,  0.0000,  0.0000)
   9 Co     7.452015    1.863026    1.863037    ( 0.0000,  0.0000,  2.1000)
  10 Ni     9.315030    0.000022    1.862993    ( 0.0000,  0.0000,  1.5000)
  11 Co     9.315041    1.863015    0.000012    ( 0.0000,  0.0000,  2.1000)
  12 Ni     0.000005    3.725985   11.177966    ( 0.0000,  0.0000,  1.5000)
  13 Cr    11.177978    5.589000    1.863026    ( 0.0000,  0.0000,  0.0000)
  14 Fe     1.862993    3.725974    1.862981    ( 0.0000,  0.0000,  2.0000)
  15 Cr     1.863015    5.588966   11.177955    ( 0.0000,  0.0000,  0.0000)
  16 Co     3.725996    3.726007   11.178000    ( 0.0000,  0.0000,  2.1000)
  17 Cr     3.726086    5.588966    1.862937    ( 0.0000,  0.0000,  0.0000)
  18 Co     5.589011    3.726041    1.863015    ( 0.0000,  0.0000,  2.1000)
  19 Fe     5.589011    5.589011    0.000020    ( 0.0000,  0.0000,  2.0000)
  20 Cr     7.452004    3.726041    0.000055    ( 0.0000,  0.0000,  0.0000)
  21 Fe     7.451970    5.589000    1.863004    ( 0.0000,  0.0000,  2.0000)
  22 Co     9.314996    3.725996    1.863026    ( 0.0000,  0.0000,  2.1000)
  23 Al     9.314985    5.588989   11.177989    ( 0.0000,  0.0000,  0.0000)
  24 Ni    11.177978    7.452015   11.177966    ( 0.0000,  0.0000,  1.5000)
  25 Cr    11.177978    9.315007    1.863015    ( 0.0000,  0.0000,  0.0000)
  26 Cr     1.862959    7.452004    1.862993    ( 0.0000,  0.0000,  0.0000)
  27 Al     1.862847    9.314974    0.000019    ( 0.0000,  0.0000,  0.0000)
  28 Cr     3.726063    7.451937    0.000005    ( 0.0000,  0.0000,  0.0000)
  29 Cr     3.726063    9.315030    1.863037    ( 0.0000,  0.0000,  0.0000)
  30 Fe     5.589034    7.451970    1.862981    ( 0.0000,  0.0000,  2.0000)
  31 Fe     5.589022    9.314963    0.000024    ( 0.0000,  0.0000,  2.0000)
  32 Ni     7.451959    7.452004    0.000038    ( 0.0000,  0.0000,  1.5000)
  33 Cr     7.451970    9.314974    1.862981    ( 0.0000,  0.0000,  0.0000)
  34 Co     9.315007    7.451981    1.863004    ( 0.0000,  0.0000,  2.1000)
  35 Ni     9.315030    9.314996   11.177966    ( 0.0000,  0.0000,  1.5000)
  36 Ni     0.000009   11.177978    3.726030    ( 0.0000,  0.0000,  1.5000)
  37 Co    11.177989    1.862981    5.589011    ( 0.0000,  0.0000,  2.1000)
  38 Co     1.862981   11.177989    5.589011    ( 0.0000,  0.0000,  2.1000)
  39 Cr     1.862970    1.862970    3.725963    ( 0.0000,  0.0000,  0.0000)
  40 Fe     3.726007    0.000001    3.725985    ( 0.0000,  0.0000,  2.0000)
  41 Al     3.726052    1.862914    5.589089    ( 0.0000,  0.0000,  0.0000)
  42 Fe     5.589000   11.177989    5.589000    ( 0.0000,  0.0000,  2.0000)
  43 Ni     5.589011    1.862981    3.725996    ( 0.0000,  0.0000,  1.5000)
  44 Cr     7.451981    0.000005    3.726041    ( 0.0000,  0.0000,  0.0000)
  45 Co     7.451981    1.862981    5.589000    ( 0.0000,  0.0000,  2.1000)
  46 Co     9.315007   11.177989    5.589022    ( 0.0000,  0.0000,  2.1000)
  47 Ni     9.315007    1.863015    3.726007    ( 0.0000,  0.0000,  1.5000)
  48 Ni    11.177978    3.725996    3.725996    ( 0.0000,  0.0000,  1.5000)
  49 Cr    11.177966    5.588978    5.589000    ( 0.0000,  0.0000,  0.0000)
  50 Co     1.862970    3.725996    5.589022    ( 0.0000,  0.0000,  2.1000)
  51 Al     1.862892    5.588944    3.725963    ( 0.0000,  0.0000,  0.0000)
  52 Al     3.726086    3.726007    3.725918    ( 0.0000,  0.0000,  0.0000)
  53 Fe     3.726041    5.588955    5.589022    ( 0.0000,  0.0000,  2.0000)
  54 Fe     5.589011    3.726019    5.589000    ( 0.0000,  0.0000,  2.0000)
  55 Fe     5.589011    5.588989    3.725985    ( 0.0000,  0.0000,  2.0000)
  56 Ni     7.451993    3.726030    3.725996    ( 0.0000,  0.0000,  1.5000)
  57 Ni     7.451970    5.588944    5.588955    ( 0.0000,  0.0000,  1.5000)
  58 Co     9.315019    3.725985    5.588978    ( 0.0000,  0.0000,  2.1000)
  59 Co     9.315007    5.588978    3.725963    ( 0.0000,  0.0000,  2.1000)
  60 Fe    11.177989    7.452015    3.725996    ( 0.0000,  0.0000,  2.0000)
  61 Co    11.177978    9.315030    5.589022    ( 0.0000,  0.0000,  2.1000)
  62 Al     1.862892    7.452060    5.589089    ( 0.0000,  0.0000,  0.0000)
  63 Ni     1.862970    9.315041    3.726007    ( 0.0000,  0.0000,  1.5000)
  64 Al     3.726063    7.452060    3.725873    ( 0.0000,  0.0000,  0.0000)
  65 Cr     3.726019    9.315108    5.589011    ( 0.0000,  0.0000,  0.0000)
  66 Al     5.588955    7.451959    5.589022    ( 0.0000,  0.0000,  0.0000)
  67 Ni     5.588989    9.315041    3.725985    ( 0.0000,  0.0000,  1.5000)
  68 Al     7.452060    7.451948    3.725873    ( 0.0000,  0.0000,  0.0000)
  69 Fe     7.452015    9.315063    5.589034    ( 0.0000,  0.0000,  2.0000)
  70 Cr     9.315063    7.452037    5.588989    ( 0.0000,  0.0000,  0.0000)
  71 Cr     9.315041    9.315007    3.726030    ( 0.0000,  0.0000,  0.0000)
  72 Fe    11.178000   11.177978    7.452004    ( 0.0000,  0.0000,  2.0000)
  73 Co    11.177989    1.862993    9.314985    ( 0.0000,  0.0000,  2.1000)
  74 Co     1.862948    0.000024    9.314952    ( 0.0000,  0.0000,  2.1000)
  75 Co     1.862993    1.862981    7.452026    ( 0.0000,  0.0000,  2.1000)
  76 Fe     3.725996    0.000025    7.451993    ( 0.0000,  0.0000,  2.0000)
  77 Fe     3.725985    1.863015    9.314963    ( 0.0000,  0.0000,  2.0000)
  78 Cr     5.588966   11.177978    9.314907    ( 0.0000,  0.0000,  0.0000)
  79 Fe     5.588978    1.862981    7.451993    ( 0.0000,  0.0000,  2.0000)
  80 Co     7.452004   11.177966    7.451959    ( 0.0000,  0.0000,  2.1000)
  81 Al     7.452082    1.863015    9.314918    ( 0.0000,  0.0000,  0.0000)
  82 Ni     9.315086   11.177966    9.314974    ( 0.0000,  0.0000,  1.5000)
  83 Ni     9.315041    1.862970    7.451981    ( 0.0000,  0.0000,  1.5000)
  84 Ni    11.177989    3.725974    7.452037    ( 0.0000,  0.0000,  1.5000)
  85 Fe     0.000011    5.589000    9.314996    ( 0.0000,  0.0000,  2.0000)
  86 Co     1.862993    3.726019    9.314996    ( 0.0000,  0.0000,  2.1000)
  87 Cr     1.863015    5.588966    7.452060    ( 0.0000,  0.0000,  0.0000)
  88 Ni     3.726030    3.726007    7.452037    ( 0.0000,  0.0000,  1.5000)
  89 Fe     3.725996    5.588989    9.315007    ( 0.0000,  0.0000,  2.0000)
  90 Ni     5.588922    3.726052    9.314985    ( 0.0000,  0.0000,  1.5000)
  91 Co     5.588955    5.588955    7.452004    ( 0.0000,  0.0000,  2.1000)
  92 Al     7.451959    3.726007    7.451914    ( 0.0000,  0.0000,  0.0000)
  93 Cr     7.451981    5.589000    9.315030    ( 0.0000,  0.0000,  0.0000)
  94 Fe     9.315063    3.726007    9.315007    ( 0.0000,  0.0000,  2.0000)
  95 Cr     9.315052    5.588989    7.452026    ( 0.0000,  0.0000,  0.0000)
  96 Ni    11.177966    7.452048    7.452060    ( 0.0000,  0.0000,  1.5000)
  97 Fe    11.177989    9.315007    9.314985    ( 0.0000,  0.0000,  2.0000)
  98 Co     1.862948    7.451959    9.314985    ( 0.0000,  0.0000,  2.1000)
  99 Ni     1.862948    9.315052    7.452015    ( 0.0000,  0.0000,  1.5000)
 100 Cr     3.726007    7.451959    7.452037    ( 0.0000,  0.0000,  0.0000)
 101 Al     3.726041    9.314963    9.314873    ( 0.0000,  0.0000,  0.0000)
 102 Cr     5.588989    7.451959    9.315063    ( 0.0000,  0.0000,  0.0000)
 103 Co     5.589022    9.315063    7.451981    ( 0.0000,  0.0000,  2.1000)
 104 Al     7.452060    7.452093    7.452071    ( 0.0000,  0.0000,  0.0000)
 105 Ni     7.452026    9.314996    9.314974    ( 0.0000,  0.0000,  1.5000)
 106 Co     9.315063    7.452026    9.314996    ( 0.0000,  0.0000,  2.1000)
 107 Fe     9.315019    9.315030    7.452004    ( 0.0000,  0.0000,  2.0000)

Unit cell:
           periodic     x           y           z      points  spacing
  1. axis:    yes   11.178000    0.000000    0.000000    49     0.2281
  2. axis:    yes    0.000000   11.178000    0.000000    49     0.2281
  3. axis:    yes    0.000000    0.000000   11.178000    49     0.2281

  Lengths:  11.178000  11.178000  11.178000
  Angles:   90.000000  90.000000  90.000000

Effective grid spacing dv^(1/3) = 0.2281

     iter     time        total  log10-change:  magmom
                         energy  eigst   dens
iter:   1 17:03:16 -1007.896245                  +129.0867
iter:   2 17:04:28  -886.933880  -0.13  -1.17    +71.0726
iter:   3 17:05:38  -879.130594  -0.69  -1.15    +67.6100
iter:   4 17:06:48  -838.009198  -1.18  -1.23    +62.8436
iter:   5 17:07:58  -830.295413  -1.61  -1.31    +63.1962
iter:   6 17:09:10  -834.460355  -1.40  -1.35    +66.9940
iter:   7 17:10:20  -823.363031  -1.32  -1.36    +68.2603
iter:   8 17:11:34  -821.439690  -1.60  -1.50    +70.7375
iter:   9 17:12:43  -818.858114  -1.63  -1.57    +72.3014
iter:  10 17:13:57  -816.152019  -2.23  -1.68    +73.0487
iter:  11 17:15:09  -815.807934  -2.42  -1.75    +76.0656
iter:  12 17:16:18  -816.856615  -2.48  -1.84    +77.7237
iter:  13 17:17:32  -817.924345  -2.40  -1.86    +77.9755
iter:  14 17:18:42  -817.083840  -2.41  -1.86    +78.8379
iter:  15 17:19:51  -817.199747  -2.74  -1.98    +78.9642
iter:  16 17:21:01  -817.410312  -2.89  -2.03    +78.9693
iter:  17 17:22:12  -817.858274  -2.91  -2.06    +79.8181
iter:  18 17:23:24  -817.529075  -3.00  -2.06    +79.5175
iter:  19 17:24:36  -817.846929  -3.00  -2.19    +79.2380
iter:  20 17:25:45  -818.073397  -3.03  -2.22    +79.1818
iter:  21 17:26:55  -818.074081  -3.13  -2.28    +79.1406
iter:  22 17:28:08  -818.272627  -3.27  -2.34    +79.2807
iter:  23 17:29:17  -818.459166  -3.29  -2.40    +79.4284
iter:  24 17:30:27  -818.582665  -3.51  -2.43    +79.3655
iter:  25 17:31:43  -818.804637  -3.47  -2.47    +79.4417
iter:  26 17:32:52  -819.050659  -3.29  -2.48    +79.4878
iter:  27 17:34:03  -819.193003  -3.49  -2.47    +79.2609
iter:  28 17:35:14  -819.500326  -3.15  -2.46    +79.1961
iter:  29 17:36:25  -819.643851  -3.47  -2.37    +79.6113
iter:  30 17:37:37  -819.956458  -3.24  -2.32    +80.3935
iter:  31 17:38:47  -819.625378  -3.36  -2.25    +80.0009
iter:  32 17:40:00  -819.502691  -3.56  -2.40    +80.5192
iter:  33 17:41:11  -819.459737  -3.78  -2.45    +80.2616
iter:  34 17:42:25  -819.379548  -3.69  -2.48    +80.2080
iter:  35 17:43:36  -819.440595c -3.30  -2.55    +80.0742
iter:  36 17:44:45  -819.316641  -3.90  -2.50    +79.6851
iter:  37 17:45:55  -819.408089  -3.73  -2.69    +79.2060
iter:  38 17:47:05  -819.354425c -4.08  -2.65    +78.9869
iter:  39 17:48:14  -819.382871c -3.74  -2.75    +78.5060
iter:  40 17:49:23  -819.361250c -4.27  -2.83    +78.5217
iter:  41 17:50:33  -819.385166c -4.21  -2.90    +78.4321
iter:  42 17:51:44  -819.385907c -4.28  -2.89    +78.4644
iter:  43 17:52:55  -819.381318c -4.61  -2.90    +78.3833
iter:  44 17:54:08  -819.401253c -4.50  -3.00    +78.3187
iter:  45 17:55:23  -819.393548c -4.80  -2.99    +78.3069
iter:  46 17:56:17  -819.398371c -4.86  -3.08    +78.2672
iter:  47 17:57:14  -819.400021c -5.21  -3.12    +78.2811
iter:  48 17:58:08  -819.410601c -4.97  -3.16    +78.3461
iter:  49 17:59:03  -819.409115c -5.33  -3.18    +78.3553
iter:  50 17:59:58  -819.419367c -5.00  -3.23    +78.4299
iter:  51 18:00:52  -819.424084c -4.96  -3.29    +78.4487
iter:  52 18:01:46  -819.428616c -5.00  -3.23    +78.4534
iter:  53 18:02:40  -819.429259c -5.25  -3.32    +78.4360
iter:  54 18:03:36  -819.439928c -5.05  -3.42    +78.5596
iter:  55 18:04:32  -819.430138c -5.38  -3.45    +78.4545
iter:  56 18:05:26  -819.410512c -4.54  -3.46    +78.2231
iter:  57 18:06:22  -819.408898c -5.23  -3.40    +78.2091
iter:  58 18:07:16  -819.415846c -5.31  -3.41    +78.3107
iter:  59 18:08:10  -819.408919c -5.54  -3.52    +78.2503
iter:  60 18:09:06  -819.422549c -5.06  -3.55    +78.3876
iter:  61 18:10:00  -819.412347c -5.38  -3.60    +78.2965
iter:  62 18:10:55  -819.404259c -5.07  -3.59    +78.1722
iter:  63 18:11:51  -819.408320c -5.68  -3.58    +78.1979
iter:  64 18:12:47  -819.410703c -5.63  -3.67    +78.2228
iter:  65 18:13:42  -819.417085c -5.29  -3.59    +78.2906
iter:  66 18:14:37  -819.413876c -5.73  -3.78    +78.2916
iter:  67 18:15:32  -819.426657c -5.04  -3.87    +78.3605
iter:  68 18:16:27  -819.424729c -6.10  -3.86    +78.3942
iter:  69 18:17:23  -819.432791c -5.40  -3.89    +78.5014
iter:  70 18:18:18  -819.410655c -4.47  -3.67    +78.1348
iter:  71 18:19:14  -819.385345c -3.76  -3.59    +77.5043
iter:  72 18:20:08  -819.386541c -4.03  -3.08    +77.2359
iter:  73 18:21:03  -819.395123c -4.48  -2.92    +77.1964
iter:  74 18:21:59  -819.393304c -4.53  -2.87    +77.2132
iter:  75 18:22:54  -819.392623c -5.45  -2.83    +77.2741
iter:  76 18:23:51  -819.387129c -5.08  -2.86    +77.3228
iter:  77 18:24:46  -819.344015c -4.59  -2.83    +77.3238
iter:  78 18:25:40  -819.558864  -3.35  -2.85    +77.4588
iter:  79 18:26:36  -819.336059  -3.55  -2.53    +77.3626
iter:  80 18:27:33  -819.423212  -3.60  -2.85    +77.5187
iter:  81 18:28:27  -819.328934c -4.23  -2.77    +77.5306
iter:  82 18:29:23  -819.381414c -4.23  -3.29    +77.7018
iter:  83 18:30:21  -819.465219  -3.89  -3.24    +77.9684
iter:  84 18:31:17  -819.505104  -4.49  -3.06    +77.9977
iter:  85 18:32:13  -819.492557c -5.29  -2.98    +77.9428
iter:  86 18:33:09  -819.566482c -4.41  -2.99    +78.0986
iter:  87 18:34:05  -819.443285  -4.27  -2.88    +77.8951
iter:  88 18:35:01  -819.422433  -4.60  -3.08    +77.9134
iter:  89 18:35:58  -819.431278c -4.65  -3.23    +78.0401
iter:  90 18:36:54  -819.478321c -4.22  -3.23    +78.1215
iter:  91 18:37:50  -819.439268c -4.70  -2.97    +78.1147
iter:  92 18:38:45  -819.447339c -4.63  -3.33    +78.1437
iter:  93 18:39:42  -819.459070c -4.45  -3.21    +78.2293
iter:  94 18:40:38  -819.451559c -4.93  -3.21    +78.2920
iter:  95 18:41:35  -819.464335c -4.85  -3.51    +78.4423
iter:  96 18:42:30  -819.471059c -5.34  -3.45    +78.4826
iter:  97 18:43:26  -819.460704c -5.29  -3.40    +78.4261
iter:  98 18:44:24  -819.469160c -5.54  -3.38    +78.4858
iter:  99 18:45:18  -819.483777c -4.91  -3.37    +78.5935
iter: 100 18:46:16  -819.493189c -5.16  -3.36    +78.6533
iter: 101 18:47:13  -819.499248c -5.09  -3.30    +78.6866
iter: 102 18:48:12  -819.505920c -5.28  -3.27    +78.7330
iter: 103 18:49:09  -819.515961c -4.91  -3.25    +78.7948
iter: 104 18:50:03  -819.509612c -4.82  -3.16    +78.8544
iter: 105 18:50:59  -819.517818c -4.63  -3.26    +78.8692
iter: 106 18:51:56  -819.523111c -4.61  -3.15    +78.9238
iter: 107 18:52:52  -819.514341c -5.08  -3.15    +78.9724
iter: 108 18:53:54  -819.518416c -5.37  -3.36    +79.0241
iter: 109 18:54:51  -819.529243c -5.09  -3.34    +79.0875
iter: 110 18:55:47  -819.525003c -5.27  -3.21    +79.0565
iter: 111 18:56:44  -819.530455c -5.02  -3.24    +79.1309
iter: 112 18:57:41  -819.533590c -5.05  -3.20    +79.1541
iter: 113 18:58:41  -819.527287c -4.59  -3.19    +79.1846
iter: 114 18:59:39  -819.520084c -4.83  -3.24    +79.1949
iter: 115 19:00:38  -819.522165c -5.28  -3.55    +79.1353
iter: 116 19:01:35  -819.521033c -5.74  -3.55    +79.1135
iter: 117 19:02:35  -819.522139c -5.66  -3.70    +79.0641
iter: 118 19:03:32  -819.522999c -5.79  -3.64    +79.0627
iter: 119 19:04:33  -819.522368c -6.16  -3.69    +79.0572
iter: 120 19:05:31  -819.522129c -5.94  -3.84    +79.0344
iter: 121 19:06:29  -819.522471c -6.18  -3.76    +79.0266
iter: 122 19:07:27  -819.522492c -6.31  -3.91    +79.0112
iter: 123 19:08:23  -819.522381c -6.40  -3.98    +78.9990
iter: 124 19:09:21  -819.522805c -6.42  -4.03c   +78.9886
iter: 125 19:10:20  -819.523042c -6.67  -4.02c   +78.9800
iter: 126 19:11:16  -819.523003c -6.50  -4.09c   +78.9685
iter: 127 19:12:17  -819.523162c -6.76  -4.11c   +78.9573
iter: 128 19:13:16  -819.523415c -6.71  -4.14c   +78.9465
iter: 129 19:14:16  -819.523426c -6.68  -4.17c   +78.9327
iter: 130 19:15:14  -819.523778c -6.70  -4.17c   +78.9213
iter: 131 19:16:13  -819.524031c -6.82  -4.17c   +78.9139
iter: 132 19:17:12  -819.523984c -7.05  -4.14c   +78.9111
iter: 133 19:18:10  -819.524458c -6.89  -4.15c   +78.9021
iter: 134 19:19:10  -819.524083c -7.07  -4.09c   +78.9004
iter: 135 19:20:09  -819.524128c -6.79  -4.09c   +78.8904
iter: 136 19:21:09  -819.524332c -6.75  -4.04c   +78.8859
iter: 137 19:22:10  -819.524577c -6.81  -4.08c   +78.8789
iter: 138 19:23:09  -819.524976c -6.44  -3.99    +78.8781
iter: 139 19:24:06  -819.524806c -6.57  -3.98    +78.8837
iter: 140 19:25:07  -819.524912c -6.58  -4.04c   +78.8781
iter: 141 19:26:06  -819.524693c -6.35  -4.19c   +78.8758
iter: 142 19:27:04  -819.524895c -6.83  -4.10c   +78.8738
iter: 143 19:28:05  -819.524971c -7.16  -4.40c   +78.8705
iter: 144 19:29:06  -819.525070c -7.35  -4.48c   +78.8685
iter: 145 19:30:04  -819.525049c -7.37  -4.50c   +78.8660
iter: 146 19:31:03  -819.525102c -7.42c -4.49c   +78.8642

Converged after 146 iterations.

Dipole moment: (-0.470742, -0.140051, 0.276775) |e|*Ang

Total magnetic moment: (0.000000, 0.000000, 78.864226)
Local magnetic moments:
   0 Fe ( 0.000000,  0.000000,  2.540683)
   1 Cr ( 0.000000,  0.000000,  2.374485)
   2 Ni ( 0.000000,  0.000000,  0.043969)
   3 Cr ( 0.000000,  0.000000, -2.528087)
   4 Al ( 0.000000,  0.000000, -0.010602)
   5 Fe ( 0.000000,  0.000000,  2.467753)
   6 Ni ( 0.000000,  0.000000,  0.232024)
   7 Al ( 0.000000,  0.000000, -0.014063)
   8 Al ( 0.000000,  0.000000, -0.019695)
   9 Co ( 0.000000,  0.000000,  1.564879)
  10 Ni ( 0.000000,  0.000000,  0.262896)
  11 Co ( 0.000000,  0.000000,  1.368612)
  12 Ni ( 0.000000,  0.000000,  0.350130)
  13 Cr ( 0.000000,  0.000000,  1.870563)
  14 Fe ( 0.000000,  0.000000,  2.138918)
  15 Cr ( 0.000000,  0.000000, -2.318310)
  16 Co ( 0.000000,  0.000000,  1.276883)
  17 Cr ( 0.000000,  0.000000, -1.626889)
  18 Co ( 0.000000,  0.000000,  1.357195)
  19 Fe ( 0.000000,  0.000000,  2.425490)
  20 Cr ( 0.000000,  0.000000, -2.518607)
  21 Fe ( 0.000000,  0.000000,  2.647214)
  22 Co ( 0.000000,  0.000000,  1.406280)
  23 Al ( 0.000000,  0.000000, -0.035292)
  24 Ni ( 0.000000,  0.000000,  0.268199)
  25 Cr ( 0.000000,  0.000000, -2.413700)
  26 Cr ( 0.000000,  0.000000,  1.631978)
  27 Al ( 0.000000,  0.000000, -0.012544)
  28 Cr ( 0.000000,  0.000000, -1.868139)
  29 Cr ( 0.000000,  0.000000, -2.431227)
  30 Fe ( 0.000000,  0.000000,  2.191718)
  31 Fe ( 0.000000,  0.000000,  1.954707)
  32 Ni ( 0.000000,  0.000000,  0.392252)
  33 Cr ( 0.000000,  0.000000,  2.019016)
  34 Co ( 0.000000,  0.000000,  1.271162)
  35 Ni ( 0.000000,  0.000000,  0.474440)
  36 Ni ( 0.000000,  0.000000,  0.235927)
  37 Co ( 0.000000,  0.000000,  1.790280)
  38 Co ( 0.000000,  0.000000,  1.489203)
  39 Cr ( 0.000000,  0.000000, -2.458590)
  40 Fe ( 0.000000,  0.000000,  2.553698)
  41 Al ( 0.000000,  0.000000, -0.038251)
  42 Fe ( 0.000000,  0.000000,  2.572829)
  43 Ni ( 0.000000,  0.000000,  0.441296)
  44 Cr ( 0.000000,  0.000000, -2.446276)
  45 Co ( 0.000000,  0.000000,  1.698889)
  46 Co ( 0.000000,  0.000000,  1.631617)
  47 Ni ( 0.000000,  0.000000,  0.565972)
  48 Ni ( 0.000000,  0.000000,  0.386769)
  49 Cr ( 0.000000,  0.000000,  2.298969)
  50 Co ( 0.000000,  0.000000,  1.162359)
  51 Al ( 0.000000,  0.000000, -0.038334)
  52 Al ( 0.000000,  0.000000, -0.031910)
  53 Fe ( 0.000000,  0.000000,  2.204905)
  54 Fe ( 0.000000,  0.000000,  2.604650)
  55 Fe ( 0.000000,  0.000000,  2.369488)
  56 Ni ( 0.000000,  0.000000,  0.645362)
  57 Ni ( 0.000000,  0.000000,  0.147714)
  58 Co ( 0.000000,  0.000000,  1.557752)
  59 Co ( 0.000000,  0.000000,  1.449088)
  60 Fe ( 0.000000,  0.000000,  2.194792)
  61 Co ( 0.000000,  0.000000,  1.597670)
  62 Al ( 0.000000,  0.000000, -0.018277)
  63 Ni ( 0.000000,  0.000000,  0.102763)
  64 Al ( 0.000000,  0.000000, -0.009411)
  65 Cr ( 0.000000,  0.000000, -2.380288)
  66 Al ( 0.000000,  0.000000, -0.028936)
  67 Ni ( 0.000000,  0.000000,  0.114787)
  68 Al ( 0.000000,  0.000000, -0.048265)
  69 Fe ( 0.000000,  0.000000,  2.363664)
  70 Cr ( 0.000000,  0.000000, -2.059963)
  71 Cr ( 0.000000,  0.000000,  1.867895)
  72 Fe ( 0.000000,  0.000000,  2.826641)
  73 Co ( 0.000000,  0.000000,  1.723725)
  74 Co ( 0.000000,  0.000000,  1.258684)
  75 Co ( 0.000000,  0.000000,  1.762302)
  76 Fe ( 0.000000,  0.000000,  2.594937)
  77 Fe ( 0.000000,  0.000000,  2.516633)
  78 Cr ( 0.000000,  0.000000, -2.198692)
  79 Fe ( 0.000000,  0.000000,  2.495046)
  80 Co ( 0.000000,  0.000000,  1.611064)
  81 Al ( 0.000000,  0.000000, -0.017485)
  82 Ni ( 0.000000,  0.000000,  0.449501)
  83 Ni ( 0.000000,  0.000000,  0.570719)
  84 Ni ( 0.000000,  0.000000,  0.478187)
  85 Fe ( 0.000000,  0.000000,  2.596575)
  86 Co ( 0.000000,  0.000000,  1.501990)
  87 Cr ( 0.000000,  0.000000, -2.423365)
  88 Ni ( 0.000000,  0.000000,  0.528553)
  89 Fe ( 0.000000,  0.000000,  2.522258)
  90 Ni ( 0.000000,  0.000000,  0.234666)
  91 Co ( 0.000000,  0.000000,  1.238412)
  92 Al ( 0.000000,  0.000000, -0.043625)
  93 Cr ( 0.000000,  0.000000,  2.106322)
  94 Fe ( 0.000000,  0.000000,  2.393148)
  95 Cr ( 0.000000,  0.000000, -2.159062)
  96 Ni ( 0.000000,  0.000000,  0.340419)
  97 Fe ( 0.000000,  0.000000,  2.751482)
  98 Co ( 0.000000,  0.000000,  0.922817)
  99 Ni ( 0.000000,  0.000000,  0.439710)
 100 Cr ( 0.000000,  0.000000,  1.939171)
 101 Al ( 0.000000,  0.000000, -0.022576)
 102 Cr ( 0.000000,  0.000000,  1.442548)
 103 Co ( 0.000000,  0.000000,  1.070754)
 104 Al ( 0.000000,  0.000000, -0.028560)
 105 Ni ( 0.000000,  0.000000,  0.365154)
 106 Co ( 0.000000,  0.000000,  1.407013)
 107 Fe ( 0.000000,  0.000000,  2.654204)

Energy contributions relative to reference atoms: (reference = -3382523.201499)

Kinetic:        -39.316824
Potential:      -22.328724
External:        +0.000000
XC:            -787.800957
Entropy (-ST):   -4.282621
Local:          +32.062713
--------------------------
Free energy:   -821.666413
Extrapolated:  -819.525102

Spin contamination: 39.040282 electrons
Showing only first 2 kpts
                      Up                     Down
 Kpt  Band  Eigenvalues  Occupancy  Eigenvalues  Occupancy
  0   470      7.77538    0.99932      8.92781    0.01423
  0   471      7.79255    0.99919      8.93567    0.01317
  0   472      7.79587    0.99916      8.94321    0.01222
  0   473      7.81437    0.99899      8.94966    0.01147

  1   470      7.78164    0.99927      8.92084    0.01524
  1   471      7.79880    0.99913      8.93936    0.01269
  1   472      7.81133    0.99902      8.94360    0.01217
  1   473      7.82272    0.99890      8.95947    0.01041


Fermi level: 8.50398

No gap

Forces in eV/Ang:
  0 Fe   -0.39085    0.13742   -0.45236
  1 Cr   -0.22149   -0.02732    0.17630
  2 Ni    0.00835   -0.09612    0.01656
  3 Cr   -0.44942    0.62022    0.04622
  4 Al   -0.10447    0.22936    0.55151
  5 Fe   -0.15749    0.40019    0.05174
  6 Ni   -0.05942    0.22065    0.02068
  7 Al   -0.53369    0.96306    0.71904
  8 Al    1.02085   -0.69485    0.47238
  9 Co    0.35633    0.43755    0.21638
 10 Ni   -0.00649    0.21180   -0.07609
 11 Co    0.11193    0.22470    0.16468
 12 Ni    0.08006   -0.18956   -0.13580
 13 Cr   -0.16070   -0.15656    0.05760
 14 Fe    0.34377   -0.00296   -0.30698
 15 Cr   -0.51132   -0.46366   -0.44823
 16 Co   -0.18939    0.30262    0.01654
 17 Cr    0.34061   -0.10423   -0.63857
 18 Co    0.16498   -0.03194    0.13434
 19 Fe   -0.41526   -0.21989    0.52602
 20 Cr    0.23289    0.51335    0.40916
 21 Fe    0.08308   -0.23036    0.09942
 22 Co   -0.26389   -0.17458    0.16910
 23 Al    0.33432    0.52326    0.08727
 24 Ni   -0.12842    0.10946   -0.06597
 25 Cr   -0.54999   -0.14109    0.44607
 26 Cr    0.21237    0.06279   -0.36965
 27 Al   -1.02135   -0.18616   -0.16027
 28 Cr    0.59245   -0.52401   -0.38251
 29 Cr    0.45953    0.30637    0.73369
 30 Fe   -0.19694   -0.10181   -0.35191
 31 Fe   -0.02029   -0.26642    0.15814
 32 Ni   -0.04580    0.18306   -0.17567
 33 Cr    0.19484   -0.03201   -0.10324
 34 Co    0.16144    0.22338   -0.01919
 35 Ni    0.08526   -0.20541    0.02800
 36 Ni   -0.02470   -0.05122    0.17900
 37 Co    0.00592    0.11044    0.04551
 38 Co   -0.19892   -0.16427    0.09963
 39 Cr   -0.93907   -0.20033   -0.47738
 40 Fe    0.01474   -0.32954   -0.23274
 41 Al   -0.03950   -0.18728    0.68790
 42 Fe    0.26813   -0.11323    0.02660
 43 Ni    0.05163    0.11408   -0.10564
 44 Cr    0.07215    0.03309    0.08444
 45 Co   -0.04106   -0.02709    0.00421
 46 Co    0.05977    0.17334    0.02125
 47 Ni   -0.09539   -0.00204    0.04885
 48 Ni   -0.04975   -0.06276    0.08677
 49 Cr   -0.49756   -0.65916    0.42997
 50 Co   -0.04823   -0.24914    0.10019
 51 Al   -0.95209   -0.79320   -0.02674
 52 Al    0.67448   -0.01551   -0.13785
 53 Fe    0.05015   -0.31542    0.00663
 54 Fe    0.37376    0.14269   -0.02270
 55 Fe    0.11804   -0.43067   -0.38010
 56 Ni    0.11459   -0.15344   -0.06157
 57 Ni    0.10401    0.08039   -0.17180
 58 Co    0.10033   -0.19125   -0.27275
 59 Co   -0.16568   -0.33928   -0.02734
 60 Fe   -0.26590    0.27282    0.00632
 61 Co   -0.06906    0.25975    0.00530
 62 Al   -0.95781    0.87115    0.63135
 63 Ni   -0.13861    0.08686    0.09373
 64 Al    0.55638    0.45893   -0.52930
 65 Cr   -0.06127    1.11860    0.47074
 66 Al   -0.05316   -0.23518    0.39092
 67 Ni    0.00914   -0.23706    0.01895
 68 Al    0.22459   -0.25873   -0.51280
 69 Fe   -0.00783    0.59891    0.44834
 70 Cr    0.79694    0.41318   -0.34001
 71 Cr    0.45005    0.32852   -0.04072
 72 Fe    0.15803    0.28775   -0.10057
 73 Co    0.06855    0.03843   -0.05287
 74 Co   -0.11440    0.01174   -0.15180
 75 Co   -0.28529    0.14471    0.15757
 76 Fe   -0.36146   -0.25019   -0.05678
 77 Fe   -0.44955    0.38740   -0.31968
 78 Cr    0.16010   -0.55717   -0.85644
 79 Fe    0.02799   -0.20106   -0.17625
 80 Co    0.00387   -0.21521   -0.26973
 81 Al    0.89458   -0.29302   -0.58251
 82 Ni    0.19338    0.09729   -0.04822
 83 Ni   -0.00204   -0.01917   -0.02820
 84 Ni   -0.01385   -0.26911   -0.02103
 85 Fe    0.28269    0.16125   -0.31155
 86 Co   -0.06821   -0.17175   -0.02975
 87 Cr   -0.03395   -0.39734    0.42400
 88 Ni   -0.00971    0.05151    0.12750
 89 Fe   -0.07111   -0.61507    0.21255
 90 Ni   -0.10772    0.02716   -0.10261
 91 Co   -0.32763   -0.05154    0.13540
 92 Al   -0.18606    0.17363   -0.69588
 93 Cr   -0.16359    0.04667    0.08642
 94 Fe    0.83548   -0.56350   -0.04017
 95 Cr    0.87593   -0.28418    0.38398
 96 Ni   -0.14003    0.13789    0.26969
 97 Fe   -0.09835   -0.20315   -0.22707
 98 Co   -0.14308   -0.16843    0.09654
 99 Ni   -0.13982    0.08625    0.02118
100 Cr   -0.01263    0.09893    0.13870
101 Al   -0.21602   -0.26593   -1.02376
102 Cr    0.05980    0.02217    0.22592
103 Co    0.34451    0.26522    0.16089
104 Al   -0.04487    0.27272    0.52343
105 Ni    0.01096   -0.11069    0.00011
106 Co    0.16728    0.32693    0.02136
107 Fe    0.11292    0.14212   -0.05479

Timing:                              incl.     excl.
-----------------------------------------------------------
Forces:                             17.019    17.019   0.2% |
Hamiltonian:                         1.459     0.092   0.0% |
 Atomic:                             0.193     0.097   0.0% |
  XC Correction:                     0.096     0.096   0.0% |
 Calculate atomic Hamiltonians:      1.000     1.000   0.0% |
 Communicate:                        0.002     0.002   0.0% |
 Initialize Hamiltonian:             0.000     0.000   0.0% |
 Poisson:                            0.001     0.001   0.0% |
 XC 3D grid:                         0.170     0.170   0.0% |
LCAO initialization:                69.172     1.159   0.0% |
 LCAO eigensolver:                   7.832     0.019   0.0% |
  Calculate projections:             0.121     0.121   0.0% |
  DenseAtomicCorrection:             0.130     0.130   0.0% |
  Distribute overlap matrix:         1.159     1.159   0.0% |
  Orbital Layouts:                   3.492     3.492   0.0% |
  Potential matrix:                  1.735     1.735   0.0% |
  Sum over cells:                    1.177     1.177   0.0% |
 LCAO to grid:                      57.881    57.881   0.6% |
 Set positions (LCAO WFS):           2.300     1.513   0.0% |
  Basic WFS set positions:           0.004     0.004   0.0% |
  Basis functions set positions:     0.001     0.001   0.0% |
  P tci:                             0.209     0.209   0.0% |
  ST tci:                            0.204     0.204   0.0% |
  mktci:                             0.370     0.370   0.0% |
PWDescriptor:                        0.156     0.156   0.0% |
SCF-cycle:                        8947.069   179.369   2.0% ||
 Davidson:                        8380.320  2171.875  24.0% |---------|
  Apply H:                          75.835    70.185   0.8% |
   HMM T:                            5.650     5.650   0.1% |
  Subspace diag:                   710.589     0.118   0.0% |
   calc_h_matrix:                  298.133   199.949   2.2% ||
    Apply H:                        98.184    94.798   1.0% |
     HMM T:                          3.386     3.386   0.0% |
   diagonalize:                    100.585   100.585   1.1% |
   rotate_psi:                     311.753   311.753   3.4% ||
  calc. matrices:                 1557.982  1398.916  15.5% |-----|
   Apply H:                        159.066   145.670   1.6% ||
    HMM T:                          13.396    13.396   0.1% |
  diagonalize:                    3209.355  3209.355  35.5% |-------------|
  rotate_psi:                      654.683   654.683   7.2% |--|
 Density:                          193.654     0.006   0.0% |
  Atomic density matrices:           2.304     2.304   0.0% |
  Mix:                             149.604   149.604   1.7% ||
  Multipole moments:                 0.060     0.060   0.0% |
  Pseudo density:                   41.680    41.668   0.5% |
   Symmetrize density:               0.012     0.012   0.0% |
 Hamiltonian:                      186.994     1.849   0.0% |
  Atomic:                           29.252    17.996   0.2% |
   XC Correction:                   11.256    11.256   0.1% |
  Calculate atomic Hamiltonians:   133.571   133.571   1.5% ||
  Communicate:                       2.294     2.294   0.0% |
  Poisson:                           0.089     0.089   0.0% |
  XC 3D grid:                       19.938    19.938   0.2% |
 Orthonormalize:                     6.733     0.001   0.0% |
  calc_s_matrix:                     1.037     1.037   0.0% |
  inverse-cholesky:                  0.517     0.517   0.0% |
  projections:                       3.944     3.944   0.0% |
  rotate_psi_s:                      1.234     1.234   0.0% |
Set symmetry:                        0.001     0.001   0.0% |
Other:                               4.921     4.921   0.1% |
-----------------------------------------------------------
Total:                                      9039.799 100.0%

Date: Sat Apr  8 19:31:21 2023
