
  ___ ___ ___ _ _ _  
 |   |   |_  | | | | 
 | | | | | . | | | | 
 |__ |  _|___|_____|  22.8.0
 |___|_|             

User:   c.zeng@d0148
Date:   Sat Apr  8 11:13:27 2023
Arch:   x86_64
Pid:    84349
CWD:    /home/c.zeng/projects/hea-corrosion/hea-mlp/data-curation/volume/dft-jobs/57
Python: 3.8.1
gpaw:   /home/c.zeng/usr/installs/gpaw/source/gpaw-22.8.0/gpaw
_gpaw:  /home/c.zeng/usr/installs/gpaw/source/gpaw-22.8.0/
        _gpaw.cpython-38-x86_64-linux-gnu.so
ase:    /home/c.zeng/.local/lib/python3.8/site-packages/ase-3.22.1-py3.8.egg/ase (version 3.22.1)
numpy:  /shared/centos7/python/3.8.1/lib/python3.8/site-packages/numpy (version 1.17.4)
scipy:  /shared/centos7/python/3.8.1/lib/python3.8/site-packages/scipy (version 1.4.1)
libxc:  4.2.3
units:  Angstrom and eV
cores: 64
OpenMP: False
OMP_NUM_THREADS: 1

Input parameters:
  convergence: {energy: 0.0001}
  kpts: [2 2 2]
  maxiter: 666
  mode: {ecut: 350.0,
         name: pw}
  occupations: {fixmagmom: False,
                name: fermi-dirac,
                width: 0.1}
  spinpol: True
  xc: PBE

System changes: positions, numbers, cell, pbc, initial_charges, initial_magmoms 

Initialize ...

species:
  Cr:
    name: Chromium
    id: 33f258bda2ca9f93018e70263a35547b
    Z: 24.0
    valence: 6
    core: 18
    charge: 0.0
    file: /home/c.zeng/usr/data/gpaw-setups-0.9.20000/Cr.PBE.gz
    compensation charges: {type: gauss,
                           rc: 0.35,
                           lmax: 2}
    cutoffs: {filter: 2.14,
              core: 3.04}
    valence states:
      #              energy  rcut
      - 4s(1.00)    -4.007   1.164
      - 4p(0.00)    -0.989   1.217
      - 3d(5.00)    -2.913   1.111
      -  s          23.205   1.164
      -  p          26.223   1.217
      -  d          24.299   1.111
  
    # Using partial waves for Cr as LCAO basis

  Al:
    name: Aluminium
    id: 0292cae29f5d6237e50f6abdd43a7bdd
    Z: 13.0
    valence: 3
    core: 10
    charge: 0.0
    file: /home/c.zeng/usr/data/gpaw-setups-0.9.20000/Al.PBE.gz
    compensation charges: {type: gauss,
                           rc: 0.34,
                           lmax: 2}
    cutoffs: {filter: 1.91,
              core: 2.36}
    valence states:
      #              energy  rcut
      - 3s(2.00)    -7.753   1.085
      - 3p(1.00)    -2.712   1.085
      -  s          19.459   1.085
      -  p          24.499   1.085
      -  d           0.000   1.085
  
    # Using partial waves for Al as LCAO basis

  Co:
    name: Cobalt
    id: 339d20d5b0b93d2de9531a1bee871d91
    Z: 27.0
    valence: 9
    core: 18
    charge: 0.0
    file: /home/c.zeng/usr/data/gpaw-setups-0.9.20000/Co.PBE.gz
    compensation charges: {type: gauss,
                           rc: 0.32,
                           lmax: 2}
    cutoffs: {filter: 1.87,
              core: 2.55}
    valence states:
      #              energy  rcut
      - 4s(2.00)    -5.469   1.005
      - 4p(0.00)    -1.277   1.058
      - 3d(7.00)    -8.205   1.005
      -  s          21.742   1.005
      -  p          25.934   1.058
      -  d          19.007   1.005
  
    # Using partial waves for Co as LCAO basis

  Fe:
    name: Iron
    id: 37abbd8d6c3c35915a9b583b742da910
    Z: 26.0
    valence: 8
    core: 18
    charge: 0.0
    file: /home/c.zeng/usr/data/gpaw-setups-0.9.20000/Fe.PBE.gz
    compensation charges: {type: gauss,
                           rc: 0.33,
                           lmax: 2}
    cutoffs: {filter: 2.06,
              core: 2.67}
    valence states:
      #              energy  rcut
      - 4s(2.00)    -5.291   1.164
      - 4p(0.00)    -1.326   1.058
      - 3d(6.00)    -7.505   1.058
      -  s          21.920   1.164
      -  p          25.885   1.058
      -  d          19.706   1.058
  
    # Using partial waves for Fe as LCAO basis

  Ni:
    name: Nickel
    id: 0d9f38a9d6e76a2886f07bb4381f212b
    Z: 28.0
    valence: 16
    core: 12
    charge: 0.0
    file: /home/c.zeng/usr/data/gpaw-setups-0.9.20000/Ni.PBE.gz
    compensation charges: {type: gauss,
                           rc: 0.36,
                           lmax: 2}
    cutoffs: {filter: 2.14,
              core: 1.98}
    valence states:
      #              energy  rcut
      - 4s(2.00)    -5.642   1.164
      - 3p(6.00)   -71.394   1.207
      - 4p(0.00)    -1.226   1.207
      - 3d(8.00)    -8.875   1.138
      -  s          21.570   1.164
      -  d          18.337   1.138
  
    # Using partial waves for Ni as LCAO basis

Reference energy: -3699400.456887  # eV

Spin-polarized calculation.
Magnetic moment: 143.500000

Convergence criteria:
 Maximum [total energy] change in last 3 cyles: 0.0001 eV / electron
 Maximum integral of absolute [dens]ity change: 0.0001 electrons / valence electron
 Maximum integral of absolute [eigenst]ate change: 4e-08 eV^2 / valence electron
 Maximum number of scf [iter]ations: 666
 (Square brackets indicate name in SCF output, whereas a 'c' in
 the SCF output indicates the quantity has converged.)

Symmetries present (total): 1

  ( 1  0  0)
  ( 0  1  0)
  ( 0  0  1)

8 k-points: 2 x 2 x 2 Monkhorst-Pack grid
4 k-points in the irreducible part of the Brillouin zone
       k-points in crystal coordinates                weights
   0:     0.25000000   -0.25000000   -0.25000000          2/8
   1:     0.25000000   -0.25000000    0.25000000          2/8
   2:     0.25000000    0.25000000   -0.25000000          2/8
   3:     0.25000000    0.25000000    0.25000000          2/8

Wave functions: Plane wave expansion
  Cutoff energy: 350.000 eV
  Number of coefficients (min, max): 18052, 18052
  Pulay-stress correction: 0.000000 eV/Ang^3 (de/decut=0.000000)
  Using FFTW library
  ScaLapack parameters: grid=1x1, blocksize=None
  Wavefunction extrapolation:
    Improved wavefunction reuse through dual PAW basis 

Occupation numbers: Fermi-Dirac:
  width: 0.1000  # eV
 

Eigensolver
   Davidson(niter=2) 

Densities:
  Coarse grid: 48*48*48 grid
  Fine grid: 96*96*96 grid
  Total Charge: 0.000000 

Density mixing:
  Method: difference
  Backend: pulay
  Linear mixing parameter: 0.05
  old densities: 5
  Damping of long wavelength oscillations: 50 

Hamiltonian:
  XC and Coulomb potentials evaluated on a 96*96*96 grid
  Using the PBE Exchange-Correlation functional
  External potential:
    NoExternalPotential
 

XC parameters: PBE with 2 nearest neighbor stencil

Memory estimate:
  Process memory now: 170.55 MiB
  Calculator: 671.38 MiB
    Density: 5.00 MiB
      Arrays: 1.85 MiB
      Localized functions: 2.41 MiB
      Mixer: 0.74 MiB
    Hamiltonian: 1.44 MiB
      Arrays: 1.37 MiB
      XC: 0.00 MiB
      Poisson: 0.00 MiB
      vbar: 0.07 MiB
    Wavefunctions: 664.94 MiB
      Arrays psit_nG: 387.29 MiB
      Eigensolver: 270.45 MiB
      Projections: 2.57 MiB
      Projectors: 0.33 MiB
      PW-descriptor: 4.30 MiB

Total number of cores used: 64
Parallelization over k-points: 4
Domain decomposition: 4 x 2 x 2

Number of atoms: 108
Number of atomic orbitals: 1025
Number of bands in calculation: 703
Number of valence electrons: 1020
Bands to converge: occupied

... initialized

Initializing position-dependent things.

Density initialized from atomic densities
Creating initial wave functions:
  703 bands from LCAO basis set

        Cr------------------------.  
       /|  Ni                Cr   |  
      Cr|   Fe         Al         |  
     / Ni      Cr       Fe        |  
    /   CFe      Co       Cr      |  
   /o   | NiFe     CrFe    CrNi   |  
  /  NiCo  FeCo     CrNiFe        |  
 *    FeCo  CrNiNi     CoCo       |  
 |     NiCoCr  CoNi Co  AlCrFe    |  
 | Ni   FeFeCoAl CoNiNiCo  Ni     |  
 |   FeCr  NiCoCo   FeFeCr   Fe   |  
 |    CrNi  CrCoFeCr NiNiNi   Ni  |  
 |     NiNiNi  Co CrCo  CrFeCo    |  
 |      .-FeCrNi-FeCoCoFe--CrFe---.  
 |   CoFe    FeAl   CrNiNi       /   
 |    / Fe    CoCr       Co     /    
 |   /            Fe           /     
 |Al/      Cr       Co        /      
 | /                         /       
 |/            Fe           /        
 *----------------Cr-------*         

Positions:
   0 Cr     0.005316   -0.016350   10.639749    ( 0.0000,  0.0000,  0.0000)
   1 Al    10.672340    1.801276    1.786848    ( 0.0000,  0.0000,  0.0000)
   2 Cr     1.795727   10.625972    1.782259    ( 0.0000,  0.0000,  0.0000)
   3 Co     1.780787    1.796175   10.644605    ( 0.0000,  0.0000,  2.1000)
   4 Fe     3.523539   -0.014558    0.017268    ( 0.0000,  0.0000,  2.0000)
   5 Cr     3.522568    1.781672    1.746648    ( 0.0000,  0.0000,  0.0000)
   6 Ni     5.320952   10.642342    1.763136    ( 0.0000,  0.0000,  1.5000)
   7 Fe     5.342082    1.828767    0.007462    ( 0.0000,  0.0000,  2.0000)
   8 Cr     7.144895    0.019195    0.012034    ( 0.0000,  0.0000,  0.0000)
   9 Co     7.143497    1.798064    1.764939    ( 0.0000,  0.0000,  2.1000)
  10 Ni     8.891362   10.651627    1.788353    ( 0.0000,  0.0000,  1.5000)
  11 Fe     8.888779    1.804777   10.642609    ( 0.0000,  0.0000,  2.0000)
  12 Co     0.008694    3.581529   10.650250    ( 0.0000,  0.0000,  2.1000)
  13 Co     0.018979    5.332745    1.789751    ( 0.0000,  0.0000,  2.1000)
  14 Fe     1.778129    3.600941    1.760019    ( 0.0000,  0.0000,  2.0000)
  15 Fe     1.790423    5.343267   -0.017766    ( 0.0000,  0.0000,  2.0000)
  16 Fe     3.542802    3.589864   -0.015614    ( 0.0000,  0.0000,  2.0000)
  17 Fe     3.526837    5.358538    1.765793    ( 0.0000,  0.0000,  2.0000)
  18 Cr     5.336650    3.606501    1.755815    ( 0.0000,  0.0000,  0.0000)
  19 Co     5.300399    5.323642   -0.012797    ( 0.0000,  0.0000,  2.1000)
  20 Fe     7.122858    3.584816   10.659524    ( 0.0000,  0.0000,  2.0000)
  21 Ni     7.120500    5.315168    1.805502    ( 0.0000,  0.0000,  1.5000)
  22 Co     8.892034    3.590952    1.773146    ( 0.0000,  0.0000,  2.1000)
  23 Cr     8.925340    5.301487   -0.003100    ( 0.0000,  0.0000,  0.0000)
  24 Cr     0.023055    7.096680   -0.007939    ( 0.0000,  0.0000,  0.0000)
  25 Ni     0.019142    8.871245    1.787510    ( 0.0000,  0.0000,  1.5000)
  26 Fe     1.784372    7.104567    1.776443    ( 0.0000,  0.0000,  2.0000)
  27 Ni     1.779944    8.867628   10.659406    ( 0.0000,  0.0000,  1.5000)
  28 Co     3.547785    7.097897    0.009215    ( 0.0000,  0.0000,  2.1000)
  29 Co     3.541137    8.858109    1.788225    ( 0.0000,  0.0000,  2.1000)
  30 Co     5.295105    7.099391    1.787894    ( 0.0000,  0.0000,  2.1000)
  31 Cr     5.303685    8.873828    0.029898    ( 0.0000,  0.0000,  0.0000)
  32 Al     7.106883    7.088719   10.645159    ( 0.0000,  0.0000,  0.0000)
  33 Cr     7.111055    8.901137    1.809472    ( 0.0000,  0.0000,  0.0000)
  34 Cr     8.939384    7.093404    1.799238    ( 0.0000,  0.0000,  0.0000)
  35 Cr     8.919972    8.915853   10.664881    ( 0.0000,  0.0000,  0.0000)
  36 Fe    10.679704   10.658873    3.584517    ( 0.0000,  0.0000,  2.0000)
  37 Co    10.670921    1.796367    5.340289    ( 0.0000,  0.0000,  2.1000)
  38 Cr     1.770350   10.649001    5.343491    ( 0.0000,  0.0000,  0.0000)
  39 Fe     1.791800    1.784671    3.584891    ( 0.0000,  0.0000,  2.0000)
  40 Co     3.529718   10.626388    3.565234    ( 0.0000,  0.0000,  2.1000)
  41 Ni     3.535716    1.793465    5.367289    ( 0.0000,  0.0000,  1.5000)
  42 Ni     5.311497    0.001574    5.366254    ( 0.0000,  0.0000,  1.5000)
  43 Al     5.332627    1.768055    3.580793    ( 0.0000,  0.0000,  0.0000)
  44 Fe     7.136966   10.673941    3.563804    ( 0.0000,  0.0000,  2.0000)
  45 Co     7.136774    1.794126    5.358944    ( 0.0000,  0.0000,  2.1000)
  46 Fe     8.925938   10.673621    5.347589    ( 0.0000,  0.0000,  2.0000)
  47 Ni     8.883827    1.779111    3.582404    ( 0.0000,  0.0000,  1.5000)
  48 Fe    -0.010038    3.572341    3.580996    ( 0.0000,  0.0000,  2.0000)
  49 Fe    10.685573    5.328935    5.338550    ( 0.0000,  0.0000,  2.0000)
  50 Ni     1.784180    3.582949    5.348357    ( 0.0000,  0.0000,  1.5000)
  51 Ni     1.766326    5.339510    3.565255    ( 0.0000,  0.0000,  1.5000)
  52 Cr     3.522387    3.605007    3.574059    ( 0.0000,  0.0000,  0.0000)
  53 Co     3.543581    5.347343    5.347962    ( 0.0000,  0.0000,  2.1000)
  54 Fe     5.333950    3.591678    5.360630    ( 0.0000,  0.0000,  2.0000)
  55 Cr     5.336458    5.346308    3.560132    ( 0.0000,  0.0000,  0.0000)
  56 Co     7.143102    3.570089    3.572138    ( 0.0000,  0.0000,  2.1000)
  57 Fe     7.120265    5.347471    5.345689    ( 0.0000,  0.0000,  2.0000)
  58 Ni     8.888299    3.570665    5.342018    ( 0.0000,  0.0000,  1.5000)
  59 Fe     8.904573    5.339084    3.577453    ( 0.0000,  0.0000,  2.0000)
  60 Cr     0.020297    7.105111    3.565266    ( 0.0000,  0.0000,  0.0000)
  61 Ni     0.010839    8.875973    5.335359    ( 0.0000,  0.0000,  1.5000)
  62 Fe     1.776144    7.099124    5.335530    ( 0.0000,  0.0000,  2.0000)
  63 Ni     1.782707    8.879996    3.566664    ( 0.0000,  0.0000,  1.5000)
  64 Co     3.540379    7.112901    3.549920    ( 0.0000,  0.0000,  2.1000)
  65 Co     3.550165    8.855643    5.319490    ( 0.0000,  0.0000,  2.1000)
  66 Ni     5.302320    7.072776    5.331720    ( 0.0000,  0.0000,  1.5000)
  67 Fe     5.308712    8.888715    3.547198    ( 0.0000,  0.0000,  2.0000)
  68 Ni     7.110436    7.091110    3.542599    ( 0.0000,  0.0000,  1.5000)
  69 Al     7.111322    8.868257    5.343331    ( 0.0000,  0.0000,  0.0000)
  70 Ni     8.928819    7.090939    5.344996    ( 0.0000,  0.0000,  1.5000)
  71 Fe     8.912748    8.874735    3.555853    ( 0.0000,  0.0000,  2.0000)
  72 Cr     0.013232   10.658937    7.109743    ( 0.0000,  0.0000,  0.0000)
  73 Fe    10.669470    1.787435    8.884158    ( 0.0000,  0.0000,  2.0000)
  74 Fe     1.768674   10.665478    8.879922    ( 0.0000,  0.0000,  2.0000)
  75 Cr     1.779645    1.805428    7.118291    ( 0.0000,  0.0000,  0.0000)
  76 Cr     3.512206   10.665905    7.084504    ( 0.0000,  0.0000,  0.0000)
  77 Cr     3.526218    1.824316    8.898021    ( 0.0000,  0.0000,  0.0000)
  78 Al     5.331144    0.023495    8.896708    ( 0.0000,  0.0000,  0.0000)
  79 Co     5.335252    1.825362    7.095656    ( 0.0000,  0.0000,  2.1000)
  80 Cr     7.148524    0.023834    7.114139    ( 0.0000,  0.0000,  0.0000)
  81 Co     7.139922    1.808384    8.892706    ( 0.0000,  0.0000,  2.1000)
  82 Co     8.906836    0.013024    8.882259    ( 0.0000,  0.0000,  2.1000)
  83 Cr     8.894083    1.797691    7.127959    ( 0.0000,  0.0000,  0.0000)
  84 Ni     0.021840    3.574998    7.113777    ( 0.0000,  0.0000,  1.5000)
  85 Ni     0.023462    5.326566    8.882152    ( 0.0000,  0.0000,  1.5000)
  86 Co     1.768098    3.569908    8.891692    ( 0.0000,  0.0000,  2.1000)
  87 Co     1.775205    5.350033    7.118739    ( 0.0000,  0.0000,  2.1000)
  88 Co     3.546355    3.587879    7.119902    ( 0.0000,  0.0000,  2.1000)
  89 Co     3.540272    5.336074    8.886271    ( 0.0000,  0.0000,  2.1000)
  90 Ni     5.331998    3.563526    8.882088    ( 0.0000,  0.0000,  1.5000)
  91 Ni     5.316310    5.330738    7.117095    ( 0.0000,  0.0000,  1.5000)
  92 Ni     7.104076    3.574977    7.111546    ( 0.0000,  0.0000,  1.5000)
  93 Ni     7.108740    5.307762    8.854395    ( 0.0000,  0.0000,  1.5000)
  94 Co     8.907593    3.561296    8.890348    ( 0.0000,  0.0000,  2.1000)
  95 Cr     8.917806    5.336309    7.100224    ( 0.0000,  0.0000,  0.0000)
  96 Fe     0.016270    7.102027    7.111664    ( 0.0000,  0.0000,  2.0000)
  97 Ni     0.000822    8.895150    8.883817    ( 0.0000,  0.0000,  1.5000)
  98 Ni     1.771182    7.105090    8.888608    ( 0.0000,  0.0000,  1.5000)
  99 Fe     1.775184    8.850318    7.108494    ( 0.0000,  0.0000,  2.0000)
 100 Ni     3.530401    7.086478    7.104972    ( 0.0000,  0.0000,  1.5000)
 101 Cr     3.524841    8.851001    8.894798    ( 0.0000,  0.0000,  0.0000)
 102 Cr     5.310654    7.102827    8.871128    ( 0.0000,  0.0000,  0.0000)
 103 Cr     5.290613    8.850286    7.104876    ( 0.0000,  0.0000,  0.0000)
 104 Co     7.129016    7.083330    7.142750    ( 0.0000,  0.0000,  2.1000)
 105 Fe     7.143241    8.903186    8.854384    ( 0.0000,  0.0000,  2.0000)
 106 Cr     8.926504    7.115858    8.862313    ( 0.0000,  0.0000,  0.0000)
 107 Ni     8.932896    8.877648    7.127479    ( 0.0000,  0.0000,  1.5000)

Unit cell:
           periodic     x           y           z      points  spacing
  1. axis:    yes   10.671700    0.000000    0.000000    48     0.2223
  2. axis:    yes    0.000000   10.671700    0.000000    48     0.2223
  3. axis:    yes    0.000000    0.000000   10.671700    48     0.2223

  Lengths:  10.671700  10.671700  10.671700
  Angles:   90.000000  90.000000  90.000000

Effective grid spacing dv^(1/3) = 0.2223

     iter     time        total  log10-change:  magmom
                         energy  eigst   dens
iter:   1 11:16:19 -1058.542355                  +143.7773
iter:   2 11:17:41  -939.124666  -0.23  -1.20    +81.6440
iter:   3 11:18:59  -922.092885  -0.90  -1.22    +69.7687
iter:   4 11:20:17  -902.334766  -1.30  -1.29    +65.6133
iter:   5 11:21:38  -887.712475  -1.59  -1.32    +62.5186
iter:   6 11:22:58  -886.775232  -1.27  -1.39    +63.0152
iter:   7 11:24:19  -883.375044  -1.28  -1.48    +62.1142
iter:   8 11:25:36  -870.859951  -1.76  -1.57    +61.7827
iter:   9 11:26:55  -869.164229  -2.18  -1.76    +63.0247
iter:  10 11:28:15  -869.256207  -2.63  -1.85    +64.1278
iter:  11 11:29:36  -869.857060  -2.59  -1.86    +65.4252
iter:  12 11:30:56  -871.053791  -2.46  -1.91    +66.6126
iter:  13 11:32:16  -870.997580  -2.48  -1.94    +67.1114
iter:  14 11:33:36  -870.844403  -2.56  -2.02    +67.9701
iter:  15 11:34:56  -870.922329  -2.81  -2.05    +68.6201
iter:  16 11:36:16  -870.462019  -2.98  -2.09    +68.8762
iter:  17 11:37:32  -870.538438  -3.23  -2.19    +69.4133
iter:  18 11:38:55  -870.391061  -3.28  -2.20    +69.7530
iter:  19 11:40:19  -870.644012  -3.13  -2.31    +70.1024
iter:  20 11:41:41  -870.426537  -3.23  -2.29    +70.1902
iter:  21 11:43:04  -870.483213  -3.43  -2.41    +70.5183
iter:  22 11:44:25  -870.449914c -3.49  -2.41    +70.6160
iter:  23 11:45:48  -870.432417c -3.46  -2.45    +70.5544
iter:  24 11:47:09  -870.372001c -3.68  -2.51    +70.6757
iter:  25 11:48:28  -870.408529c -3.66  -2.57    +70.6862
iter:  26 11:49:50  -870.413624c -3.77  -2.60    +70.6898
iter:  27 11:51:11  -870.378959c -3.86  -2.59    +70.7087
iter:  28 11:52:29  -870.417903c -3.91  -2.66    +70.7671
iter:  29 11:53:47  -870.413516c -4.04  -2.67    +70.8217
iter:  30 11:55:08  -870.412720c -4.11  -2.69    +70.7247
iter:  31 11:56:29  -870.392520c -4.37  -2.72    +70.7284
iter:  32 11:57:52  -870.474632c -3.98  -2.80    +70.7089
iter:  33 11:59:13  -870.417064c -4.17  -2.71    +70.7169
iter:  34 12:00:36  -870.419591c -4.41  -2.83    +70.6693
iter:  35 12:01:56  -870.436301c -4.42  -2.85    +70.6260
iter:  36 12:03:16  -870.426901c -4.42  -2.86    +70.6552
iter:  37 12:04:36  -870.424510c -4.61  -2.93    +70.6169
iter:  38 12:05:57  -870.443958c -4.59  -2.98    +70.5842
iter:  39 12:07:16  -870.444417c -4.51  -2.97    +70.5590
iter:  40 12:08:33  -870.452212c -4.50  -2.99    +70.5416
iter:  41 12:09:53  -870.451781c -4.61  -2.99    +70.5581
iter:  42 12:11:13  -870.447293c -4.70  -3.04    +70.4543
iter:  43 12:12:34  -870.450351c -4.80  -3.16    +70.4508
iter:  44 12:13:52  -870.452343c -5.00  -3.13    +70.4269
iter:  45 12:15:13  -870.458797c -4.97  -3.21    +70.3969
iter:  46 12:16:34  -870.459520c -4.90  -3.19    +70.3588
iter:  47 12:17:54  -870.460856c -5.17  -3.19    +70.3029
iter:  48 12:19:12  -870.460957c -5.24  -3.27    +70.2885
iter:  49 12:20:33  -870.465910c -5.20  -3.31    +70.2350
iter:  50 12:21:54  -870.465000c -5.48  -3.29    +70.2082
iter:  51 12:23:15  -870.468927c -5.32  -3.36    +70.1346
iter:  52 12:24:34  -870.472043c -5.26  -3.34    +70.1291
iter:  53 12:25:56  -870.471953c -5.38  -3.33    +70.1025
iter:  54 12:27:19  -870.474695c -5.31  -3.39    +70.0278
iter:  55 12:28:40  -870.476396c -5.39  -3.42    +70.0205
iter:  56 12:30:00  -870.476229c -5.60  -3.39    +69.9845
iter:  57 12:31:16  -870.477661c -5.78  -3.47    +69.9565
iter:  58 12:32:35  -870.478855c -5.92  -3.48    +69.9174
iter:  59 12:33:56  -870.481803c -5.63  -3.49    +69.8505
iter:  60 12:35:03  -870.486793c -5.20  -3.45    +69.6956
iter:  61 12:36:18  -870.492317c -5.20  -3.42    +69.5946
iter:  62 12:37:39  -870.488807c -5.83  -3.34    +69.6871
iter:  63 12:39:00  -870.504117c -4.30  -3.37    +69.2553
iter:  64 12:40:22  -870.504789c -5.08  -3.25    +69.2047
iter:  65 12:41:41  -870.507758c -5.18  -3.28    +69.1732
iter:  66 12:43:01  -870.507192c -4.92  -3.27    +69.1787
iter:  67 12:44:22  -870.507667c -4.96  -3.25    +69.1554
iter:  68 12:45:45  -870.510005c -4.67  -3.31    +69.1092
iter:  69 12:47:06  -870.504937c -4.87  -3.26    +69.1078
iter:  70 12:48:26  -870.501553c -5.38  -3.40    +69.0792
iter:  71 12:49:49  -870.499760c -5.78  -3.55    +69.0645
iter:  72 12:51:09  -870.499674c -6.13  -3.68    +69.0199
iter:  73 12:52:29  -870.499722c -6.07  -3.79    +69.0047
iter:  74 12:53:51  -870.499718c -6.36  -3.72    +68.9907
iter:  75 12:55:14  -870.500068c -5.91  -3.80    +68.9690
iter:  76 12:56:36  -870.500108c -5.93  -3.80    +68.9647
iter:  77 12:57:54  -870.500714c -5.93  -3.78    +68.9525
iter:  78 12:59:16  -870.499636c -6.22  -3.78    +68.9522
iter:  79 13:00:41  -870.500099c -6.31  -3.93    +68.9321
iter:  80 13:02:01  -870.499655c -6.44  -3.92    +68.9262
iter:  81 13:03:23  -870.499726c -6.98  -4.00c   +68.9175
iter:  82 13:04:42  -870.499787c -6.81  -4.08c   +68.9015
iter:  83 13:06:01  -870.499723c -6.89  -4.06c   +68.8979
iter:  84 13:07:21  -870.500102c -6.69  -4.08c   +68.8860
iter:  85 13:08:43  -870.499868c -6.75  -4.04c   +68.8840
iter:  86 13:09:59  -870.500371c -6.37  -4.12c   +68.8750
iter:  87 13:11:22  -870.499998c -6.53  -4.00c   +68.8696
iter:  88 13:12:44  -870.500097c -6.65  -4.10c   +68.8642
iter:  89 13:14:04  -870.500178c -6.89  -4.16c   +68.8595
iter:  90 13:15:23  -870.500008c -7.09  -4.22c   +68.8544
iter:  91 13:16:42  -870.500063c -7.53c -4.28c   +68.8439

Converged after 91 iterations.

Dipole moment: (-9.619341, 8.081422, 8.205624) |e|*Ang

Total magnetic moment: (0.000000, 0.000000, 68.843883)
Local magnetic moments:
   0 Cr ( 0.000000,  0.000000, -0.915092)
   1 Al ( 0.000000,  0.000000, -0.041446)
   2 Cr ( 0.000000,  0.000000, -1.123557)
   3 Co ( 0.000000,  0.000000,  0.732962)
   4 Fe ( 0.000000,  0.000000,  1.773287)
   5 Cr ( 0.000000,  0.000000, -0.812378)
   6 Ni ( 0.000000,  0.000000,  0.191047)
   7 Fe ( 0.000000,  0.000000,  2.075961)
   8 Cr ( 0.000000,  0.000000, -1.169904)
   9 Co ( 0.000000,  0.000000,  1.222729)
  10 Ni ( 0.000000,  0.000000,  0.177119)
  11 Fe ( 0.000000,  0.000000,  2.244902)
  12 Co ( 0.000000,  0.000000,  1.365946)
  13 Co ( 0.000000,  0.000000,  1.002113)
  14 Fe ( 0.000000,  0.000000,  2.002018)
  15 Fe ( 0.000000,  0.000000,  2.272234)
  16 Fe ( 0.000000,  0.000000,  2.036976)
  17 Fe ( 0.000000,  0.000000,  1.899014)
  18 Cr ( 0.000000,  0.000000, -1.121454)
  19 Co ( 0.000000,  0.000000,  1.268654)
  20 Fe ( 0.000000,  0.000000,  2.282815)
  21 Ni ( 0.000000,  0.000000,  0.255195)
  22 Co ( 0.000000,  0.000000,  1.280649)
  23 Cr ( 0.000000,  0.000000, -0.943823)
  24 Cr ( 0.000000,  0.000000, -0.889962)
  25 Ni ( 0.000000,  0.000000,  0.173533)
  26 Fe ( 0.000000,  0.000000,  2.279117)
  27 Ni ( 0.000000,  0.000000,  0.220895)
  28 Co ( 0.000000,  0.000000,  1.174547)
  29 Co ( 0.000000,  0.000000,  1.152236)
  30 Co ( 0.000000,  0.000000,  1.138272)
  31 Cr ( 0.000000,  0.000000,  1.028507)
  32 Al ( 0.000000,  0.000000, -0.010902)
  33 Cr ( 0.000000,  0.000000, -1.485533)
  34 Cr ( 0.000000,  0.000000,  0.821073)
  35 Cr ( 0.000000,  0.000000,  0.993839)
  36 Fe ( 0.000000,  0.000000,  2.256581)
  37 Co ( 0.000000,  0.000000,  0.966353)
  38 Cr ( 0.000000,  0.000000, -1.216494)
  39 Fe ( 0.000000,  0.000000,  2.022764)
  40 Co ( 0.000000,  0.000000,  1.088126)
  41 Ni ( 0.000000,  0.000000,  0.155126)
  42 Ni ( 0.000000,  0.000000,  0.264585)
  43 Al ( 0.000000,  0.000000, -0.022461)
  44 Fe ( 0.000000,  0.000000,  2.333124)
  45 Co ( 0.000000,  0.000000,  1.176690)
  46 Fe ( 0.000000,  0.000000,  1.959782)
  47 Ni ( 0.000000,  0.000000,  0.494886)
  48 Fe ( 0.000000,  0.000000,  2.373549)
  49 Fe ( 0.000000,  0.000000,  2.234555)
  50 Ni ( 0.000000,  0.000000,  0.386232)
  51 Ni ( 0.000000,  0.000000,  0.403597)
  52 Cr ( 0.000000,  0.000000, -0.931480)
  53 Co ( 0.000000,  0.000000,  1.376772)
  54 Fe ( 0.000000,  0.000000,  2.208497)
  55 Cr ( 0.000000,  0.000000, -1.141562)
  56 Co ( 0.000000,  0.000000,  1.342513)
  57 Fe ( 0.000000,  0.000000,  2.309937)
  58 Ni ( 0.000000,  0.000000,  0.358010)
  59 Fe ( 0.000000,  0.000000,  2.174024)
  60 Cr ( 0.000000,  0.000000, -1.804771)
  61 Ni ( 0.000000,  0.000000,  0.301590)
  62 Fe ( 0.000000,  0.000000,  2.309433)
  63 Ni ( 0.000000,  0.000000,  0.378935)
  64 Co ( 0.000000,  0.000000,  1.376260)
  65 Co ( 0.000000,  0.000000,  1.090067)
  66 Ni ( 0.000000,  0.000000,  0.346956)
  67 Fe ( 0.000000,  0.000000,  2.366341)
  68 Ni ( 0.000000,  0.000000,  0.186562)
  69 Al ( 0.000000,  0.000000, -0.032726)
  70 Ni ( 0.000000,  0.000000,  0.344989)
  71 Fe ( 0.000000,  0.000000,  2.103073)
  72 Cr ( 0.000000,  0.000000,  0.065660)
  73 Fe ( 0.000000,  0.000000,  1.865894)
  74 Fe ( 0.000000,  0.000000,  1.483283)
  75 Cr ( 0.000000,  0.000000, -0.384519)
  76 Cr ( 0.000000,  0.000000,  0.531424)
  77 Cr ( 0.000000,  0.000000, -1.403208)
  78 Al ( 0.000000,  0.000000, -0.022015)
  79 Co ( 0.000000,  0.000000,  1.164108)
  80 Cr ( 0.000000,  0.000000, -1.360986)
  81 Co ( 0.000000,  0.000000,  0.956305)
  82 Co ( 0.000000,  0.000000, -0.011348)
  83 Cr ( 0.000000,  0.000000, -1.209447)
  84 Ni ( 0.000000,  0.000000,  0.321268)
  85 Ni ( 0.000000,  0.000000,  0.259550)
  86 Co ( 0.000000,  0.000000,  1.195232)
  87 Co ( 0.000000,  0.000000,  1.605692)
  88 Co ( 0.000000,  0.000000,  1.332505)
  89 Co ( 0.000000,  0.000000,  1.428513)
  90 Ni ( 0.000000,  0.000000,  0.419611)
  91 Ni ( 0.000000,  0.000000,  0.465488)
  92 Ni ( 0.000000,  0.000000,  0.315956)
  93 Ni ( 0.000000,  0.000000,  0.103041)
  94 Co ( 0.000000,  0.000000,  1.171514)
  95 Cr ( 0.000000,  0.000000, -1.803029)
  96 Fe ( 0.000000,  0.000000,  2.222473)
  97 Ni ( 0.000000,  0.000000,  0.161303)
  98 Ni ( 0.000000,  0.000000,  0.385996)
  99 Fe ( 0.000000,  0.000000,  1.770906)
 100 Ni ( 0.000000,  0.000000,  0.385932)
 101 Cr ( 0.000000,  0.000000, -1.171572)
 102 Cr ( 0.000000,  0.000000, -1.031086)
 103 Cr ( 0.000000,  0.000000,  1.107001)
 104 Co ( 0.000000,  0.000000,  0.895201)
 105 Fe ( 0.000000,  0.000000,  1.576077)
 106 Cr ( 0.000000,  0.000000, -0.606181)
 107 Ni ( 0.000000,  0.000000,  0.147599)

Energy contributions relative to reference atoms: (reference = -3699400.456887)

Kinetic:       +156.341858
Potential:     -204.991852
External:        +0.000000
XC:            -857.581007
Entropy (-ST):   -4.587861
Local:          +38.024869
--------------------------
Free energy:   -872.793994
Extrapolated:  -870.500063

Spin contamination: 27.428187 electrons
Showing only first 2 kpts
                      Up                     Down
 Kpt  Band  Eigenvalues  Occupancy  Eigenvalues  Occupancy
  0   508      9.61546    0.99558     10.56444    0.01674
  0   509      9.62634    0.99507     10.58154    0.01415
  0   510      9.64088    0.99431     10.58905    0.01314
  0   511      9.65697    0.99332     10.59415    0.01249

  1   508      9.61301    0.99569     10.56017    0.01746
  1   509      9.63048    0.99487     10.57084    0.01572
  1   510      9.64171    0.99426     10.58675    0.01344
  1   511      9.65164    0.99366     10.59140    0.01284


Fermi level: 10.15715

No gap

Forces in eV/Ang:
  0 Cr    0.08165   -0.18188   -0.60789
  1 Al   -0.29365    0.23364    0.02059
  2 Cr    0.51446   -0.26001   -0.01642
  3 Co    0.33212   -0.06730    0.03711
  4 Fe   -0.16333    0.32715    0.09492
  5 Cr   -0.40040    0.10413   -0.36739
  6 Ni   -0.04940    0.43985   -0.00368
  7 Fe    0.00827   -0.35257    0.27503
  8 Cr    0.29932   -0.00075    0.00148
  9 Co    0.05666   -0.06981    0.02200
 10 Ni    0.06464    0.17653   -0.02056
 11 Fe   -0.17233   -0.34303    0.14208
 12 Co   -0.07573    0.19807   -0.13825
 13 Co   -0.04597   -0.08996   -0.03395
 14 Fe    0.29626   -0.07959    0.05751
 15 Fe   -0.33869    0.05304   -0.31839
 16 Fe    0.16933   -0.15679   -0.18751
 17 Fe    0.45325   -0.18738    0.53380
 18 Cr   -0.07082   -0.03257   -0.09830
 19 Co   -0.29191    0.01067    0.10691
 20 Fe   -0.08185    0.32188    0.05999
 21 Ni    0.01554    0.19649   -0.08846
 22 Co   -0.10270    0.00237    0.09604
 23 Cr    0.58375   -0.51124   -0.05089
 24 Cr   -0.13643    0.09657    0.15163
 25 Ni   -0.01503    0.27515   -0.11551
 26 Fe   -0.20425    0.09146    0.25488
 27 Ni   -0.13467    0.21772    0.10704
 28 Co    0.23307   -0.11623   -0.13699
 29 Co   -0.15131    0.28853   -0.02548
 30 Co    0.15951   -0.13568    0.09059
 31 Cr   -0.14075    0.13565    0.19133
 32 Al   -0.24085   -0.53720    0.43116
 33 Cr    0.00951    0.00734    0.55505
 34 Cr   -0.15512   -0.31973   -0.00681
 35 Cr    0.25019    0.28178    0.05020
 36 Fe    0.15201   -0.02313    0.10003
 37 Co    0.04306    0.03612    0.14452
 38 Cr    0.16070   -0.07488   -0.15022
 39 Fe    0.37255   -0.06102    0.12173
 40 Co   -0.17191    0.14447   -0.09991
 41 Ni    0.09290    0.12474   -0.14982
 42 Ni    0.14392   -0.00780    0.03155
 43 Al    0.19336   -0.39710    0.13887
 44 Fe    0.19449    0.14144   -0.28405
 45 Co   -0.03813    0.03314    0.01404
 46 Fe   -0.07433    0.15400    0.21045
 47 Ni   -0.05457    0.01043   -0.13815
 48 Fe    0.01769    0.01546    0.14899
 49 Fe   -0.03416   -0.13309    0.23310
 50 Ni    0.09828   -0.05561    0.08376
 51 Ni    0.37393   -0.08994   -0.09911
 52 Cr   -0.38585    0.08738   -0.19890
 53 Co   -0.03748   -0.20743   -0.26775
 54 Fe   -0.14717   -0.16334   -0.02818
 55 Cr   -0.15616   -0.08068   -0.15854
 56 Co   -0.07701    0.06888   -0.03817
 57 Fe   -0.03349    0.20038    0.15051
 58 Ni    0.02281   -0.17878    0.09738
 59 Fe   -0.07689   -0.00462   -0.31157
 60 Cr   -0.27171   -0.07319   -0.24702
 61 Ni   -0.07797    0.14456    0.03412
 62 Fe    0.20822    0.11422   -0.18835
 63 Ni   -0.00991    0.08873    0.03477
 64 Co    0.31048   -0.25934    0.01971
 65 Co   -0.03930    0.18576    0.18325
 66 Ni    0.10751    0.15343    0.14452
 67 Fe   -0.40779   -0.09399   -0.18703
 68 Ni    0.03765   -0.00250   -0.07534
 69 Al    0.32926   -0.72248   -0.23459
 70 Ni   -0.25402    0.05363   -0.13030
 71 Fe    0.23651    0.27007   -0.10263
 72 Cr    0.07846    0.04383    0.30249
 73 Fe    0.15673    0.12220   -0.12228
 74 Fe    0.00211   -0.08091    0.26471
 75 Cr   -0.28057   -0.01844   -0.16190
 76 Cr   -0.08951    0.26471   -0.25223
 77 Cr   -0.45921    0.39634    0.22762
 78 Al    0.13040    0.24093   -0.07594
 79 Co   -0.03629   -0.31638    0.16044
 80 Cr    0.08521    0.10710    0.11594
 81 Co    0.07278   -0.15699   -0.27410
 82 Co   -0.11731    0.08620   -0.15954
 83 Cr    0.28846    0.29758   -0.05203
 84 Ni   -0.20856   -0.28710    0.02990
 85 Ni   -0.25779   -0.12739    0.14450
 86 Co    0.08504   -0.32368   -0.04253
 87 Co    0.08390   -0.18448    0.00602
 88 Co   -0.10615   -0.16135    0.07571
 89 Co    0.09844    0.00935    0.05193
 90 Ni   -0.13501   -0.11921    0.02187
 91 Ni    0.06616    0.22581   -0.08614
 92 Ni    0.30125   -0.20812   -0.03603
 93 Ni    0.19854    0.39649    0.34109
 94 Co    0.08400   -0.06151   -0.16640
 95 Cr   -0.15862   -0.19489    0.12459
 96 Fe   -0.17205   -0.02604    0.11084
 97 Ni    0.18947    0.08021    0.03983
 98 Ni    0.12969   -0.10873   -0.00546
 99 Fe    0.33171    0.43875    0.12772
100 Ni    0.13225    0.10661    0.11260
101 Cr   -0.63796    0.00119   -0.01138
102 Cr   -0.04998    0.04594   -0.59245
103 Cr   -0.44625   -0.02394    0.19463
104 Co   -0.23566   -0.09624    0.26206
105 Fe    0.06238   -0.04878   -0.18694
106 Cr   -0.00475    0.03992   -0.29149
107 Ni   -0.19735    0.22181   -0.05608

Timing:                              incl.     excl.
-----------------------------------------------------------
Forces:                             17.664    17.664   0.2% |
Hamiltonian:                         1.152     0.031   0.0% |
 Atomic:                             0.195     0.107   0.0% |
  XC Correction:                     0.088     0.088   0.0% |
 Calculate atomic Hamiltonians:      0.717     0.717   0.0% |
 Communicate:                        0.001     0.001   0.0% |
 Initialize Hamiltonian:             0.000     0.000   0.0% |
 Poisson:                            0.001     0.001   0.0% |
 XC 3D grid:                         0.208     0.208   0.0% |
LCAO initialization:                79.326     1.159   0.0% |
 LCAO eigensolver:                  10.136     0.018   0.0% |
  Calculate projections:             0.196     0.196   0.0% |
  DenseAtomicCorrection:             0.147     0.147   0.0% |
  Distribute overlap matrix:         0.917     0.917   0.0% |
  Orbital Layouts:                   4.654     4.654   0.1% |
  Potential matrix:                  2.336     2.336   0.0% |
  Sum over cells:                    1.868     1.868   0.0% |
 LCAO to grid:                      65.997    65.997   0.9% |
 Set positions (LCAO WFS):           2.034     1.155   0.0% |
  Basic WFS set positions:           0.004     0.004   0.0% |
  Basis functions set positions:     0.001     0.001   0.0% |
  P tci:                             0.250     0.250   0.0% |
  ST tci:                            0.229     0.229   0.0% |
  mktci:                             0.395     0.395   0.0% |
PWDescriptor:                        0.075     0.075   0.0% |
SCF-cycle:                        7312.045   140.078   1.9% ||
 Davidson:                        6978.615  1550.835  20.9% |-------|
  Apply H:                          52.789    49.426   0.7% |
   HMM T:                            3.363     3.363   0.0% |
  Subspace diag:                   523.230     0.079   0.0% |
   calc_h_matrix:                  192.662   138.946   1.9% ||
    Apply H:                        53.716    51.816   0.7% |
     HMM T:                          1.900     1.900   0.0% |
   diagonalize:                     94.622    94.622   1.3% ||
   rotate_psi:                     235.868   235.868   3.2% ||
  calc. matrices:                 1117.700  1020.543  13.8% |-----|
   Apply H:                         97.157    89.856   1.2% |
    HMM T:                           7.301     7.301   0.1% |
  diagonalize:                    3242.532  3242.532  43.7% |----------------|
  rotate_psi:                      491.528   491.528   6.6% |--|
 Density:                           91.484     0.004   0.0% |
  Atomic density matrices:           1.608     1.608   0.0% |
  Mix:                              69.980    69.980   0.9% |
  Multipole moments:                 0.043     0.043   0.0% |
  Pseudo density:                   19.848    19.840   0.3% |
   Symmetrize density:               0.008     0.008   0.0% |
 Hamiltonian:                       95.393     0.958   0.0% |
  Atomic:                           20.203    11.898   0.2% |
   XC Correction:                    8.305     8.305   0.1% |
  Calculate atomic Hamiltonians:    60.823    60.823   0.8% |
  Communicate:                       1.061     1.061   0.0% |
  Poisson:                           0.045     0.045   0.0% |
  XC 3D grid:                       12.303    12.303   0.2% |
 Orthonormalize:                     6.475     0.001   0.0% |
  calc_s_matrix:                     0.852     0.852   0.0% |
  inverse-cholesky:                  0.496     0.496   0.0% |
  projections:                       3.860     3.860   0.1% |
  rotate_psi_s:                      1.266     1.266   0.0% |
Set symmetry:                        0.001     0.001   0.0% |
Other:                               4.220     4.220   0.1% |
-----------------------------------------------------------
Total:                                      7414.484 100.0%

Date: Sat Apr  8 13:17:01 2023
