
  ___ ___ ___ _ _ _  
 |   |   |_  | | | | 
 | | | | | . | | | | 
 |__ |  _|___|_____|  22.8.0
 |___|_|             

User:   c.zeng@d0065
Date:   Tue Apr 18 16:01:50 2023
Arch:   x86_64
Pid:    176666
CWD:    /home/c.zeng/projects/hea-corrosion/hea-mlp/data-curation/surface-mcmc/dft-jobs/119
Python: 3.8.1
gpaw:   /home/c.zeng/usr/installs/gpaw/source/gpaw-22.8.0/gpaw
_gpaw:  /home/c.zeng/usr/installs/gpaw/source/gpaw-22.8.0/
        _gpaw.cpython-38-x86_64-linux-gnu.so
ase:    /home/c.zeng/.local/lib/python3.8/site-packages/ase-3.22.1-py3.8.egg/ase (version 3.22.1)
numpy:  /home/c.zeng/.local/lib/python3.8/site-packages/numpy (version 1.24.2)
scipy:  /home/c.zeng/.local/lib/python3.8/site-packages/scipy (version 1.10.1)
libxc:  4.2.3
units:  Angstrom and eV
cores: 30
OpenMP: False
OMP_NUM_THREADS: 1

Input parameters:
  convergence: {energy: 0.0001}
  kpts: [2 2 1]
  maxiter: 666
  mode: {ecut: 350.0,
         name: pw}
  occupations: {fixmagmom: False,
                name: fermi-dirac,
                width: 0.1}
  poissonsolver: {dipolelayer: xy}
  spinpol: True
  symmetry: {point_group: False}
  xc: PBE

System changes: positions, numbers, cell, pbc, initial_charges, initial_magmoms 

Initialize ...

species:
  Fe:
    name: Iron
    id: 37abbd8d6c3c35915a9b583b742da910
    Z: 26.0
    valence: 8
    core: 18
    charge: 0.0
    file: /home/c.zeng/usr/data/gpaw-setups-0.9.20000/Fe.PBE.gz
    compensation charges: {type: gauss,
                           rc: 0.33,
                           lmax: 2}
    cutoffs: {filter: 2.06,
              core: 2.67}
    valence states:
      #              energy  rcut
      - 4s(2.00)    -5.291   1.164
      - 4p(0.00)    -1.326   1.058
      - 3d(6.00)    -7.505   1.058
      -  s          21.920   1.164
      -  p          25.885   1.058
      -  d          19.706   1.058
  
    # Using partial waves for Fe as LCAO basis

  Cr:
    name: Chromium
    id: 33f258bda2ca9f93018e70263a35547b
    Z: 24.0
    valence: 6
    core: 18
    charge: 0.0
    file: /home/c.zeng/usr/data/gpaw-setups-0.9.20000/Cr.PBE.gz
    compensation charges: {type: gauss,
                           rc: 0.35,
                           lmax: 2}
    cutoffs: {filter: 2.14,
              core: 3.04}
    valence states:
      #              energy  rcut
      - 4s(1.00)    -4.007   1.164
      - 4p(0.00)    -0.989   1.217
      - 3d(5.00)    -2.913   1.111
      -  s          23.205   1.164
      -  p          26.223   1.217
      -  d          24.299   1.111
  
    # Using partial waves for Cr as LCAO basis

  Al:
    name: Aluminium
    id: 0292cae29f5d6237e50f6abdd43a7bdd
    Z: 13.0
    valence: 3
    core: 10
    charge: 0.0
    file: /home/c.zeng/usr/data/gpaw-setups-0.9.20000/Al.PBE.gz
    compensation charges: {type: gauss,
                           rc: 0.34,
                           lmax: 2}
    cutoffs: {filter: 1.91,
              core: 2.36}
    valence states:
      #              energy  rcut
      - 3s(2.00)    -7.753   1.085
      - 3p(1.00)    -2.712   1.085
      -  s          19.459   1.085
      -  p          24.499   1.085
      -  d           0.000   1.085
  
    # Using partial waves for Al as LCAO basis

  Co:
    name: Cobalt
    id: 339d20d5b0b93d2de9531a1bee871d91
    Z: 27.0
    valence: 9
    core: 18
    charge: 0.0
    file: /home/c.zeng/usr/data/gpaw-setups-0.9.20000/Co.PBE.gz
    compensation charges: {type: gauss,
                           rc: 0.32,
                           lmax: 2}
    cutoffs: {filter: 1.87,
              core: 2.55}
    valence states:
      #              energy  rcut
      - 4s(2.00)    -5.469   1.005
      - 4p(0.00)    -1.277   1.058
      - 3d(7.00)    -8.205   1.005
      -  s          21.742   1.005
      -  p          25.934   1.058
      -  d          19.007   1.005
  
    # Using partial waves for Co as LCAO basis

  Ni:
    name: Nickel
    id: 0d9f38a9d6e76a2886f07bb4381f212b
    Z: 28.0
    valence: 16
    core: 12
    charge: 0.0
    file: /home/c.zeng/usr/data/gpaw-setups-0.9.20000/Ni.PBE.gz
    compensation charges: {type: gauss,
                           rc: 0.36,
                           lmax: 2}
    cutoffs: {filter: 2.14,
              core: 1.98}
    valence states:
      #              energy  rcut
      - 4s(2.00)    -5.642   1.164
      - 3p(6.00)   -71.394   1.207
      - 4p(0.00)    -1.226   1.207
      - 3d(8.00)    -8.875   1.138
      -  s          21.570   1.164
      -  d          18.337   1.138
  
    # Using partial waves for Ni as LCAO basis

Reference energy: -4103091.665053  # eV

Spin-polarized calculation.
Magnetic moment: 158.800000

Convergence criteria:
 Maximum [total energy] change in last 3 cyles: 0.0001 eV / electron
 Maximum integral of absolute [dens]ity change: 0.0001 electrons / valence electron
 Maximum integral of absolute [eigenst]ate change: 4e-08 eV^2 / valence electron
 Maximum number of scf [iter]ations: 666
 (Square brackets indicate name in SCF output, whereas a 'c' in
 the SCF output indicates the quantity has converged.)

Symmetries present (total): 1

  ( 1  0  0)
  ( 0  1  0)
  ( 0  0  1)

4 k-points: 2 x 2 x 1 Monkhorst-Pack grid
2 k-points in the irreducible part of the Brillouin zone
       k-points in crystal coordinates                weights
   0:     0.25000000   -0.25000000    0.00000000          2/4
   1:     0.25000000    0.25000000    0.00000000          2/4

Wave functions: Plane wave expansion
  Cutoff energy: 350.000 eV
  Number of coefficients (min, max): 59263, 59339
  Pulay-stress correction: 0.000000 eV/Ang^3 (de/decut=0.000000)
  Using FFTW library
  ScaLapack parameters: grid=1x1, blocksize=None
  Wavefunction extrapolation:
    Improved wavefunction reuse through dual PAW basis 

Occupation numbers: Fermi-Dirac:
  width: 0.1000  # eV
 

Eigensolver
   Davidson(niter=2) 

Densities:
  Coarse grid: 56*56*128 grid
  Fine grid: 112*112*256 grid
  Total Charge: 0.000000 

Density mixing:
  Method: difference
  Backend: pulay
  Linear mixing parameter: 0.05
  old densities: 5
  Damping of long wavelength oscillations: 50 

Hamiltonian:
  XC and Coulomb potentials evaluated on a 112*112*256 grid
  Using the PBE Exchange-Correlation functional
  External potential:
    NoExternalPotential
 

XC parameters: PBE with 2 nearest neighbor stencil

Memory estimate:
  Process memory now: 368.12 MiB
  Calculator: 2263.81 MiB
    Density: 18.78 MiB
      Arrays: 7.39 MiB
      Localized functions: 8.44 MiB
      Mixer: 2.95 MiB
    Hamiltonian: 5.74 MiB
      Arrays: 5.49 MiB
      XC: 0.00 MiB
      Poisson: 0.00 MiB
      vbar: 0.26 MiB
    Wavefunctions: 2239.28 MiB
      Arrays psit_nG: 1414.30 MiB
      Eigensolver: 804.77 MiB
      Projections: 3.48 MiB
      Projectors: 1.15 MiB
      PW-descriptor: 15.58 MiB

Total number of cores used: 30
Parallelization over k-points: 2
Domain decomposition: 1 x 3 x 5

Number of atoms: 125
Number of atomic orbitals: 1149
Number of bands in calculation: 781
Number of valence electrons: 1136
Bands to converge: occupied

... initialized

Initializing position-dependent things.

Density initialized from atomic densities
Creating initial wave functions:
  781 bands from LCAO basis set

                                                                  
                                                                  
                                                                  
                                                                  
                                               Cr     Al          
                         Co    Ni    Al    Ni    Cr               
                                                                  
                          Cr    NNi   CFe   CNi   CNi   Co        
                Al    Cr   AFe   CFe    FFe   Al    Fe            
           Ni     Fe    Fe    Ni    Ni                            
                       Ni   FCo   CCr    Co    Co    Ni           
       Co    Fe   NCr   NNi   CAl    Cr   CCo   Co                
              Ni    Fe    Fe     Fe Ni Cr      Fe     Fe          
                   Fe    CCr   FCo   CCr   FCr   Al               
               Cr    Co    Ni     Co   FCr                        
           Cr    Ni    Co    Co NCoCr Cr    NNi   FCo   Al        
                      Ni   CNi   NCo    AFe   FNi   Co            
                  Ni    Fe   FAl   CCr   NCr    Ni                
       Co    Co        Cr                                         
                  FCr    Al    Co    Cr    Fe                     
              Cr    Fe    Fe     Cr    Fe                         
                                                                  
                                                                  
                                                                  
                                                                  
                                                                  

Positions:
   0 Fe    12.533128    1.440034   10.429626    ( 0.0000,  0.0000,  0.0000)
   1 Cr     2.529984    1.448599   10.596851    ( 0.0000,  0.0000,  1.5000)
   2 Fe     5.001844    1.491107   10.507206    ( 0.0000,  0.0000,  2.0000)
   3 Fe     7.517470    1.481371   10.443804    ( 0.0000,  0.0000,  0.0000)
   4 Cr     9.992855    1.449769   10.527665    ( 0.0000,  0.0000,  1.5000)
   5 Fe    13.789466    3.650838   10.562420    ( 0.0000,  0.0000,  0.0000)
   6 Fe     3.743028    3.607376   10.509643    ( 0.0000,  0.0000,  2.0000)
   7 Al     6.277985    3.603907   10.508586    ( 0.0000,  0.0000,  2.1000)
   8 Co     8.774670    3.629318   10.567703    ( 0.0000,  0.0000,  2.0000)
   9 Cr    11.256667    3.628289   10.556285    ( 0.0000,  0.0000,  1.5000)
  10 Ni    15.035471    5.774902   10.514867    ( 0.0000,  0.0000,  1.5000)
  11 Cr     5.000253    5.778068   10.458099    ( 0.0000,  0.0000,  0.0000)
  12 Fe     7.492975    5.732719   10.527548    ( 0.0000,  0.0000,  2.1000)
  13 Co    10.032594    5.738715   10.521208    ( 0.0000,  0.0000,  0.0000)
  14 Ni    12.531668    5.773428   10.506590    ( 0.0000,  0.0000,  0.0000)
  15 Co    16.282097    7.932335   10.424460    ( 0.0000,  0.0000,  1.5000)
  16 Cr     6.249076    7.915716   10.493733    ( 0.0000,  0.0000,  2.1000)
  17 Ni     8.739103    7.939274   10.318290    ( 0.0000,  0.0000,  0.0000)
  18 Al    11.262833    7.889621   10.504036    ( 0.0000,  0.0000,  2.1000)
  19 Fe    13.767197    7.897384   10.366605    ( 0.0000,  0.0000,  2.0000)
  20 Al    17.517670   10.103092   10.481904    ( 0.0000,  0.0000,  0.0000)
  21 Ni     7.497936   10.110681   10.626409    ( 0.0000,  0.0000,  2.0000)
  22 Cr     9.976265   10.147183   10.547802    ( 0.0000,  0.0000,  2.1000)
  23 Ni    12.481525   10.098897   10.273937    ( 0.0000,  0.0000,  0.0000)
  24 Fe    15.038329   10.106659   10.411838    ( 0.0000,  0.0000,  1.5000)
  25 Co     0.029584    0.040775   12.611442    ( 0.0000,  0.0000,  2.0000)
  26 Co     2.524286    0.017743   12.625649    ( 0.0000,  0.0000,  2.0000)
  27 Cr     5.009931    0.016306   12.476653    ( 0.0000,  0.0000,  2.0000)
  28 Fe    13.725795   10.834823   12.477504    ( 0.0000,  0.0000,  0.0000)
  29 Fe    16.291616   10.839907   12.543255    ( 0.0000,  0.0000,  2.0000)
  30 Cr    13.787334    2.177261   12.583938    ( 0.0000,  0.0000,  2.0000)
  31 Ni     3.767898    2.156913   12.580445    ( 0.0000,  0.0000,  0.0000)
  32 Fe     6.250320    2.155536   12.545368    ( 0.0000,  0.0000,  0.0000)
  33 Al     8.760760    2.165922   12.631314    ( 0.0000,  0.0000,  0.0000)
  34 Cr    11.291091    2.189404   12.569467    ( 0.0000,  0.0000,  2.0000)
  35 Ni    15.015728    4.333177   12.562892    ( 0.0000,  0.0000,  2.0000)
  36 Ni     5.006820    4.331518   12.549301    ( 0.0000,  0.0000,  0.0000)
  37 Ni     7.536414    4.362058   12.589016    ( 0.0000,  0.0000,  0.0000)
  38 Co    10.033535    4.360377   12.602577    ( 0.0000,  0.0000,  1.5000)
  39 Fe    12.523539    4.334760   12.563508    ( 0.0000,  0.0000,  2.0000)
  40 Co    16.274251    6.492117   12.533950    ( 0.0000,  0.0000,  1.5000)
  41 Co     6.308192    6.475432   12.559751    ( 0.0000,  0.0000,  2.1000)
  42 Co     8.776271    6.490035   12.490008    ( 0.0000,  0.0000,  2.0000)
  43 Fe    11.278289    6.490805   12.557021    ( 0.0000,  0.0000,  1.5000)
  44 Ni    13.752272    6.468516   12.517952    ( 0.0000,  0.0000,  2.1000)
  45 Cr     5.108056    8.658624   12.557785    ( 0.0000,  0.0000,  0.0000)
  46 Fe     7.566363    8.646547   12.581003    ( 0.0000,  0.0000,  1.5000)
  47 Co     9.994311    8.654038   12.473248    ( 0.0000,  0.0000,  2.0000)
  48 Fe    12.478693    8.644812   12.462622    ( 0.0000,  0.0000,  2.1000)
  49 Al    14.946058    8.624518   12.480087    ( 0.0000,  0.0000,  0.0000)
  50 Cr     1.256201    0.763084   14.702997    ( 0.0000,  0.0000,  2.1000)
  51 Ni     3.741141    0.768517   14.684241    ( 0.0000,  0.0000,  1.5000)
  52 Co     6.299995    0.774666   14.698271    ( 0.0000,  0.0000,  0.0000)
  53 Co     8.776010    0.777622   14.780255    ( 0.0000,  0.0000,  2.1000)
  54 Cr    11.299537    0.773215   14.649927    ( 0.0000,  0.0000,  1.5000)
  55 Cr     2.503641    2.894650   14.677166    ( 0.0000,  0.0000,  1.5000)
  56 Co     5.003149    2.898769   14.726979    ( 0.0000,  0.0000,  1.5000)
  57 Ni     7.507897    2.915183   14.810283    ( 0.0000,  0.0000,  0.0000)
  58 Co    10.051236    2.911302   14.719875    ( 0.0000,  0.0000,  1.5000)
  59 Cr    12.558998    2.904027   14.656326    ( 0.0000,  0.0000,  2.0000)
  60 Fe     3.714729    5.068312   14.654653    ( 0.0000,  0.0000,  0.0000)
  61 Cr     6.295139    5.069515   14.699915    ( 0.0000,  0.0000,  0.0000)
  62 Co     8.776914    5.060506   14.664779    ( 0.0000,  0.0000,  2.1000)
  63 Cr    11.297436    5.056712   14.652715    ( 0.0000,  0.0000,  0.0000)
  64 Cr    13.775594    5.062599   14.637129    ( 0.0000,  0.0000,  0.0000)
  65 Ni     5.020095    7.203792   14.693017    ( 0.0000,  0.0000,  1.5000)
  66 Cr     7.527582    7.223934   14.646111    ( 0.0000,  0.0000,  2.0000)
  67 Ni    10.007193    7.208139   14.579832    ( 0.0000,  0.0000,  2.1000)
  68 Co    12.551373    7.215565   14.635837    ( 0.0000,  0.0000,  1.5000)
  69 Co    15.022437    7.200789   14.781399    ( 0.0000,  0.0000,  2.1000)
  70 Fe     6.300157    9.420840   14.712918    ( 0.0000,  0.0000,  2.1000)
  71 Co     8.732283    9.401749   14.673585    ( 0.0000,  0.0000,  0.0000)
  72 Al    11.263746    9.439649   14.574753    ( 0.0000,  0.0000,  0.0000)
  73 Cr    13.786012    9.419517   14.774443    ( 0.0000,  0.0000,  0.0000)
  74 Ni    16.298882    9.432071   14.813071    ( 0.0000,  0.0000,  0.0000)
  75 Cr    12.551235    1.460849   16.768751    ( 0.0000,  0.0000,  2.0000)
  76 Ni     2.485776    1.461489   16.791235    ( 0.0000,  0.0000,  2.0000)
  77 Fe     4.988873    1.437953   16.800129    ( 0.0000,  0.0000,  0.0000)
  78 Fe     7.521264    1.441801   16.853904    ( 0.0000,  0.0000,  2.1000)
  79 Fe    10.041408    1.441801   16.816508    ( 0.0000,  0.0000,  0.0000)
  80 Co    13.786651    3.599104   16.753634    ( 0.0000,  0.0000,  2.1000)
  81 Ni     3.751487    3.571785   16.825197    ( 0.0000,  0.0000,  0.0000)
  82 Ni     6.255931    3.593012   16.814131    ( 0.0000,  0.0000,  1.5000)
  83 Al     8.779489    3.570907   16.858483    ( 0.0000,  0.0000,  2.0000)
  84 Cr    11.301319    3.615409   16.751961    ( 0.0000,  0.0000,  1.5000)
  85 Co    14.996321    5.774306   16.825755    ( 0.0000,  0.0000,  1.5000)
  86 Ni     4.982905    5.789733   16.828220    ( 0.0000,  0.0000,  0.0000)
  87 Co     7.569540    5.790156   16.758477    ( 0.0000,  0.0000,  0.0000)
  88 Cr    10.026136    5.746347   16.763908    ( 0.0000,  0.0000,  0.0000)
  89 Co    12.543367    5.747160   16.772185    ( 0.0000,  0.0000,  2.1000)
  90 Fe    16.270128    7.958744   16.878796    ( 0.0000,  0.0000,  2.0000)
  91 Al     6.261908    7.982584   16.782048    ( 0.0000,  0.0000,  2.1000)
  92 Co     8.742457    7.968610   16.764142    ( 0.0000,  0.0000,  2.1000)
  93 Fe    11.277906    7.926015   16.857984    ( 0.0000,  0.0000,  0.0000)
  94 Al    13.798645    7.959796   16.862475    ( 0.0000,  0.0000,  1.5000)
  95 Co    17.564450   10.140147   16.843601    ( 0.0000,  0.0000,  1.5000)
  96 Ni     7.506508   10.131539   16.775003    ( 0.0000,  0.0000,  1.5000)
  97 Co     9.982830   10.139106   16.778819    ( 0.0000,  0.0000,  1.5000)
  98 Co    12.538883   10.154728   16.858689    ( 0.0000,  0.0000,  2.0000)
  99 Cr    15.023737   10.130021   16.876066    ( 0.0000,  0.0000,  2.1000)
 100 Co     0.021688    0.020369   18.796081    ( 0.0000,  0.0000,  2.1000)
 101 Fe     2.494821    0.007467   18.769576    ( 0.0000,  0.0000,  2.1000)
 102 Cr     4.985998    0.002849   18.819329    ( 0.0000,  0.0000,  0.0000)
 103 Cr    13.754781   10.818030   18.872752    ( 0.0000,  0.0000,  2.1000)
 104 Al    16.317444   10.810593   18.850326    ( 0.0000,  0.0000,  1.5000)
 105 Ni     1.256161    2.173586   18.792882    ( 0.0000,  0.0000,  2.0000)
 106 Fe     3.725304    2.151503   18.833213    ( 0.0000,  0.0000,  2.0000)
 107 Fe     6.222195    2.156804   18.811081    ( 0.0000,  0.0000,  2.1000)
 108 Ni     8.770579    2.162528   19.045201    ( 0.0000,  0.0000,  0.0000)
 109 Ni    11.307466    2.180958   18.775534    ( 0.0000,  0.0000,  2.0000)
 110 Al     2.502140    4.316579   18.803537    ( 0.0000,  0.0000,  2.0000)
 111 Cr     4.984546    4.312123   18.946281    ( 0.0000,  0.0000,  0.0000)
 112 Fe     7.501088    4.367044   18.820386    ( 0.0000,  0.0000,  0.0000)
 113 Fe    10.059972    4.352084   18.800162    ( 0.0000,  0.0000,  2.0000)
 114 Fe    12.539763    4.316026   18.767286    ( 0.0000,  0.0000,  2.1000)
 115 Ni    16.262819    6.510059   18.894150    ( 0.0000,  0.0000,  2.0000)
 116 Cr     6.269967    6.534842   18.850238    ( 0.0000,  0.0000,  1.5000)
 117 Ni     8.788984    6.511186   18.794614    ( 0.0000,  0.0000,  1.5000)
 118 Fe    11.281904    6.480051   18.877595    ( 0.0000,  0.0000,  2.1000)
 119 Ni    13.777508    6.479303   18.838585    ( 0.0000,  0.0000,  0.0000)
 120 Co     5.014689    8.654765   18.845336    ( 0.0000,  0.0000,  2.0000)
 121 Ni     7.516337    8.678810   18.792882    ( 0.0000,  0.0000,  2.1000)
 122 Al     9.994976    8.686659   18.888573    ( 0.0000,  0.0000,  1.5000)
 123 Ni    12.542280    8.675037   18.940675    ( 0.0000,  0.0000,  0.0000)
 124 Cr    15.038373    8.673617   18.869083    ( 0.0000,  0.0000,  2.1000)

Unit cell:
           periodic     x           y           z      points  spacing
  1. axis:    yes   12.530300    0.000000    0.000000    56     0.1938
  2. axis:    yes    6.259130   10.841100    0.000000    56     0.1936
  3. axis:    no     0.000000    0.000000   29.353100   128     0.2293

  Lengths:  12.530300  12.518233  29.353100
  Angles:   90.000000  90.000000  59.999929

Effective grid spacing dv^(1/3) = 0.2150

     iter     time        total  log10-change:  magmom
                         energy  eigst   dens
iter:   1 16:10:51 -1069.378983                  +158.2790
iter:   2 16:13:55 -1067.437497  -0.28  -1.20    +126.3748
iter:   3 16:16:59 -1353.931943  -0.48  -1.16    +97.1921
iter:   4 16:20:04 -1323.592029  -0.30  -0.94    +73.2227
iter:   5 16:23:08 -1003.226735  -1.02  -0.96    +49.8040
iter:   6 16:26:13  -971.525443  -1.54  -1.29    +41.7229
iter:   7 16:29:17  -964.036625  -1.94  -1.36    +39.8388
iter:   8 16:32:21  -952.285378  -1.92  -1.38    +40.5531
iter:   9 16:35:25  -962.415229  -1.44  -1.44    +42.0573
iter:  10 16:38:29 -1176.591560  -1.10  -1.41    +42.4765
iter:  11 16:41:33  -955.268179  -1.41  -1.06    +40.0926
iter:  12 16:44:36  -947.900629  -1.66  -1.48    +40.7235
iter:  13 16:47:40  -992.898945  -1.38  -1.60    +42.6176
iter:  14 16:50:43  -946.629990  -1.67  -1.36    +41.9253
iter:  15 16:53:47  -950.116828  -2.15  -1.61    +44.8340
iter:  16 16:56:51  -958.904259  -2.01  -1.62    +47.5103
iter:  17 16:59:55  -965.983810  -1.81  -1.53    +48.2926
iter:  18 17:02:59  -944.656133  -2.06  -1.49    +49.0394
iter:  19 17:06:04  -943.845279  -2.56  -1.77    +51.2721
iter:  20 17:09:08  -948.114540  -2.10  -1.81    +53.6235
iter:  21 17:12:12  -943.183491  -2.44  -1.77    +54.7934
iter:  22 17:15:16  -944.047743  -2.72  -1.86    +57.3565
iter:  23 17:18:20  -944.581543  -2.86  -1.87    +59.3937
iter:  24 17:21:23  -947.389143  -2.56  -1.87    +61.0118
iter:  25 17:24:27  -945.605129  -2.57  -1.83    +61.8691
iter:  26 17:27:31  -944.982578  -2.74  -1.90    +63.1595
iter:  27 17:30:35  -948.051329  -2.38  -2.03    +64.6704
iter:  28 17:33:38  -955.743614  -2.31  -1.92    +65.1251
iter:  29 17:36:42  -947.503230  -2.38  -1.69    +65.6365
iter:  30 17:39:46  -946.209194  -2.84  -1.93    +66.6805
iter:  31 17:42:50  -945.503858  -2.98  -2.04    +68.0895
iter:  32 17:45:54  -945.353534  -3.53  -2.10    +69.1845
iter:  33 17:48:57  -945.788745  -3.15  -2.17    +70.9506
iter:  34 17:52:00  -947.014749  -3.28  -2.21    +71.2730
iter:  35 17:55:04  -946.586648  -2.96  -2.09    +72.3827
iter:  36 17:58:09  -947.212782  -3.04  -2.33    +72.6118
iter:  37 18:01:13  -952.497786  -2.55  -2.21    +73.3140
iter:  38 18:04:17  -946.671124  -2.91  -1.85    +73.4141
iter:  39 18:07:21  -946.863364  -3.37  -2.51    +74.5773
iter:  40 18:10:25  -946.899670  -3.62  -2.52    +75.1698
iter:  41 18:13:28  -947.002445  -3.97  -2.57    +75.6387
iter:  42 18:16:32  -947.561992  -3.27  -2.60    +77.1485
iter:  43 18:19:37  -947.926667  -3.53  -2.47    +76.8178
iter:  44 18:22:41  -947.918162  -3.32  -2.29    +77.7911
iter:  45 18:25:45  -947.859639c -3.63  -2.38    +78.2663
iter:  46 18:28:49  -948.114886  -3.60  -2.46    +78.6516
iter:  47 18:31:53  -947.956902  -3.45  -2.37    +78.8993
iter:  48 18:34:57  -948.008286  -3.54  -2.41    +79.1063
iter:  49 18:38:01  -962.836650  -2.37  -2.38    +79.3371
iter:  50 18:41:04  -948.599366  -2.55  -1.65    +79.2983
iter:  51 18:44:08  -947.909067  -3.32  -2.26    +79.1899
iter:  52 18:47:12  -947.925669  -3.59  -2.51    +79.2496
iter:  53 18:50:15  -947.806828  -3.73  -2.51    +79.2373
iter:  54 18:53:20  -947.754677  -4.05  -2.60    +79.3548
iter:  55 18:56:24  -947.749341c -4.24  -2.72    +79.2573
iter:  56 18:59:27  -948.217082  -3.63  -2.78    +79.2889
iter:  57 19:02:30  -947.771601  -3.80  -2.39    +79.3074
iter:  58 19:05:34  -947.740387  -4.24  -2.81    +79.3650
iter:  59 19:08:38  -947.790543c -4.14  -2.97    +79.3119
iter:  60 19:11:42  -947.762757c -4.45  -2.83    +79.2959
iter:  61 19:14:46  -947.760012c -4.58  -2.94    +79.2916
iter:  62 19:17:50  -947.809222c -4.34  -3.02    +79.1803
iter:  63 19:20:53  -947.756895c -4.85  -2.80    +79.2112
iter:  64 19:23:57  -947.759530c -5.25  -3.09    +79.2064
iter:  65 19:27:01  -947.769352c -5.02  -3.11    +79.1592
iter:  66 19:30:05  -947.770437c -5.44  -3.06    +79.1554
iter:  67 19:33:08  -947.776861c -5.35  -3.06    +79.1514
iter:  68 19:36:12  -947.792152c -4.76  -3.03    +79.1307
iter:  69 19:39:15  -947.789680c -4.84  -2.93    +79.1242
iter:  70 19:42:18  -947.785428c -4.96  -2.96    +79.1131
iter:  71 19:45:22  -947.794496c -4.97  -3.00    +79.0918
iter:  72 19:48:26  -947.781117c -4.91  -2.94    +79.0739
iter:  73 19:51:30  -947.789728c -5.01  -3.02    +79.1153
iter:  74 19:54:34  -948.307895  -3.77  -2.98    +79.0988
iter:  75 19:57:38  -947.840809  -3.89  -2.37    +79.0560
iter:  76 20:00:41  -947.804734  -4.96  -2.79    +79.0293
iter:  77 20:03:45  -947.811127c -5.16  -2.91    +78.9992
iter:  78 20:06:47  -947.804541c -4.88  -2.89    +79.0003
iter:  79 20:09:51  -947.785873c -4.66  -2.93    +78.9481
iter:  80 20:12:55  -947.765272c -4.45  -3.03    +78.9786
iter:  81 20:15:58  -947.770478c -4.92  -3.36    +79.0391
iter:  82 20:19:02  -947.770121c -5.04  -3.31    +79.0423
iter:  83 20:22:05  -947.770512c -5.40  -3.36    +79.0371
iter:  84 20:25:07  -947.767739c -5.74  -3.39    +79.0368
iter:  85 20:28:10  -947.767888c -5.83  -3.49    +79.0346
iter:  86 20:31:14  -947.771246c -5.61  -3.57    +79.0324
iter:  87 20:34:17  -947.767445c -5.62  -3.40    +79.0271
iter:  88 20:37:21  -947.769226c -5.54  -3.66    +79.0223
iter:  89 20:40:25  -947.770648c -5.52  -3.46    +79.0181
iter:  90 20:43:28  -947.771706c -5.51  -3.47    +79.0267
iter:  91 20:46:32  -947.767752c -5.96  -3.42    +79.0289
iter:  92 20:49:35  -947.767395c -6.59  -3.82    +79.0145
iter:  93 20:52:39  -947.767596c -6.97  -3.85    +79.0194
iter:  94 20:55:43  -947.767990c -6.47  -3.89    +79.0219
iter:  95 20:58:48  -947.768194c -6.39  -3.87    +79.0181
iter:  96 21:01:54  -947.771072c -5.85  -3.78    +79.0177
iter:  97 21:04:59  -947.769083c -5.79  -3.48    +79.0131
iter:  98 21:08:05  -947.768772c -6.12  -3.63    +79.0226
iter:  99 21:11:11  -947.768235c -6.28  -3.92    +79.0166
iter: 100 21:14:19  -947.768068c -6.70  -3.89    +79.0133
iter: 101 21:17:48  -947.768033c -6.91  -3.90    +79.0144
iter: 102 21:21:00  -947.767956c -6.81  -4.00c   +79.0159
iter: 103 21:24:10  -947.768230c -6.83  -4.12c   +79.0158
iter: 104 21:27:20  -947.768233c -6.76  -4.02c   +79.0153
iter: 105 21:30:30  -947.768074c -6.85  -4.06c   +79.0111
iter: 106 21:33:39  -947.768047c -7.22  -4.43c   +79.0095
iter: 107 21:36:49  -947.768084c -7.46c -4.38c   +79.0068

Converged after 107 iterations.

Dipole moment: (45.153988, 31.637729, -0.008397) |e|*Ang

Total magnetic moment: (0.000000, 0.000000, 79.006799)
Local magnetic moments:
   0 Fe ( 0.000000,  0.000000, -2.113207)
   1 Cr ( 0.000000,  0.000000, -2.053666)
   2 Fe ( 0.000000,  0.000000,  2.188365)
   3 Fe ( 0.000000,  0.000000,  2.378739)
   4 Cr ( 0.000000,  0.000000, -1.877931)
   5 Fe ( 0.000000,  0.000000,  2.247530)
   6 Fe ( 0.000000,  0.000000,  2.488754)
   7 Al ( 0.000000,  0.000000, -0.060003)
   8 Co ( 0.000000,  0.000000,  1.158843)
   9 Cr ( 0.000000,  0.000000, -1.976801)
  10 Ni ( 0.000000,  0.000000,  0.456821)
  11 Cr ( 0.000000,  0.000000, -2.521408)
  12 Fe ( 0.000000,  0.000000,  2.419315)
  13 Co ( 0.000000,  0.000000,  1.438636)
  14 Ni ( 0.000000,  0.000000,  0.467511)
  15 Co ( 0.000000,  0.000000,  1.138373)
  16 Cr ( 0.000000,  0.000000,  2.241629)
  17 Ni ( 0.000000,  0.000000,  0.385331)
  18 Al ( 0.000000,  0.000000, -0.060096)
  19 Fe ( 0.000000,  0.000000,  2.681850)
  20 Al ( 0.000000,  0.000000, -0.008817)
  21 Ni ( 0.000000,  0.000000,  0.033508)
  22 Cr ( 0.000000,  0.000000,  1.972306)
  23 Ni ( 0.000000,  0.000000,  0.340936)
  24 Fe ( 0.000000,  0.000000,  2.470813)
  25 Co ( 0.000000,  0.000000,  0.076837)
  26 Co ( 0.000000,  0.000000,  0.741736)
  27 Cr ( 0.000000,  0.000000, -1.741090)
  28 Fe ( 0.000000,  0.000000,  2.159293)
  29 Fe ( 0.000000,  0.000000,  1.926138)
  30 Cr ( 0.000000,  0.000000, -0.160046)
  31 Ni ( 0.000000,  0.000000,  0.287923)
  32 Fe ( 0.000000,  0.000000,  2.338380)
  33 Al ( 0.000000,  0.000000, -0.042445)
  34 Cr ( 0.000000,  0.000000,  0.819531)
  35 Ni ( 0.000000,  0.000000,  0.317061)
  36 Ni ( 0.000000,  0.000000,  0.304794)
  37 Ni ( 0.000000,  0.000000,  0.435703)
  38 Co ( 0.000000,  0.000000,  1.115114)
  39 Fe ( 0.000000,  0.000000,  1.773060)
  40 Co ( 0.000000,  0.000000,  1.361472)
  41 Co ( 0.000000,  0.000000,  0.992933)
  42 Co ( 0.000000,  0.000000,  1.558037)
  43 Fe ( 0.000000,  0.000000,  2.202352)
  44 Ni ( 0.000000,  0.000000,  0.442447)
  45 Cr ( 0.000000,  0.000000, -1.962602)
  46 Fe ( 0.000000,  0.000000,  2.309093)
  47 Co ( 0.000000,  0.000000,  1.175849)
  48 Fe ( 0.000000,  0.000000,  2.071578)
  49 Al ( 0.000000,  0.000000, -0.053906)
  50 Cr ( 0.000000,  0.000000,  0.156647)
  51 Ni ( 0.000000,  0.000000,  0.289525)
  52 Co ( 0.000000,  0.000000,  1.167751)
  53 Co ( 0.000000,  0.000000,  1.156013)
  54 Cr ( 0.000000,  0.000000, -1.262966)
  55 Cr ( 0.000000,  0.000000, -0.039786)
  56 Co ( 0.000000,  0.000000,  1.358549)
  57 Ni ( 0.000000,  0.000000,  0.339140)
  58 Co ( 0.000000,  0.000000,  0.704979)
  59 Cr ( 0.000000,  0.000000,  0.106119)
  60 Fe ( 0.000000,  0.000000,  2.363560)
  61 Cr ( 0.000000,  0.000000, -1.552472)
  62 Co ( 0.000000,  0.000000,  1.020165)
  63 Cr ( 0.000000,  0.000000, -0.190004)
  64 Cr ( 0.000000,  0.000000, -1.213947)
  65 Ni ( 0.000000,  0.000000,  0.228807)
  66 Cr ( 0.000000,  0.000000, -1.791392)
  67 Ni ( 0.000000,  0.000000,  0.222641)
  68 Co ( 0.000000,  0.000000,  1.022318)
  69 Co ( 0.000000,  0.000000,  1.230635)
  70 Fe ( 0.000000,  0.000000,  2.145051)
  71 Co ( 0.000000,  0.000000,  1.192906)
  72 Al ( 0.000000,  0.000000, -0.030587)
  73 Cr ( 0.000000,  0.000000,  1.576274)
  74 Ni ( 0.000000,  0.000000,  0.205817)
  75 Cr ( 0.000000,  0.000000,  0.043747)
  76 Ni ( 0.000000,  0.000000,  0.397076)
  77 Fe ( 0.000000,  0.000000,  2.304789)
  78 Fe ( 0.000000,  0.000000,  2.188707)
  79 Fe ( 0.000000,  0.000000,  1.902617)
  80 Co ( 0.000000,  0.000000,  0.892814)
  81 Ni ( 0.000000,  0.000000,  0.383858)
  82 Ni ( 0.000000,  0.000000,  0.447862)
  83 Al ( 0.000000,  0.000000, -0.033615)
  84 Cr ( 0.000000,  0.000000, -0.577825)
  85 Co ( 0.000000,  0.000000,  1.360084)
  86 Ni ( 0.000000,  0.000000,  0.331868)
  87 Co ( 0.000000,  0.000000,  0.449670)
  88 Cr ( 0.000000,  0.000000, -1.482459)
  89 Co ( 0.000000,  0.000000,  0.938088)
  90 Fe ( 0.000000,  0.000000,  2.318175)
  91 Al ( 0.000000,  0.000000, -0.035267)
  92 Co ( 0.000000,  0.000000,  1.291271)
  93 Fe ( 0.000000,  0.000000,  2.438017)
  94 Al ( 0.000000,  0.000000, -0.037161)
  95 Co ( 0.000000,  0.000000,  1.049432)
  96 Ni ( 0.000000,  0.000000,  0.402687)
  97 Co ( 0.000000,  0.000000,  1.259950)
  98 Co ( 0.000000,  0.000000,  0.705180)
  99 Cr ( 0.000000,  0.000000, -1.316129)
 100 Co ( 0.000000,  0.000000,  1.361636)
 101 Fe ( 0.000000,  0.000000,  2.512983)
 102 Cr ( 0.000000,  0.000000, -2.272583)
 103 Cr ( 0.000000,  0.000000, -2.062810)
 104 Al ( 0.000000,  0.000000, -0.026334)
 105 Ni ( 0.000000,  0.000000,  0.393435)
 106 Fe ( 0.000000,  0.000000,  2.416922)
 107 Fe ( 0.000000,  0.000000,  2.275461)
 108 Ni ( 0.000000,  0.000000,  0.422956)
 109 Ni ( 0.000000,  0.000000,  0.318277)
 110 Al ( 0.000000,  0.000000, -0.036638)
 111 Cr ( 0.000000,  0.000000, -2.657551)
 112 Fe ( 0.000000,  0.000000,  2.498059)
 113 Fe ( 0.000000,  0.000000,  2.177225)
 114 Fe ( 0.000000,  0.000000,  2.469587)
 115 Ni ( 0.000000,  0.000000,  0.187130)
 116 Cr ( 0.000000,  0.000000,  2.322853)
 117 Ni ( 0.000000,  0.000000,  0.331805)
 118 Fe ( 0.000000,  0.000000,  2.564222)
 119 Ni ( 0.000000,  0.000000,  0.246397)
 120 Co ( 0.000000,  0.000000,  0.995842)
 121 Ni ( 0.000000,  0.000000,  0.347278)
 122 Al ( 0.000000,  0.000000, -0.045932)
 123 Ni ( 0.000000,  0.000000,  0.104561)
 124 Cr ( 0.000000,  0.000000,  1.802259)

Energy contributions relative to reference atoms: (reference = -4103091.665053)

Kinetic:       +295.815960
Potential:     -314.729452
External:        +0.000000
XC:            -966.850998
Entropy (-ST):   -5.402053
Local:          +40.697432
--------------------------
Free energy:   -950.469110
Extrapolated:  -947.768084

Dipole-layer corrected work functions: 4.930620, 4.941805 eV

Spin contamination: 38.198879 electrons
Showing all kpts
                      Up                     Down
 Kpt  Band  Eigenvalues  Occupancy  Eigenvalues  Occupancy
  0   566     -0.09298    0.99679      0.84965    0.02441
  0   567     -0.08094    0.99638      0.87254    0.01952
  0   568     -0.06987    0.99596      0.87931    0.01826
  0   569     -0.05581    0.99535      0.88981    0.01647

  1   566     -0.08668    0.99658      0.86584    0.02084
  1   567     -0.08243    0.99643      0.87376    0.01928
  1   568     -0.06629    0.99581      0.88026    0.01809
  1   569     -0.05442    0.99529      0.89510    0.01564


Fermi level: 0.48086

No gap

Forces in eV/Ang:
  0 Fe   -0.18449    0.15520    0.47871
  1 Cr    0.07687   -0.12979   -0.27146
  2 Fe    0.17082   -0.52302    0.03174
  3 Fe   -0.04622   -0.67408    0.15690
  4 Cr    0.11810   -0.18535   -0.35982
  5 Fe   -0.28988   -0.25160   -0.11921
  6 Fe   -0.16168    0.20922    0.17731
  7 Al    0.25956   -0.17264   -0.82545
  8 Co    0.18180    0.08250    0.20644
  9 Cr    0.15194    0.17687    0.08374
 10 Ni   -0.02260    0.08338    0.12992
 11 Cr   -0.49515    0.89845    0.20229
 12 Fe    0.85678    0.08722    0.07177
 13 Co   -0.43892   -0.16764    0.28384
 14 Ni    0.01495   -0.08533    0.00713
 15 Co   -0.46121   -0.04223    0.59286
 16 Cr    0.06780    0.01899   -0.15521
 17 Ni    0.03058   -0.21069    0.95749
 18 Al   -0.46282    0.01714   -1.40581
 19 Fe    0.27190    0.17451   -0.07814
 20 Al    0.56110    0.18536   -1.06429
 21 Ni   -0.09879    0.14037   -0.30129
 22 Cr   -0.18651   -0.01750   -0.24599
 23 Ni    0.18735    0.16423    0.85535
 24 Fe   -0.41527    0.12314   -0.00137
 25 Co   -0.10506   -0.10215    0.37886
 26 Co   -0.06885   -0.18120    0.25850
 27 Cr   -0.18987    0.47480   -0.68510
 28 Fe    0.15422   -0.21940    0.25646
 29 Fe   -0.10030   -0.40775    0.87783
 30 Cr   -0.34283    0.13754   -0.15417
 31 Ni    0.07797    0.32570    0.39499
 32 Fe   -0.11639    0.13854    0.88670
 33 Al   -0.45159    0.62215    0.82809
 34 Cr    0.32992    0.00021   -0.14831
 35 Ni    0.25839   -0.00684    0.27421
 36 Ni   -0.00188    0.05733    0.51826
 37 Ni   -0.12281   -0.26237    0.56194
 38 Co   -0.11836    0.12218    0.00911
 39 Fe    0.22901    0.07136   -0.08515
 40 Co    0.47328    0.21242    0.08748
 41 Co   -0.37732   -0.05292    0.32818
 42 Co   -0.02170    0.08752    0.20007
 43 Fe   -0.17311   -0.27924    0.41294
 44 Ni    0.27521    0.20587    0.46175
 45 Cr   -0.07666   -0.60537    0.78332
 46 Fe    0.05409    0.23952    0.24170
 47 Co   -0.14314    0.01776    0.58185
 48 Fe    0.17034    0.33174    0.38737
 49 Al    0.73603   -0.07115    0.88022
 50 Cr    0.25002   -0.39239   -0.30940
 51 Ni    0.22150   -0.30245   -0.00748
 52 Co   -0.00815   -0.09612   -0.00252
 53 Co    0.05187   -0.62512   -0.25126
 54 Cr   -0.60953   -0.30334   -0.02783
 55 Cr   -0.00467   -0.13381    0.09548
 56 Co    0.17168    0.17508   -0.31149
 57 Ni    0.04064   -0.03891   -0.78564
 58 Co    0.10139    0.05671   -0.01563
 59 Cr   -0.21791    0.30003    0.27565
 60 Fe    0.26255    0.05073    0.24053
 61 Cr   -0.47871   -0.43446    0.22887
 62 Co    0.06989    0.12189   -0.23319
 63 Cr   -0.16943   -0.10221   -0.06232
 64 Cr   -0.12570    0.22215    0.58595
 65 Ni   -0.19258    0.27442   -0.30718
 66 Cr    0.68079    0.21212   -0.44160
 67 Ni    0.07540    0.03933    0.49641
 68 Co    0.16973    0.06187    0.08858
 69 Co    0.15484    0.12353   -0.47982
 70 Fe   -0.35755    0.26746   -0.42616
 71 Co   -0.05721   -0.02565   -0.03451
 72 Al   -0.59577   -0.53239    1.00829
 73 Cr    0.61116    0.44821   -0.43564
 74 Ni    0.00038   -0.14520   -0.59458
 75 Cr    0.01356   -0.04114    0.16708
 76 Ni    0.18300   -0.05024   -0.35323
 77 Fe    0.23972   -0.33124   -0.37364
 78 Fe   -0.15628   -0.57138   -0.16147
 79 Fe   -0.00265   -0.09358   -0.51967
 80 Co   -0.09633   -0.00858   -0.64390
 81 Ni    0.11732    0.44374   -0.64706
 82 Ni   -0.21187    0.41657   -0.11626
 83 Al   -0.82074   -0.13845   -0.81809
 84 Cr    0.81703    0.02584   -0.12184
 85 Co    0.51756    0.11668   -0.83746
 86 Ni    0.07889   -0.26392   -0.31859
 87 Co   -0.61273   -0.11593   -0.06113
 88 Cr    0.10328    0.94920   -0.16298
 89 Co   -0.10216   -0.08517   -0.35696
 90 Fe    0.30666   -0.26833   -0.58872
 91 Al   -0.07390   -0.18347   -0.12295
 92 Co    0.61828   -0.12024   -0.59906
 93 Fe   -0.48850   -0.15341   -0.98616
 94 Al   -1.10718   -0.89890   -0.51232
 95 Co   -0.12179    0.11701   -0.78599
 96 Ni    0.28049    0.30027   -0.23810
 97 Co   -0.07332   -0.20396   -0.36640
 98 Co   -0.32624    0.11094    0.06454
 99 Cr    0.50284    0.07641   -1.66551
100 Co    0.17172   -0.16124   -0.19950
101 Fe   -0.16426    0.04605    0.13244
102 Cr   -0.07567    0.61433    0.02727
103 Cr   -0.06649    0.30536    0.31170
104 Al    0.89200    0.93027    1.53765
105 Ni   -0.14182   -0.07210    0.13008
106 Fe    0.05386   -0.03420    0.14934
107 Fe    0.49493   -0.38361    0.29783
108 Ni   -0.08977    0.22761   -0.82931
109 Ni   -0.06650   -0.04879    0.40083
110 Al   -0.72290    0.43218    0.90455
111 Cr    1.19944    0.06388   -0.30862
112 Fe    0.23393   -0.21541    0.48078
113 Fe    0.14724    0.01045    0.21524
114 Fe   -0.58362   -0.06423   -0.04806
115 Ni    0.11446   -0.14604   -0.20890
116 Cr   -0.25526    0.04229    0.46502
117 Ni   -0.10348   -0.04326   -0.09784
118 Fe    0.27181   -0.01814   -0.03164
119 Ni   -0.13368    0.09054    0.09798
120 Co    0.07824    0.04762   -0.22289
121 Ni   -0.02416    0.14353    0.15685
122 Al   -0.34869   -0.79959    0.65333
123 Ni   -0.33820   -0.15310   -0.34894
124 Cr   -0.20814    0.02559    1.16130

Timing:                              incl.     excl.
-----------------------------------------------------------
Forces:                             51.673    51.673   0.3% |
Hamiltonian:                         2.116     0.015   0.0% |
 Atomic:                             0.405     0.002   0.0% |
  XC Correction:                     0.403     0.403   0.0% |
 Calculate atomic Hamiltonians:      1.020     1.020   0.0% |
 Communicate:                        0.112     0.112   0.0% |
 Initialize Hamiltonian:             0.001     0.001   0.0% |
 Poisson:                            0.125     0.125   0.0% |
 XC 3D grid:                         0.439     0.439   0.0% |
LCAO initialization:               336.349     0.600   0.0% |
 LCAO eigensolver:                  19.995     0.017   0.0% |
  Calculate projections:             0.000     0.000   0.0% |
  DenseAtomicCorrection:             0.000     0.000   0.0% |
  Distribute overlap matrix:        11.026    11.026   0.1% |
  Orbital Layouts:                   8.891     8.891   0.0% |
  Potential matrix:                  0.006     0.006   0.0% |
  Sum over cells:                    0.054     0.054   0.0% |
 LCAO to grid:                     312.943   312.943   1.6% ||
 Set positions (LCAO WFS):           2.811     2.463   0.0% |
  Basic WFS set positions:           0.004     0.004   0.0% |
  Basis functions set positions:     0.001     0.001   0.0% |
  P tci:                             0.000     0.000   0.0% |
  ST tci:                            0.142     0.142   0.0% |
  mktci:                             0.201     0.201   0.0% |
PWDescriptor:                        0.142     0.142   0.0% |
SCF-cycle:                       19756.737     1.444   0.0% |
 Davidson:                       19154.338  5385.321  26.7% |----------|
  Apply H:                         384.781   378.164   1.9% ||
   HMM T:                            6.617     6.617   0.0% |
  Subspace diag:                  1889.405     0.055   0.0% |
   calc_h_matrix:                  827.944   469.198   2.3% ||
    Apply H:                       358.746   351.793   1.7% ||
     HMM T:                          6.953     6.953   0.0% |
   diagonalize:                    171.153   171.153   0.8% |
   rotate_psi:                     890.254   890.254   4.4% |-|
  calc. matrices:                 4369.815  3702.966  18.4% |------|
   Apply H:                        666.849   653.269   3.2% ||
    HMM T:                          13.581    13.581   0.1% |
  diagonalize:                    5225.936  5225.936  25.9% |---------|
  rotate_psi:                     1899.079  1899.079   9.4% |---|
 Density:                          339.968     0.005   0.0% |
  Atomic density matrices:           3.480     3.480   0.0% |
  Mix:                             155.059   155.059   0.8% |
  Multipole moments:                 0.092     0.092   0.0% |
  Pseudo density:                  181.332   181.326   0.9% |
   Symmetrize density:               0.006     0.006   0.0% |
 Hamiltonian:                      241.378     1.720   0.0% |
  Atomic:                           44.748     0.232   0.0% |
   XC Correction:                   44.516    44.516   0.2% |
  Calculate atomic Hamiltonians:   132.242   132.242   0.7% |
  Communicate:                      11.044    11.044   0.1% |
  Poisson:                           5.234     5.234   0.0% |
  XC 3D grid:                       46.390    46.390   0.2% |
 Orthonormalize:                    19.609     0.001   0.0% |
  calc_s_matrix:                     2.438     2.438   0.0% |
  inverse-cholesky:                  0.955     0.955   0.0% |
  projections:                      12.045    12.045   0.1% |
  rotate_psi_s:                      4.171     4.171   0.0% |
Set symmetry:                        0.001     0.001   0.0% |
Other:                               9.056     9.056   0.0% |
-----------------------------------------------------------
Total:                                     20156.074 100.0%

Date: Tue Apr 18 21:37:46 2023
