
  ___ ___ ___ _ _ _  
 |   |   |_  | | | | 
 | | | | | . | | | | 
 |__ |  _|___|_____|  22.8.0
 |___|_|             

User:   c.zeng@d0023
Date:   Mon Apr 17 11:19:40 2023
Arch:   x86_64
Pid:    85705
CWD:    /home/c.zeng/projects/hea-corrosion/hea-mlp/data-curation/surface-md/dft-jobs/43
Python: 3.8.1
gpaw:   /home/c.zeng/usr/installs/gpaw/source/gpaw-22.8.0/gpaw
_gpaw:  /home/c.zeng/usr/installs/gpaw/source/gpaw-22.8.0/
        _gpaw.cpython-38-x86_64-linux-gnu.so
ase:    /home/c.zeng/.local/lib/python3.8/site-packages/ase-3.22.1-py3.8.egg/ase (version 3.22.1)
numpy:  /home/c.zeng/.local/lib/python3.8/site-packages/numpy (version 1.24.2)
scipy:  /home/c.zeng/.local/lib/python3.8/site-packages/scipy (version 1.10.1)
libxc:  4.2.3
units:  Angstrom and eV
cores: 30
OpenMP: False
OMP_NUM_THREADS: 1

Input parameters:
  convergence: {energy: 0.0001}
  kpts: [2 2 1]
  maxiter: 666
  mode: {ecut: 350.0,
         name: pw}
  occupations: {fixmagmom: False,
                name: fermi-dirac,
                width: 0.1}
  poissonsolver: {dipolelayer: xy}
  spinpol: True
  symmetry: {point_group: False}
  xc: PBE

System changes: positions, numbers, cell, pbc, initial_charges, initial_magmoms 

Initialize ...

species:
  Al:
    name: Aluminium
    id: 0292cae29f5d6237e50f6abdd43a7bdd
    Z: 13.0
    valence: 3
    core: 10
    charge: 0.0
    file: /home/c.zeng/usr/data/gpaw-setups-0.9.20000/Al.PBE.gz
    compensation charges: {type: gauss,
                           rc: 0.34,
                           lmax: 2}
    cutoffs: {filter: 1.91,
              core: 2.36}
    valence states:
      #              energy  rcut
      - 3s(2.00)    -7.753   1.085
      - 3p(1.00)    -2.712   1.085
      -  s          19.459   1.085
      -  p          24.499   1.085
      -  d           0.000   1.085
  
    # Using partial waves for Al as LCAO basis

  Ni:
    name: Nickel
    id: 0d9f38a9d6e76a2886f07bb4381f212b
    Z: 28.0
    valence: 16
    core: 12
    charge: 0.0
    file: /home/c.zeng/usr/data/gpaw-setups-0.9.20000/Ni.PBE.gz
    compensation charges: {type: gauss,
                           rc: 0.36,
                           lmax: 2}
    cutoffs: {filter: 2.14,
              core: 1.98}
    valence states:
      #              energy  rcut
      - 4s(2.00)    -5.642   1.164
      - 3p(6.00)   -71.394   1.207
      - 4p(0.00)    -1.226   1.207
      - 3d(8.00)    -8.875   1.138
      -  s          21.570   1.164
      -  d          18.337   1.138
  
    # Using partial waves for Ni as LCAO basis

  Fe:
    name: Iron
    id: 37abbd8d6c3c35915a9b583b742da910
    Z: 26.0
    valence: 8
    core: 18
    charge: 0.0
    file: /home/c.zeng/usr/data/gpaw-setups-0.9.20000/Fe.PBE.gz
    compensation charges: {type: gauss,
                           rc: 0.33,
                           lmax: 2}
    cutoffs: {filter: 2.06,
              core: 2.67}
    valence states:
      #              energy  rcut
      - 4s(2.00)    -5.291   1.164
      - 4p(0.00)    -1.326   1.058
      - 3d(6.00)    -7.505   1.058
      -  s          21.920   1.164
      -  p          25.885   1.058
      -  d          19.706   1.058
  
    # Using partial waves for Fe as LCAO basis

  Cr:
    name: Chromium
    id: 33f258bda2ca9f93018e70263a35547b
    Z: 24.0
    valence: 6
    core: 18
    charge: 0.0
    file: /home/c.zeng/usr/data/gpaw-setups-0.9.20000/Cr.PBE.gz
    compensation charges: {type: gauss,
                           rc: 0.35,
                           lmax: 2}
    cutoffs: {filter: 2.14,
              core: 3.04}
    valence states:
      #              energy  rcut
      - 4s(1.00)    -4.007   1.164
      - 4p(0.00)    -0.989   1.217
      - 3d(5.00)    -2.913   1.111
      -  s          23.205   1.164
      -  p          26.223   1.217
      -  d          24.299   1.111
  
    # Using partial waves for Cr as LCAO basis

  Co:
    name: Cobalt
    id: 339d20d5b0b93d2de9531a1bee871d91
    Z: 27.0
    valence: 9
    core: 18
    charge: 0.0
    file: /home/c.zeng/usr/data/gpaw-setups-0.9.20000/Co.PBE.gz
    compensation charges: {type: gauss,
                           rc: 0.32,
                           lmax: 2}
    cutoffs: {filter: 1.87,
              core: 2.55}
    valence states:
      #              energy  rcut
      - 4s(2.00)    -5.469   1.005
      - 4p(0.00)    -1.277   1.058
      - 3d(7.00)    -8.205   1.005
      -  s          21.742   1.005
      -  p          25.934   1.058
      -  d          19.007   1.005
  
    # Using partial waves for Co as LCAO basis

Reference energy: -4103091.665053  # eV

Spin-polarized calculation.
Magnetic moment: 158.800000

Convergence criteria:
 Maximum [total energy] change in last 3 cyles: 0.0001 eV / electron
 Maximum integral of absolute [dens]ity change: 0.0001 electrons / valence electron
 Maximum integral of absolute [eigenst]ate change: 4e-08 eV^2 / valence electron
 Maximum number of scf [iter]ations: 666
 (Square brackets indicate name in SCF output, whereas a 'c' in
 the SCF output indicates the quantity has converged.)

Symmetries present (total): 1

  ( 1  0  0)
  ( 0  1  0)
  ( 0  0  1)

4 k-points: 2 x 2 x 1 Monkhorst-Pack grid
2 k-points in the irreducible part of the Brillouin zone
       k-points in crystal coordinates                weights
   0:     0.25000000   -0.25000000    0.00000000          2/4
   1:     0.25000000    0.25000000    0.00000000          2/4

Wave functions: Plane wave expansion
  Cutoff energy: 350.000 eV
  Number of coefficients (min, max): 59263, 59339
  Pulay-stress correction: 0.000000 eV/Ang^3 (de/decut=0.000000)
  Using FFTW library
  ScaLapack parameters: grid=1x1, blocksize=None
  Wavefunction extrapolation:
    Improved wavefunction reuse through dual PAW basis 

Occupation numbers: Fermi-Dirac:
  width: 0.1000  # eV
 

Eigensolver
   Davidson(niter=2) 

Densities:
  Coarse grid: 56*56*128 grid
  Fine grid: 112*112*256 grid
  Total Charge: 0.000000 

Density mixing:
  Method: difference
  Backend: pulay
  Linear mixing parameter: 0.05
  old densities: 5
  Damping of long wavelength oscillations: 50 

Hamiltonian:
  XC and Coulomb potentials evaluated on a 112*112*256 grid
  Using the PBE Exchange-Correlation functional
  External potential:
    NoExternalPotential
 

XC parameters: PBE with 2 nearest neighbor stencil

Memory estimate:
  Process memory now: 379.39 MiB
  Calculator: 2263.81 MiB
    Density: 18.78 MiB
      Arrays: 7.39 MiB
      Localized functions: 8.44 MiB
      Mixer: 2.95 MiB
    Hamiltonian: 5.74 MiB
      Arrays: 5.49 MiB
      XC: 0.00 MiB
      Poisson: 0.00 MiB
      vbar: 0.26 MiB
    Wavefunctions: 2239.28 MiB
      Arrays psit_nG: 1414.30 MiB
      Eigensolver: 804.77 MiB
      Projections: 3.48 MiB
      Projectors: 1.15 MiB
      PW-descriptor: 15.58 MiB

Total number of cores used: 30
Parallelization over k-points: 2
Domain decomposition: 1 x 3 x 5

Number of atoms: 125
Number of atomic orbitals: 1149
Number of bands in calculation: 781
Number of valence electrons: 1136
Bands to converge: occupied

... initialized

Initializing position-dependent things.

Density initialized from atomic densities
Creating initial wave functions:
  781 bands from LCAO basis set

                                                                  
                                                                  
                                                                  
                                                                  
                                               Co    Ni           
                        Fe     Co          Cr    Co               
                                     Ni                           
                          Ni    NNi   NCo   FCr   Fe    Ni        
                Fe    Cr   CCr    Fe                              
           Fe     Fe    Co    Al  CoFe  Co    Ni    Fe            
             Co        Al   CoCr   CCr    Co   Ni                 
       Co          CCr  NNi    Fe     NiAl Co       Al            
              Fe    Cr     Co Fe Cr Co Fe Ni    Co                
                   Cr     Cr    Co    Cr    Cr Cr     Fe          
                Ni    Ni Al Cr Ni Ni Fe Fe Co    Al               
                 Ni    Cr  CoCo Fe Ni  Ni    Co   Ni              
           Co         Al     Cr  FeNi Co Fe AlFe        Cr        
                   Cr    CrCo Al  AlFe  Co Fe Fe    Ni            
       Fe     Fe       Cr    CoFe        Cr    Ni                 
                   FFe    Co       Cr Ni    Cr                    
               Ni    Fe    Cr    Ni    Al                         
                                                                  
                                                                  
                                                                  
                                                                  
                                                                  
                                                                  

Positions:
   0 Al    12.553245    1.842420   10.582655    ( 0.0000,  0.0000,  0.0000)
   1 Ni     2.673442    1.437989   10.870055    ( 0.0000,  0.0000,  1.5000)
   2 Fe     5.084307    1.600484   10.384139    ( 0.0000,  0.0000,  2.0000)
   3 Cr     7.648602    1.657562   10.607589    ( 0.0000,  0.0000,  0.0000)
   4 Ni    10.082340    2.038812   10.270710    ( 0.0000,  0.0000,  1.5000)
   5 Cr    13.899840    3.837860   10.554271    ( 0.0000,  0.0000,  0.0000)
   6 Fe     3.781507    3.748772   10.534880    ( 0.0000,  0.0000,  2.0000)
   7 Co     6.458606    3.914116   10.614454    ( 0.0000,  0.0000,  2.1000)
   8 Fe     8.729038    4.020180   10.827118    ( 0.0000,  0.0000,  2.0000)
   9 Ni    11.366282    3.919059   10.365387    ( 0.0000,  0.0000,  1.5000)
  10 Ni    14.866242    6.140636   10.156200    ( 0.0000,  0.0000,  1.5000)
  11 Cr     4.905294    5.885517   10.640731    ( 0.0000,  0.0000,  0.0000)
  12 Co     7.212325    5.982363   10.095630    ( 0.0000,  0.0000,  2.1000)
  13 Cr     9.931225    5.972350    9.876062    ( 0.0000,  0.0000,  0.0000)
  14 Cr    12.485434    5.962718   10.302460    ( 0.0000,  0.0000,  0.0000)
  15 Ni    16.203723    8.589838    9.985825    ( 0.0000,  0.0000,  1.5000)
  16 Co     6.080959    8.288229   10.159265    ( 0.0000,  0.0000,  2.1000)
  17 Al     8.711260    8.131136   10.057113    ( 0.0000,  0.0000,  0.0000)
  18 Co    11.204963    8.113600   10.199913    ( 0.0000,  0.0000,  2.1000)
  19 Fe    13.692269    8.085577   10.216119    ( 0.0000,  0.0000,  2.0000)
  20 Cr    17.549007   10.491610   10.017628    ( 0.0000,  0.0000,  0.0000)
  21 Fe     7.668338   10.158973   10.564431    ( 0.0000,  0.0000,  2.0000)
  22 Co     9.985689   10.390909    9.991460    ( 0.0000,  0.0000,  2.1000)
  23 Al    12.359638   10.203531   10.014660    ( 0.0000,  0.0000,  0.0000)
  24 Ni    15.031970   10.632472   10.142747    ( 0.0000,  0.0000,  1.5000)
  25 Fe    -0.085175   -0.229037   12.825333    ( 0.0000,  0.0000,  2.0000)
  26 Fe     2.799943   -0.012615   12.736964    ( 0.0000,  0.0000,  2.0000)
  27 Fe     5.093894   -0.066540   12.147019    ( 0.0000,  0.0000,  2.0000)
  28 Cr    13.793101   10.641102   12.474833    ( 0.0000,  0.0000,  0.0000)
  29 Fe    16.309846   10.659715   12.112007    ( 0.0000,  0.0000,  2.0000)
  30 Fe    13.940234    2.008675   12.775238    ( 0.0000,  0.0000,  2.0000)
  31 Cr     4.187640    2.143499   12.622663    ( 0.0000,  0.0000,  0.0000)
  32 Cr     6.434822    2.193944   12.580483    ( 0.0000,  0.0000,  0.0000)
  33 Al     8.743901    2.123248   12.608138    ( 0.0000,  0.0000,  0.0000)
  34 Fe    11.338251    2.096349   12.654122    ( 0.0000,  0.0000,  2.0000)
  35 Fe    14.937176    4.045767   12.659341    ( 0.0000,  0.0000,  2.0000)
  36 Al     5.041179    4.524224   12.588718    ( 0.0000,  0.0000,  0.0000)
  37 Cr     7.707892    4.282148   12.710513    ( 0.0000,  0.0000,  0.0000)
  38 Ni    10.164403    4.292266   12.615353    ( 0.0000,  0.0000,  1.5000)
  39 Fe    12.657490    4.360966   12.550411    ( 0.0000,  0.0000,  2.0000)
  40 Ni    15.891478    6.214751   12.357611    ( 0.0000,  0.0000,  1.5000)
  41 Co     6.552795    6.414958   12.622327    ( 0.0000,  0.0000,  2.1000)
  42 Fe     8.819095    6.334957   12.087178    ( 0.0000,  0.0000,  2.0000)
  43 Ni    11.324931    6.578260   12.300007    ( 0.0000,  0.0000,  1.5000)
  44 Co    13.750825    6.481864   12.570274    ( 0.0000,  0.0000,  2.1000)
  45 Al     5.246747    8.216509   12.422484    ( 0.0000,  0.0000,  0.0000)
  46 Ni     7.631044    8.360863   12.323174    ( 0.0000,  0.0000,  1.5000)
  47 Fe    10.077884    8.935145   11.966154    ( 0.0000,  0.0000,  2.0000)
  48 Co    12.456892    8.745642   12.396130    ( 0.0000,  0.0000,  2.1000)
  49 Al    14.929334    8.524578   12.162469    ( 0.0000,  0.0000,  0.0000)
  50 Co     1.416331    0.648855   14.674747    ( 0.0000,  0.0000,  2.1000)
  51 Ni     3.840389    0.915312   14.798746    ( 0.0000,  0.0000,  1.5000)
  52 Cr     6.263212    0.750014   14.815552    ( 0.0000,  0.0000,  0.0000)
  53 Co     8.701579    0.755441   14.908050    ( 0.0000,  0.0000,  2.1000)
  54 Ni    11.184878    0.921600   14.963830    ( 0.0000,  0.0000,  1.5000)
  55 Ni     2.623322    2.829813   14.542324    ( 0.0000,  0.0000,  1.5000)
  56 Ni     5.167437    2.960617   14.756504    ( 0.0000,  0.0000,  1.5000)
  57 Cr     7.673503    2.823079   15.063670    ( 0.0000,  0.0000,  0.0000)
  58 Ni    10.045676    2.915812   14.846414    ( 0.0000,  0.0000,  1.5000)
  59 Fe    12.701408    2.607105   14.642694    ( 0.0000,  0.0000,  2.0000)
  60 Cr     3.685118    4.988929   14.843204    ( 0.0000,  0.0000,  0.0000)
  61 Cr     6.252369    4.968691   14.796985    ( 0.0000,  0.0000,  0.0000)
  62 Co     8.856685    5.203443   14.733462    ( 0.0000,  0.0000,  2.1000)
  63 Cr    11.456342    4.821447   14.684649    ( 0.0000,  0.0000,  0.0000)
  64 Cr    13.715499    5.190575   14.593224    ( 0.0000,  0.0000,  0.0000)
  65 Ni     5.066586    7.179887   15.077974    ( 0.0000,  0.0000,  1.5000)
  66 Fe     7.482843    7.242674   14.522745    ( 0.0000,  0.0000,  2.0000)
  67 Co    10.056535    7.039765   14.279150    ( 0.0000,  0.0000,  2.1000)
  68 Ni    12.435460    7.409963   14.508453    ( 0.0000,  0.0000,  1.5000)
  69 Co    15.086653    7.047717   14.717164    ( 0.0000,  0.0000,  2.1000)
  70 Co     6.282972    9.418326   14.875302    ( 0.0000,  0.0000,  2.1000)
  71 Cr     8.940331    9.282269   14.742519    ( 0.0000,  0.0000,  0.0000)
  72 Al    11.203216    9.545387   14.399857    ( 0.0000,  0.0000,  0.0000)
  73 Cr    13.707714    9.590012   14.709028    ( 0.0000,  0.0000,  0.0000)
  74 Al    16.123915    9.308411   14.467222    ( 0.0000,  0.0000,  0.0000)
  75 Fe    12.537173    1.253399   16.911642    ( 0.0000,  0.0000,  2.0000)
  76 Fe     2.401256    1.543785   16.861381    ( 0.0000,  0.0000,  2.0000)
  77 Cr     4.772012    1.507109   16.944050    ( 0.0000,  0.0000,  0.0000)
  78 Co     7.577141    1.451429   16.990609    ( 0.0000,  0.0000,  2.1000)
  79 Cr    10.049542    1.240904   17.135413    ( 0.0000,  0.0000,  0.0000)
  80 Co    13.833282    3.546554   16.689809    ( 0.0000,  0.0000,  2.1000)
  81 Cr     3.667365    3.791070   16.638443    ( 0.0000,  0.0000,  0.0000)
  82 Ni     6.269752    3.404951   16.927217    ( 0.0000,  0.0000,  1.5000)
  83 Fe     8.875512    3.412824   17.145716    ( 0.0000,  0.0000,  2.0000)
  84 Ni    11.409833    3.685011   16.642262    ( 0.0000,  0.0000,  1.5000)
  85 Ni    14.971676    5.787100   16.823028    ( 0.0000,  0.0000,  1.5000)
  86 Al     5.100571    5.534540   17.106375    ( 0.0000,  0.0000,  0.0000)
  87 Cr     7.880502    5.554503   16.826278    ( 0.0000,  0.0000,  0.0000)
  88 Cr    10.106097    5.893483   16.861919    ( 0.0000,  0.0000,  0.0000)
  89 Co    12.644374    5.920585   16.628904    ( 0.0000,  0.0000,  2.1000)
  90 Fe    16.339999    7.623609   16.909937    ( 0.0000,  0.0000,  2.0000)
  91 Co     6.267668    7.806889   17.254210    ( 0.0000,  0.0000,  2.1000)
  92 Co     8.837736    7.920781   16.890828    ( 0.0000,  0.0000,  2.1000)
  93 Al    11.237257    7.883038   16.491186    ( 0.0000,  0.0000,  0.0000)
  94 Ni    13.964156    7.808823   16.876806    ( 0.0000,  0.0000,  1.5000)
  95 Ni    17.662632    9.935806   17.047131    ( 0.0000,  0.0000,  1.5000)
  96 Ni     7.626995   10.032468   16.752559    ( 0.0000,  0.0000,  1.5000)
  97 Ni    10.031445   10.222317   16.942077    ( 0.0000,  0.0000,  1.5000)
  98 Fe    12.429413   10.291662   16.778004    ( 0.0000,  0.0000,  2.0000)
  99 Co    14.909720   10.064076   16.891208    ( 0.0000,  0.0000,  2.1000)
 100 Co    -0.081209   -0.514317   19.057523    ( 0.0000,  0.0000,  2.1000)
 101 Co     2.274812    0.079623   19.099278    ( 0.0000,  0.0000,  2.1000)
 102 Cr     4.859660    0.241754   18.802341    ( 0.0000,  0.0000,  0.0000)
 103 Co    13.727201   10.902293   18.697671    ( 0.0000,  0.0000,  2.1000)
 104 Ni    16.262752   10.723488   19.304712    ( 0.0000,  0.0000,  1.5000)
 105 Fe     1.078991    2.181204   18.915501    ( 0.0000,  0.0000,  2.0000)
 106 Fe     3.567558    2.169575   19.038779    ( 0.0000,  0.0000,  2.0000)
 107 Co     6.110878    2.111869   19.055016    ( 0.0000,  0.0000,  2.1000)
 108 Al     8.805324    2.216827   19.322684    ( 0.0000,  0.0000,  0.0000)
 109 Fe    11.199043    2.320585   18.855070    ( 0.0000,  0.0000,  2.0000)
 110 Fe     2.307914    4.306041   18.796783    ( 0.0000,  0.0000,  2.0000)
 111 Cr     4.995651    4.226025   19.116332    ( 0.0000,  0.0000,  0.0000)
 112 Cr     7.385221    4.163296   18.801549    ( 0.0000,  0.0000,  0.0000)
 113 Fe     9.964797    4.366761   19.166838    ( 0.0000,  0.0000,  2.0000)
 114 Co    12.398727    4.317793   18.540133    ( 0.0000,  0.0000,  2.1000)
 115 Fe    16.112084    6.201133   19.040647    ( 0.0000,  0.0000,  2.0000)
 116 Ni     6.148215    6.218933   19.219505    ( 0.0000,  0.0000,  1.5000)
 117 Ni     8.832640    6.355878   18.724072    ( 0.0000,  0.0000,  1.5000)
 118 Co    11.329372    6.514480   18.812589    ( 0.0000,  0.0000,  2.1000)
 119 Cr    13.731849    6.427978   18.866575    ( 0.0000,  0.0000,  0.0000)
 120 Fe     4.774542    8.373287   19.091858    ( 0.0000,  0.0000,  2.0000)
 121 Co     7.647052    8.360548   19.158238    ( 0.0000,  0.0000,  2.1000)
 122 Ni    10.116632    8.534428   18.975210    ( 0.0000,  0.0000,  1.5000)
 123 Cr    12.493869    8.644096   18.987943    ( 0.0000,  0.0000,  0.0000)
 124 Co    14.859052    8.610170   19.039760    ( 0.0000,  0.0000,  2.1000)

Unit cell:
           periodic     x           y           z      points  spacing
  1. axis:    yes   12.530300    0.000000    0.000000    56     0.1938
  2. axis:    yes    6.259130   10.841100    0.000000    56     0.1936
  3. axis:    no     0.000000    0.000000   29.353100   128     0.2293

  Lengths:  12.530300  12.518233  29.353100
  Angles:   90.000000  90.000000  59.999929

Effective grid spacing dv^(1/3) = 0.2150

     iter     time        total  log10-change:  magmom
                         energy  eigst   dens
iter:   1 11:26:37 -1165.788366                  +159.1295
iter:   2 11:28:55 -1530.570171  +0.11  -1.11    +90.1349
iter:   3 11:31:12 -3042.442727  +1.24  -0.85    +60.3789
iter:   4 11:33:29 -1035.108152  +0.33  -0.58    +30.7135
iter:   5 11:35:47  -995.764937  -0.16  -1.19    +25.6079
iter:   6 11:38:03  -984.733182  -0.71  -1.22    +24.8167
iter:   7 11:40:21  -968.618562  -1.21  -1.24    +26.0089
iter:   8 11:42:37  -961.805621  -1.12  -1.26    +27.1870
iter:   9 11:44:55 -1498.391135  -0.56  -1.27    +29.5472
iter:  10 11:47:12  -956.995093  -0.92  -0.88    +26.9896
iter:  11 11:49:29  -953.513965  -1.60  -1.32    +27.3496
iter:  12 11:51:45  -938.212033  -1.26  -1.33    +30.0338
iter:  13 11:54:00  -955.255948  -1.52  -1.46    +30.8187
iter:  14 11:56:16  -947.286107  -1.39  -1.38    +33.1227
iter:  15 11:58:31  -945.258032  -1.45  -1.46    +32.6017
iter:  16 12:00:47  -959.881899  -1.66  -1.45    +33.2780
iter:  17 12:03:02  -928.438950  -1.91  -1.37    +34.2676
iter:  18 12:05:18  -922.359382  -2.48  -1.58    +36.6909
iter:  19 12:07:33  -923.440977  -2.60  -1.69    +40.9211
iter:  20 12:09:48  -922.613547  -2.83  -1.68    +43.3223
iter:  21 12:12:03  -927.712992  -2.40  -1.72    +47.3488
iter:  22 12:14:19  -925.535958  -2.48  -1.67    +48.8303
iter:  23 12:16:34  -941.722160  -2.03  -1.78    +51.5665
iter:  24 12:18:49  -926.005410  -2.41  -1.56    +52.1383
iter:  25 12:21:04  -932.107446  -2.16  -1.90    +54.9617
iter:  26 12:23:20  -929.519657  -2.19  -1.77    +56.3219
iter:  27 12:25:33  -926.634763  -2.49  -1.84    +58.3798
iter:  28 12:27:46  -926.915412  -2.90  -2.01    +59.4990
iter:  29 12:30:00  -926.992278  -3.25  -2.01    +61.1838
iter:  30 12:32:14  -928.889061  -2.42  -2.06    +67.4593
iter:  31 12:34:28  -932.008130  -2.19  -2.04    +72.5401
iter:  32 12:36:41  -929.686547  -2.91  -1.90    +69.9130
iter:  33 12:38:55  -930.704974  -3.14  -2.05    +71.5065
iter:  34 12:41:09  -932.108752  -2.90  -2.01    +71.9867
iter:  35 12:43:22  -929.086883  -2.76  -1.93    +72.6257
iter:  36 12:45:36  -929.646636  -2.47  -2.07    +72.5033
iter:  37 12:47:50  -929.219646  -2.84  -2.03    +72.0107
iter:  38 12:50:04  -929.332567  -2.86  -2.08    +71.8867
iter:  39 12:52:17  -929.388929  -3.14  -2.10    +71.5625
iter:  40 12:54:31  -934.379419  -2.71  -2.11    +71.1104
iter:  41 12:56:45  -929.874109  -2.66  -1.83    +71.0359
iter:  42 12:58:58  -929.190948  -3.02  -2.13    +70.8692
iter:  43 13:01:12  -929.816786  -2.98  -2.20    +71.5288
iter:  44 13:03:25  -929.276165  -3.00  -2.13    +71.4004
iter:  45 13:05:38  -929.104510  -3.08  -2.27    +70.9717
iter:  46 13:07:52  -929.384945  -3.49  -2.27    +71.2564
iter:  47 13:10:05  -929.487796  -3.23  -2.21    +71.3561
iter:  48 13:12:18  -929.171554  -3.18  -2.24    +71.4291
iter:  49 13:14:31  -929.122141  -3.27  -2.34    +70.9683
iter:  50 13:16:43  -929.077002c -3.47  -2.40    +71.3117
iter:  51 13:18:56  -929.503491  -3.10  -2.46    +71.5627
iter:  52 13:21:08  -930.033164  -3.18  -2.34    +71.2974
iter:  53 13:23:20  -928.911869  -3.59  -2.17    +71.2064
iter:  54 13:25:33  -929.003956  -3.83  -2.65    +71.3332
iter:  55 13:27:45  -928.930637c -4.20  -2.56    +71.4403
iter:  56 13:29:58  -928.980109c -4.36  -2.64    +71.4456
iter:  57 13:32:11  -928.953189c -4.07  -2.63    +71.5556
iter:  58 13:34:24  -929.301137  -3.62  -2.76    +71.6799
iter:  59 13:36:36  -929.063372  -3.85  -2.42    +71.7294
iter:  60 13:38:48  -928.972532  -4.04  -2.62    +71.6705
iter:  61 13:41:01  -929.010290c -4.01  -2.90    +71.5805
iter:  62 13:43:14  -928.954973c -4.18  -2.79    +71.6945
iter:  63 13:45:26  -928.972997c -4.64  -2.93    +71.8231
iter:  64 13:47:39  -929.014893c -4.53  -2.95    +71.7709
iter:  65 13:49:51  -928.981885c -4.41  -2.81    +71.8099
iter:  66 13:52:03  -928.962022c -5.00  -2.90    +71.8489
iter:  67 13:54:16  -928.974288c -4.79  -3.17    +71.8849
iter:  68 13:56:29  -928.997911c -4.53  -3.20    +71.8387
iter:  69 13:58:42  -928.987809c -4.67  -3.05    +71.8755
iter:  70 14:00:54  -928.985824c -4.85  -3.09    +71.9637
iter:  71 14:03:06  -929.019745c -4.67  -3.24    +71.9367
iter:  72 14:05:19  -928.985898c -5.16  -2.92    +71.9523
iter:  73 14:07:31  -928.988313c -5.43  -3.32    +71.9531
iter:  74 14:09:44  -928.994271c -5.06  -3.35    +71.9961
iter:  75 14:11:57  -928.997424c -5.14  -3.34    +72.0599
iter:  76 14:14:09  -928.999929c -5.37  -3.35    +72.0662
iter:  77 14:16:22  -929.065167c -4.78  -3.31    +72.0705
iter:  78 14:18:34  -929.006674c -4.83  -2.81    +72.1071
iter:  79 14:20:47  -929.009031c -5.15  -3.23    +72.1499
iter:  80 14:22:59  -929.011084c -5.00  -3.27    +72.1497
iter:  81 14:25:12  -929.010233c -4.87  -3.30    +72.1805
iter:  82 14:27:25  -929.007232c -5.32  -3.27    +72.1839
iter:  83 14:29:37  -929.008000c -5.43  -3.45    +72.1689
iter:  84 14:31:50  -929.048434c -4.84  -3.51    +72.1874
iter:  85 14:34:03  -929.008934c -5.09  -2.92    +72.1851
iter:  86 14:36:16  -929.009193c -5.68  -3.55    +72.2073
iter:  87 14:38:28  -929.011549c -5.61  -3.66    +72.2199
iter:  88 14:40:39  -929.010428c -5.81  -3.60    +72.2296
iter:  89 14:42:51  -929.011371c -5.96  -3.65    +72.2543
iter:  90 14:45:02  -929.013194c -5.83  -3.64    +72.2647
iter:  91 14:47:14  -929.012436c -6.05  -3.55    +72.2765
iter:  92 14:49:25  -929.012876c -5.89  -3.70    +72.2880
iter:  93 14:51:37  -929.013200c -6.24  -3.73    +72.2998
iter:  94 14:53:49  -929.014697c -5.81  -3.83    +72.3007
iter:  95 14:56:00  -929.014485c -6.17  -3.78    +72.3208
iter:  96 14:58:12  -929.026042c -5.42  -3.73    +72.3538
iter:  97 15:00:23  -929.015071c -5.77  -3.23    +72.3564
iter:  98 15:02:35  -929.016117c -5.99  -3.88    +72.3934
iter:  99 15:04:49  -929.016378c -6.30  -3.81    +72.4043
iter: 100 15:07:03  -929.017005c -6.22  -3.88    +72.4327
iter: 101 15:09:17  -929.016370c -6.30  -3.86    +72.4029
iter: 102 15:11:32  -929.031659c -5.30  -3.74    +72.4597
iter: 103 15:13:47  -929.017160c -5.73  -3.18    +72.4354
iter: 104 15:16:01  -929.018032c -6.15  -3.90    +72.4706
iter: 105 15:18:15  -929.018478c -6.11  -3.87    +72.4885
iter: 106 15:20:29  -929.019499c -6.02  -3.91    +72.5221
iter: 107 15:22:43  -929.019935c -6.25  -3.89    +72.5343
iter: 108 15:24:58  -929.023327c -5.93  -3.72    +72.5549
iter: 109 15:27:12  -929.020919c -6.12  -3.52    +72.5786
iter: 110 15:29:26  -929.021811c -5.94  -3.80    +72.6424
iter: 111 15:31:41  -929.022331c -6.03  -3.75    +72.6662
iter: 112 15:33:55  -929.023650c -5.90  -3.75    +72.6743
iter: 113 15:36:09  -929.030312c -5.41  -3.69    +72.6916
iter: 114 15:38:23  -929.024223c -5.72  -3.26    +72.6804
iter: 115 15:40:37  -929.025209c -5.51  -3.74    +72.6954
iter: 116 15:42:51  -929.024451c -5.92  -3.62    +72.7256
iter: 117 15:45:05  -929.025141c -6.24  -3.68    +72.7523
iter: 118 15:47:19  -929.026579c -5.53  -3.67    +72.8220
iter: 119 15:49:33  -929.028184c -5.71  -3.64    +72.8520
iter: 120 15:51:47  -929.028413c -5.80  -3.64    +72.7995
iter: 121 15:54:01  -929.033900c -5.45  -3.60    +72.9131
iter: 122 15:56:15  -929.028443c -5.89  -3.37    +72.8188
iter: 123 15:58:30  -929.037747c -5.35  -3.63    +72.8483
iter: 124 16:00:43  -929.031750c -5.15  -3.26    +72.8822
iter: 125 16:02:57  -929.030650c -5.45  -3.46    +72.9030
iter: 126 16:05:12  -929.028542c -6.07  -3.45    +72.9247
iter: 127 16:07:26  -929.031877c -5.70  -3.72    +72.9506
iter: 128 16:09:40  -929.028739c -6.14  -3.41    +72.9481
iter: 129 16:11:54  -929.033208c -5.60  -3.72    +72.9608
iter: 130 16:14:08  -929.028940c -5.80  -3.45    +72.9618
iter: 131 16:16:22  -929.029736c -5.89  -3.80    +72.9709
iter: 132 16:18:36  -929.030147c -6.16  -3.79    +72.9784
iter: 133 16:20:50  -929.030308c -6.09  -3.67    +72.9989
iter: 134 16:23:05  -929.031219c -5.85  -3.86    +73.0162
iter: 135 16:25:19  -929.031476c -6.02  -3.64    +73.0214
iter: 136 16:27:33  -929.030280c -5.97  -3.56    +73.0234
iter: 137 16:29:47  -929.030416c -6.30  -4.12c   +73.0393
iter: 138 16:32:02  -929.031420c -6.26  -4.17c   +73.0561
iter: 139 16:34:16  -929.030846c -6.75  -3.92    +73.0624
iter: 140 16:36:30  -929.031091c -6.52  -4.31c   +73.0855
iter: 141 16:38:45  -929.031008c -6.79  -4.24c   +73.0874
iter: 142 16:40:59  -929.031526c -6.65  -4.06c   +73.1021
iter: 143 16:43:13  -929.031501c -7.25  -4.11c   +73.1058
iter: 144 16:45:27  -929.031955c -6.48  -4.15c   +73.1333
iter: 145 16:47:41  -929.033197c -5.76  -4.10c   +73.1958
iter: 146 16:49:55  -929.033142c -6.88  -3.94    +73.1713
iter: 147 16:52:09  -929.033547c -5.76  -3.87    +73.2264
iter: 148 16:54:24  -929.033200c -6.41  -3.62    +73.1969
iter: 149 16:56:38  -929.033125c -6.64  -3.94    +73.2140
iter: 150 16:58:53  -929.033758c -5.76  -3.95    +73.2199
iter: 151 17:01:07  -929.032871c -6.18  -3.60    +73.2257
iter: 152 17:03:21  -929.032693c -5.97  -3.87    +73.2387
iter: 153 17:05:36  -929.032591c -6.57  -3.92    +73.2411
iter: 154 17:07:50  -929.033927c -6.29  -4.00c   +73.2430
iter: 155 17:10:04  -929.032781c -6.45  -3.74    +73.2500
iter: 156 17:12:18  -929.032869c -6.62  -3.92    +73.2573
iter: 157 17:14:34  -929.032902c -6.51  -4.07c   +73.2460
iter: 158 17:16:51  -929.032854c -6.53  -3.88    +73.2496
iter: 159 17:19:07  -929.032926c -6.27  -4.03c   +73.2492
iter: 160 17:21:24  -929.033258c -6.39  -4.08c   +73.2497
iter: 161 17:23:41  -929.033387c -6.44  -4.04c   +73.2626
iter: 162 17:25:58  -929.033255c -6.35  -3.79    +73.2611
iter: 163 17:28:14  -929.033492c -6.59  -4.02c   +73.2712
iter: 164 17:30:32  -929.033026c -6.75  -3.93    +73.2773
iter: 165 17:32:49  -929.033074c -6.81  -4.27c   +73.2840
iter: 166 17:35:07  -929.033034c -7.32  -4.31c   +73.2832
iter: 167 17:37:24  -929.033412c -7.17  -4.38c   +73.2839
iter: 168 17:39:41  -929.033158c -6.58  -4.05c   +73.2855
iter: 169 17:41:58  -929.032958c -6.88  -3.93    +73.2852
iter: 170 17:44:15  -929.032963c -7.17  -4.20c   +73.2877
iter: 171 17:46:32  -929.033009c -7.20  -4.62c   +73.2861
iter: 172 17:48:49  -929.033016c -7.31  -4.47c   +73.2874
iter: 173 17:51:05  -929.032960c -7.87c -4.62c   +73.2886

Converged after 173 iterations.

Dipole moment: (73.419437, 80.827641, -0.079330) |e|*Ang

Total magnetic moment: (0.000000, 0.000000, 73.288638)
Local magnetic moments:
   0 Al ( 0.000000,  0.000000, -0.022648)
   1 Ni ( 0.000000,  0.000000,  0.423124)
   2 Fe ( 0.000000,  0.000000,  2.342010)
   3 Cr ( 0.000000,  0.000000, -1.907047)
   4 Ni ( 0.000000,  0.000000,  0.094437)
   5 Cr ( 0.000000,  0.000000, -2.452999)
   6 Fe ( 0.000000,  0.000000,  2.421248)
   7 Co ( 0.000000,  0.000000,  1.059074)
   8 Fe ( 0.000000,  0.000000,  1.971878)
   9 Ni ( 0.000000,  0.000000, -0.068361)
  10 Ni ( 0.000000,  0.000000,  0.196376)
  11 Cr ( 0.000000,  0.000000, -2.554418)
  12 Co ( 0.000000,  0.000000,  1.456224)
  13 Cr ( 0.000000,  0.000000, -2.985388)
  14 Cr ( 0.000000,  0.000000, -2.472225)
  15 Ni ( 0.000000,  0.000000,  0.160316)
  16 Co ( 0.000000,  0.000000,  1.393400)
  17 Al ( 0.000000,  0.000000, -0.043335)
  18 Co ( 0.000000,  0.000000,  1.038507)
  19 Fe ( 0.000000,  0.000000,  2.515478)
  20 Cr ( 0.000000,  0.000000, -2.913084)
  21 Fe ( 0.000000,  0.000000,  2.586729)
  22 Co ( 0.000000,  0.000000,  1.552253)
  23 Al ( 0.000000,  0.000000, -0.038920)
  24 Ni ( 0.000000,  0.000000,  0.084609)
  25 Fe ( 0.000000,  0.000000,  2.694829)
  26 Fe ( 0.000000,  0.000000,  2.193790)
  27 Fe ( 0.000000,  0.000000,  1.841385)
  28 Cr ( 0.000000,  0.000000, -1.209955)
  29 Fe ( 0.000000,  0.000000,  2.227774)
  30 Fe ( 0.000000,  0.000000,  2.031734)
  31 Cr ( 0.000000,  0.000000, -1.422550)
  32 Cr ( 0.000000,  0.000000,  1.269574)
  33 Al ( 0.000000,  0.000000, -0.010281)
  34 Fe ( 0.000000,  0.000000,  2.541695)
  35 Fe ( 0.000000,  0.000000,  1.919630)
  36 Al ( 0.000000,  0.000000, -0.017059)
  37 Cr ( 0.000000,  0.000000, -0.982706)
  38 Ni ( 0.000000,  0.000000,  0.283133)
  39 Fe ( 0.000000,  0.000000,  2.120581)
  40 Ni ( 0.000000,  0.000000,  0.164682)
  41 Co ( 0.000000,  0.000000,  0.562526)
  42 Fe ( 0.000000,  0.000000,  2.423477)
  43 Ni ( 0.000000,  0.000000,  0.320106)
  44 Co ( 0.000000,  0.000000,  1.232342)
  45 Al ( 0.000000,  0.000000, -0.027495)
  46 Ni ( 0.000000,  0.000000,  0.400873)
  47 Fe ( 0.000000,  0.000000,  2.192992)
  48 Co ( 0.000000,  0.000000,  0.975620)
  49 Al ( 0.000000,  0.000000, -0.034684)
  50 Co ( 0.000000,  0.000000,  1.371987)
  51 Ni ( 0.000000,  0.000000,  0.108852)
  52 Cr ( 0.000000,  0.000000, -0.930603)
  53 Co ( 0.000000,  0.000000,  0.922851)
  54 Ni ( 0.000000,  0.000000,  0.514987)
  55 Ni ( 0.000000,  0.000000,  0.317598)
  56 Ni ( 0.000000,  0.000000,  0.033142)
  57 Cr ( 0.000000,  0.000000, -0.535516)
  58 Ni ( 0.000000,  0.000000,  0.233214)
  59 Fe ( 0.000000,  0.000000,  2.365136)
  60 Cr ( 0.000000,  0.000000, -1.222566)
  61 Cr ( 0.000000,  0.000000,  1.635989)
  62 Co ( 0.000000,  0.000000,  1.197868)
  63 Cr ( 0.000000,  0.000000, -1.145373)
  64 Cr ( 0.000000,  0.000000,  0.135314)
  65 Ni ( 0.000000,  0.000000,  0.383339)
  66 Fe ( 0.000000,  0.000000,  2.467366)
  67 Co ( 0.000000,  0.000000,  1.302992)
  68 Ni ( 0.000000,  0.000000,  0.239607)
  69 Co ( 0.000000,  0.000000,  0.822336)
  70 Co ( 0.000000,  0.000000,  1.504766)
  71 Cr ( 0.000000,  0.000000, -2.348732)
  72 Al ( 0.000000,  0.000000, -0.023827)
  73 Cr ( 0.000000,  0.000000,  1.286698)
  74 Al ( 0.000000,  0.000000, -0.028032)
  75 Fe ( 0.000000,  0.000000,  2.570249)
  76 Fe ( 0.000000,  0.000000,  2.249207)
  77 Cr ( 0.000000,  0.000000, -0.645350)
  78 Co ( 0.000000,  0.000000,  1.027407)
  79 Cr ( 0.000000,  0.000000, -2.046989)
  80 Co ( 0.000000,  0.000000,  1.259589)
  81 Cr ( 0.000000,  0.000000,  0.757457)
  82 Ni ( 0.000000,  0.000000, -0.068409)
  83 Fe ( 0.000000,  0.000000,  1.846388)
  84 Ni ( 0.000000,  0.000000,  0.395142)
  85 Ni ( 0.000000,  0.000000,  0.290226)
  86 Al ( 0.000000,  0.000000, -0.007576)
  87 Cr ( 0.000000,  0.000000, -1.288888)
  88 Cr ( 0.000000,  0.000000,  1.049287)
  89 Co ( 0.000000,  0.000000,  0.791723)
  90 Fe ( 0.000000,  0.000000,  2.502959)
  91 Co ( 0.000000,  0.000000,  1.649424)
  92 Co ( 0.000000,  0.000000,  1.172165)
  93 Al ( 0.000000,  0.000000, -0.020005)
  94 Ni ( 0.000000,  0.000000,  0.328144)
  95 Ni ( 0.000000,  0.000000,  0.593279)
  96 Ni ( 0.000000,  0.000000,  0.495433)
  97 Ni ( 0.000000,  0.000000,  0.084881)
  98 Fe ( 0.000000,  0.000000,  1.899367)
  99 Co ( 0.000000,  0.000000,  1.236094)
 100 Co ( 0.000000,  0.000000,  1.846952)
 101 Co ( 0.000000,  0.000000,  1.731524)
 102 Cr ( 0.000000,  0.000000, -1.091298)
 103 Co ( 0.000000,  0.000000,  1.419980)
 104 Ni ( 0.000000,  0.000000,  0.408289)
 105 Fe ( 0.000000,  0.000000,  2.584807)
 106 Fe ( 0.000000,  0.000000,  2.246972)
 107 Co ( 0.000000,  0.000000,  0.663304)
 108 Al ( 0.000000,  0.000000, -0.049827)
 109 Fe ( 0.000000,  0.000000,  2.295231)
 110 Fe ( 0.000000,  0.000000,  2.263545)
 111 Cr ( 0.000000,  0.000000, -2.244292)
 112 Cr ( 0.000000,  0.000000,  1.124321)
 113 Fe ( 0.000000,  0.000000,  2.544046)
 114 Co ( 0.000000,  0.000000,  1.493549)
 115 Fe ( 0.000000,  0.000000,  2.384429)
 116 Ni ( 0.000000,  0.000000,  0.096006)
 117 Ni ( 0.000000,  0.000000,  0.190906)
 118 Co ( 0.000000,  0.000000,  0.806192)
 119 Cr ( 0.000000,  0.000000, -2.278891)
 120 Fe ( 0.000000,  0.000000,  2.793243)
 121 Co ( 0.000000,  0.000000,  1.865726)
 122 Ni ( 0.000000,  0.000000,  0.286196)
 123 Cr ( 0.000000,  0.000000, -2.765722)
 124 Co ( 0.000000,  0.000000,  1.363750)

Energy contributions relative to reference atoms: (reference = -4103091.665053)

Kinetic:       +435.025135
Potential:     -425.577442
External:        +0.000000
XC:            -975.911950
Entropy (-ST):   -5.192321
Local:          +40.027458
--------------------------
Free energy:   -931.629121
Extrapolated:  -929.032960

Dipole-layer corrected work functions: 4.828402, 4.934075 eV

Spin contamination: 45.658125 electrons
Showing all kpts
                      Up                     Down
 Kpt  Band  Eigenvalues  Occupancy  Eigenvalues  Occupancy
  0   566     -0.04373    0.99750      0.90065    0.03061
  0   567     -0.02976    0.99713      0.90733    0.02869
  0   568     -0.01362    0.99662      0.91684    0.02616
  0   569      0.00221    0.99605      0.92371    0.02446

  1   566     -0.02346    0.99694      0.90497    0.02935
  1   567     -0.00767    0.99642      0.91043    0.02784
  1   568     -0.00542    0.99634      0.91499    0.02663
  1   569      0.00554    0.99591      0.92896    0.02324


Fermi level: 0.55512

No gap

Forces in eV/Ang:
  0 Al    0.50695   -1.58221   -0.54094
  1 Ni   -0.62334    1.11475   -1.38666
  2 Fe    0.03809    0.80576   -0.15703
  3 Cr   -1.90101    0.85608   -1.64729
  4 Ni   -0.38071   -1.38473    0.91967
  5 Cr    1.12764    0.44414   -0.27104
  6 Fe    0.08776   -0.20961   -0.00070
  7 Co   -1.41284   -0.69596   -0.02449
  8 Fe    0.19922   -0.15270   -1.87997
  9 Ni   -0.24810    0.45395    0.76465
 10 Ni    0.98316   -0.53970    0.48254
 11 Cr    0.08045    1.48826   -1.99052
 12 Co    0.97638    0.75460    0.75896
 13 Cr    0.01060   -0.81348    0.39266
 14 Cr    0.54595    0.61927    0.19541
 15 Ni   -0.20098   -1.52643    0.83400
 16 Co    0.91823   -0.50166    0.34817
 17 Al   -0.59972   -0.33733   -0.96041
 18 Co    0.25637   -0.70646   -0.02806
 19 Fe   -0.65595    0.45833   -0.51973
 20 Cr    0.16696    0.02183    0.47134
 21 Fe   -1.06647    1.38224    0.86840
 22 Co   -0.02111   -0.62392    0.52822
 23 Al    1.46623    0.22904   -0.61443
 24 Ni   -0.56929   -0.93817   -0.10582
 25 Fe    0.37955    0.55111   -0.40744
 26 Fe   -1.14043   -0.33164    0.19960
 27 Fe    0.26598    1.74301    0.89941
 28 Cr   -0.25364    1.37387    0.85773
 29 Fe    0.54284    0.43271    0.74689
 30 Fe   -1.21983   -0.42243   -1.63033
 31 Cr   -0.85199   -0.32562    0.31465
 32 Cr   -0.79312   -0.10476    0.66977
 33 Al    3.59975   -0.94061    1.98411
 34 Fe   -0.51677   -0.13987    0.52798
 35 Fe    1.20475    1.24075   -0.58671
 36 Al    0.20116   -1.00591    1.20994
 37 Cr   -1.33181    0.89275    1.10930
 38 Ni    0.58586    0.05057    0.71716
 39 Fe   -1.19297   -0.26598   -0.73391
 40 Ni    1.95949    0.76584    0.81614
 41 Co   -0.81533   -2.52889   -0.36931
 42 Fe    0.73395    0.26738    0.24930
 43 Ni   -0.41424   -0.21784    0.00688
 44 Co   -1.78076   -0.02189   -0.24288
 45 Al   -1.69539    1.15567    0.14783
 46 Ni    0.76025    2.49122    0.21654
 47 Fe   -0.56072   -1.62725    1.29666
 48 Co    0.66769   -1.09227   -0.54017
 49 Al    1.24368   -0.61065    0.71388
 50 Co   -0.56730   -1.16205    0.99070
 51 Ni    0.15644   -1.65532    0.02704
 52 Cr    0.74829    0.83894   -0.47474
 53 Co    0.83386   -0.12879   -0.45884
 54 Ni    0.31259   -2.47301   -0.62984
 55 Ni    0.03017    0.32796    1.81074
 56 Ni   -0.41444   -0.55242   -0.28085
 57 Cr   -0.32590    0.72849   -1.07894
 58 Ni   -0.69663    0.16822   -0.64410
 59 Fe   -0.36457    1.70950    0.66783
 60 Cr    0.46459    0.79188   -0.50567
 61 Cr    0.73549    0.78159    0.16258
 62 Co    0.18048   -1.13855   -0.40173
 63 Cr   -0.00582    1.53046   -0.78838
 64 Cr    0.33854   -0.79177    0.59884
 65 Ni    0.42794   -0.09117   -1.37548
 66 Fe    0.59219    0.32275    1.21661
 67 Co   -0.62945    0.98670    0.32468
 68 Ni    1.05282   -0.78049   -0.29932
 69 Co   -0.52516    1.20628   -0.43747
 70 Co   -0.12432   -0.41733   -0.06194
 71 Cr   -2.78276   -0.32518   -0.00687
 72 Al    0.85277   -0.15269   -0.62450
 73 Cr   -0.40263   -0.71778   -0.38221
 74 Al    1.75546    0.58240    0.85156
 75 Fe    0.08044    0.22855    0.29279
 76 Fe    0.49051   -0.99327   -0.26435
 77 Cr    0.88009    0.83411    0.45921
 78 Co   -0.20795   -0.31378   -0.38727
 79 Cr   -0.10207   -0.06108   -0.68075
 80 Co   -0.47389    0.45970   -0.22669
 81 Cr   -0.05691   -2.19430    0.37150
 82 Ni   -0.38314    0.75162   -0.29794
 83 Fe    1.08298    0.72219   -0.98911
 84 Ni   -0.76295   -0.94323    0.12551
 85 Ni    0.26142   -1.13295    0.04101
 86 Al    1.47975    2.00380   -0.79024
 87 Cr   -1.48363    0.36380   -1.02498
 88 Cr    0.12063   -2.45515   -0.26139
 89 Co   -1.12241   -1.05113    0.12144
 90 Fe   -0.37293    2.16018    0.50628
 91 Co    0.84801    0.00759   -0.32397
 92 Co   -0.59792    0.16275   -0.30323
 93 Al    0.83390    2.07966    0.68333
 94 Ni   -1.20940    2.15572   -0.39988
 95 Ni   -1.18959   -0.11243   -0.82637
 96 Ni   -0.48273    0.03685    0.74158
 97 Ni   -0.80081   -1.27370   -0.48174
 98 Fe    0.35653   -0.81533    0.46258
 99 Co    0.87718   -0.34520   -0.09683
100 Co    0.56818    0.70257   -0.15665
101 Co    0.25862   -0.46494   -1.16982
102 Cr    0.15818   -0.81776    0.62207
103 Co   -0.08037   -1.00856    1.77357
104 Ni   -0.15328    0.12747   -1.20417
105 Fe   -0.00048   -0.38166    0.26461
106 Fe    0.08449    0.04993   -0.05754
107 Co    0.71622   -0.15641   -0.61971
108 Al   -0.78838   -1.65533    0.88758
109 Fe    0.17352   -0.90632    0.08805
110 Fe   -0.07200   -0.86080   -0.02803
111 Cr   -1.14519   -1.53053    0.61415
112 Cr    0.16508    1.30328    0.65298
113 Fe    0.59323    0.24399   -0.52152
114 Co    0.32524    0.72642    0.98310
115 Fe    0.56999    1.11671    0.19834
116 Ni    0.80445    1.22819   -0.40101
117 Ni   -0.50311    0.41743    2.06766
118 Co   -0.13342   -0.40909   -0.35475
119 Cr   -0.08323   -0.55709   -0.06031
120 Fe    0.42735    0.25542    0.12370
121 Co   -0.63345    0.83987   -0.79891
122 Ni   -0.80838    0.78782   -0.82780
123 Cr   -0.07012    0.88142   -0.37674
124 Co    0.66301    0.25065   -0.88799

Timing:                              incl.     excl.
-----------------------------------------------------------
Forces:                             35.281    35.281   0.1% |
Hamiltonian:                         1.338     0.010   0.0% |
 Atomic:                             0.358     0.002   0.0% |
  XC Correction:                     0.357     0.357   0.0% |
 Calculate atomic Hamiltonians:      0.441     0.441   0.0% |
 Communicate:                        0.122     0.122   0.0% |
 Initialize Hamiltonian:             0.000     0.000   0.0% |
 Poisson:                            0.079     0.079   0.0% |
 XC 3D grid:                         0.326     0.326   0.0% |
LCAO initialization:               261.346     0.534   0.0% |
 LCAO eigensolver:                  12.990     0.010   0.0% |
  Calculate projections:             0.000     0.000   0.0% |
  DenseAtomicCorrection:             0.000     0.000   0.0% |
  Distribute overlap matrix:         8.328     8.328   0.0% |
  Orbital Layouts:                   4.623     4.623   0.0% |
  Potential matrix:                  0.003     0.003   0.0% |
  Sum over cells:                    0.026     0.026   0.0% |
 LCAO to grid:                     245.752   245.752   1.0% |
 Set positions (LCAO WFS):           2.069     1.790   0.0% |
  Basic WFS set positions:           0.004     0.004   0.0% |
  Basis functions set positions:     0.001     0.001   0.0% |
  P tci:                             0.000     0.000   0.0% |
  ST tci:                            0.106     0.106   0.0% |
  mktci:                             0.169     0.169   0.0% |
PWDescriptor:                        0.107     0.107   0.0% |
SCF-cycle:                       23219.931     1.937   0.0% |
 Davidson:                       22677.895  7396.679  31.4% |------------|
  Apply H:                         438.082   431.222   1.8% ||
   HMM T:                            6.860     6.860   0.0% |
  Subspace diag:                  2506.261     0.053   0.0% |
   calc_h_matrix:                 1025.368   649.076   2.8% ||
    Apply H:                       376.292   369.382   1.6% ||
     HMM T:                          6.910     6.910   0.0% |
   diagonalize:                    222.494   222.494   0.9% |
   rotate_psi:                    1258.346  1258.346   5.3% |-|
  calc. matrices:                 5871.855  5167.374  22.0% |--------|
   Apply H:                        704.481   690.831   2.9% ||
    HMM T:                          13.650    13.650   0.1% |
  diagonalize:                    3793.400  3793.400  16.1% |-----|
  rotate_psi:                     2671.618  2671.618  11.4% |----|
 Density:                          301.181     0.005   0.0% |
  Atomic density matrices:           3.944     3.944   0.0% |
  Mix:                              99.516    99.516   0.4% |
  Multipole moments:                 0.118     0.118   0.0% |
  Pseudo density:                  197.599   197.591   0.8% |
   Symmetrize density:               0.007     0.007   0.0% |
 Hamiltonian:                      221.733     1.757   0.0% |
  Atomic:                           62.605     0.222   0.0% |
   XC Correction:                   62.383    62.383   0.3% |
  Calculate atomic Hamiltonians:    77.104    77.104   0.3% |
  Communicate:                      19.609    19.609   0.1% |
  Poisson:                           5.819     5.819   0.0% |
  XC 3D grid:                       54.839    54.839   0.2% |
 Orthonormalize:                    17.185     0.000   0.0% |
  calc_s_matrix:                     2.107     2.107   0.0% |
  inverse-cholesky:                  0.816     0.816   0.0% |
  projections:                      10.561    10.561   0.0% |
  rotate_psi_s:                      3.701     3.701   0.0% |
Set symmetry:                        0.001     0.001   0.0% |
Other:                               7.219     7.219   0.0% |
-----------------------------------------------------------
Total:                                     23525.222 100.0%

Date: Mon Apr 17 17:51:45 2023
