
  ___ ___ ___ _ _ _  
 |   |   |_  | | | | 
 | | | | | . | | | | 
 |__ |  _|___|_____|  22.8.0
 |___|_|             

User:   c.zeng@d0137
Date:   Sat Apr  8 15:42:01 2023
Arch:   x86_64
Pid:    96810
CWD:    /home/c.zeng/projects/hea-corrosion/hea-mlp/data-curation/volume/dft-jobs/87
Python: 3.8.1
gpaw:   /home/c.zeng/usr/installs/gpaw/source/gpaw-22.8.0/gpaw
_gpaw:  /home/c.zeng/usr/installs/gpaw/source/gpaw-22.8.0/
        _gpaw.cpython-38-x86_64-linux-gnu.so
ase:    /home/c.zeng/.local/lib/python3.8/site-packages/ase-3.22.1-py3.8.egg/ase (version 3.22.1)
numpy:  /shared/centos7/python/3.8.1/lib/python3.8/site-packages/numpy (version 1.17.4)
scipy:  /shared/centos7/python/3.8.1/lib/python3.8/site-packages/scipy (version 1.4.1)
libxc:  4.2.3
units:  Angstrom and eV
cores: 64
OpenMP: False
OMP_NUM_THREADS: 1

Input parameters:
  convergence: {energy: 0.0001}
  kpts: [2 2 2]
  maxiter: 666
  mode: {ecut: 350.0,
         name: pw}
  occupations: {fixmagmom: False,
                name: fermi-dirac,
                width: 0.1}
  spinpol: True
  xc: PBE

System changes: positions, numbers, cell, pbc, initial_charges, initial_magmoms 

Initialize ...

species:
  Fe:
    name: Iron
    id: 37abbd8d6c3c35915a9b583b742da910
    Z: 26.0
    valence: 8
    core: 18
    charge: 0.0
    file: /home/c.zeng/usr/data/gpaw-setups-0.9.20000/Fe.PBE.gz
    compensation charges: {type: gauss,
                           rc: 0.33,
                           lmax: 2}
    cutoffs: {filter: 2.06,
              core: 2.67}
    valence states:
      #              energy  rcut
      - 4s(2.00)    -5.291   1.164
      - 4p(0.00)    -1.326   1.058
      - 3d(6.00)    -7.505   1.058
      -  s          21.920   1.164
      -  p          25.885   1.058
      -  d          19.706   1.058
  
    # Using partial waves for Fe as LCAO basis

  Cr:
    name: Chromium
    id: 33f258bda2ca9f93018e70263a35547b
    Z: 24.0
    valence: 6
    core: 18
    charge: 0.0
    file: /home/c.zeng/usr/data/gpaw-setups-0.9.20000/Cr.PBE.gz
    compensation charges: {type: gauss,
                           rc: 0.35,
                           lmax: 2}
    cutoffs: {filter: 2.14,
              core: 3.04}
    valence states:
      #              energy  rcut
      - 4s(1.00)    -4.007   1.164
      - 4p(0.00)    -0.989   1.217
      - 3d(5.00)    -2.913   1.111
      -  s          23.205   1.164
      -  p          26.223   1.217
      -  d          24.299   1.111
  
    # Using partial waves for Cr as LCAO basis

  Ni:
    name: Nickel
    id: 0d9f38a9d6e76a2886f07bb4381f212b
    Z: 28.0
    valence: 16
    core: 12
    charge: 0.0
    file: /home/c.zeng/usr/data/gpaw-setups-0.9.20000/Ni.PBE.gz
    compensation charges: {type: gauss,
                           rc: 0.36,
                           lmax: 2}
    cutoffs: {filter: 2.14,
              core: 1.98}
    valence states:
      #              energy  rcut
      - 4s(2.00)    -5.642   1.164
      - 3p(6.00)   -71.394   1.207
      - 4p(0.00)    -1.226   1.207
      - 3d(8.00)    -8.875   1.138
      -  s          21.570   1.164
      -  d          18.337   1.138
  
    # Using partial waves for Ni as LCAO basis

  Al:
    name: Aluminium
    id: 0292cae29f5d6237e50f6abdd43a7bdd
    Z: 13.0
    valence: 3
    core: 10
    charge: 0.0
    file: /home/c.zeng/usr/data/gpaw-setups-0.9.20000/Al.PBE.gz
    compensation charges: {type: gauss,
                           rc: 0.34,
                           lmax: 2}
    cutoffs: {filter: 1.91,
              core: 2.36}
    valence states:
      #              energy  rcut
      - 3s(2.00)    -7.753   1.085
      - 3p(1.00)    -2.712   1.085
      -  s          19.459   1.085
      -  p          24.499   1.085
      -  d           0.000   1.085
  
    # Using partial waves for Al as LCAO basis

  Co:
    name: Cobalt
    id: 339d20d5b0b93d2de9531a1bee871d91
    Z: 27.0
    valence: 9
    core: 18
    charge: 0.0
    file: /home/c.zeng/usr/data/gpaw-setups-0.9.20000/Co.PBE.gz
    compensation charges: {type: gauss,
                           rc: 0.32,
                           lmax: 2}
    cutoffs: {filter: 1.87,
              core: 2.55}
    valence states:
      #              energy  rcut
      - 4s(2.00)    -5.469   1.005
      - 4p(0.00)    -1.277   1.058
      - 3d(7.00)    -8.205   1.005
      -  s          21.742   1.005
      -  p          25.934   1.058
      -  d          19.007   1.005
  
    # Using partial waves for Co as LCAO basis

Reference energy: -3382523.201499  # eV

Spin-polarized calculation.
Magnetic moment: 128.800000

Convergence criteria:
 Maximum [total energy] change in last 3 cyles: 0.0001 eV / electron
 Maximum integral of absolute [dens]ity change: 0.0001 electrons / valence electron
 Maximum integral of absolute [eigenst]ate change: 4e-08 eV^2 / valence electron
 Maximum number of scf [iter]ations: 666
 (Square brackets indicate name in SCF output, whereas a 'c' in
 the SCF output indicates the quantity has converged.)

Symmetries present (total): 1

  ( 1  0  0)
  ( 0  1  0)
  ( 0  0  1)

8 k-points: 2 x 2 x 2 Monkhorst-Pack grid
4 k-points in the irreducible part of the Brillouin zone
       k-points in crystal coordinates                weights
   0:     0.25000000   -0.25000000   -0.25000000          2/8
   1:     0.25000000   -0.25000000    0.25000000          2/8
   2:     0.25000000    0.25000000   -0.25000000          2/8
   3:     0.25000000    0.25000000    0.25000000          2/8

Wave functions: Plane wave expansion
  Cutoff energy: 350.000 eV
  Number of coefficients (min, max): 26661, 26661
  Pulay-stress correction: 0.000000 eV/Ang^3 (de/decut=0.000000)
  Using FFTW library
  ScaLapack parameters: grid=1x1, blocksize=None
  Wavefunction extrapolation:
    Improved wavefunction reuse through dual PAW basis 

Occupation numbers: Fermi-Dirac:
  width: 0.1000  # eV
 

Eigensolver
   Davidson(niter=2) 

Densities:
  Coarse grid: 54*54*54 grid
  Fine grid: 108*108*108 grid
  Total Charge: 0.000000 

Density mixing:
  Method: difference
  Backend: pulay
  Linear mixing parameter: 0.05
  old densities: 5
  Damping of long wavelength oscillations: 50 

Hamiltonian:
  XC and Coulomb potentials evaluated on a 108*108*108 grid
  Using the PBE Exchange-Correlation functional
  External potential:
    NoExternalPotential
 

XC parameters: PBE with 2 nearest neighbor stencil

Memory estimate:
  Process memory now: 196.83 MiB
  Calculator: 876.66 MiB
    Density: 7.29 MiB
      Arrays: 2.64 MiB
      Localized functions: 3.56 MiB
      Mixer: 1.09 MiB
    Hamiltonian: 2.07 MiB
      Arrays: 1.96 MiB
      XC: 0.00 MiB
      Poisson: 0.00 MiB
      vbar: 0.11 MiB
    Wavefunctions: 867.31 MiB
      Arrays psit_nG: 528.05 MiB
      Eigensolver: 330.35 MiB
      Projections: 2.31 MiB
      Projectors: 0.48 MiB
      PW-descriptor: 6.13 MiB

Total number of cores used: 64
Parallelization over k-points: 4
Domain decomposition: 4 x 2 x 2

Number of atoms: 108
Number of atomic orbitals: 961
Number of bands in calculation: 649
Number of valence electrons: 945
Bands to converge: occupied

... initialized

Initializing position-dependent things.

Density initialized from atomic densities
Creating initial wave functions:
  649 bands from LCAO basis set

        .-----------------------------.  
       /|                             |  
      / |                             |  
     /  |                             |  
    /  Fe        Al        Ni         |  
   /    |  Co        Cr        Co     |  
  / Fe  |   NiFe      Co Cr     Fe    |  
 *    NiCo      CrNi      AlFe        |  
 |Co    | CrFe     Co Al     Cr       |  
 |     Co        Cr        Fe         |  
 | Ni Co|  AlNi Cr   AlAl Ni   Cr     |  
 |  Cr Co   NiFe Fe   Ni NiNi   Cr    |  
 Fe   FeCo Fe   AlFe Co   AlCo        |  
 |Co    |   Al        Co              |  
 |     Cr Al     CrFe      CrCo       |  
 | Ni Co.--CrAl-Fe---FeNi-Co---Co-----.  
 |  Cr Cr   AlCr Ni   Fe FeNi   Ni   /   
 Ni   NiFe Fe   CrCo Cr   NiCo      /    
 |Cr /      Fe        Co           /     
 |  / Ni  Cr    Ni Fe     Ni Al   /      
 | /i        Co        Cr        /       
 |/    Cr        Al        Co   /        
 Fe--------Al--------Al--------*         

Positions:
   0 Fe     0.000000    0.000000    0.000000    ( 0.0000,  0.0000,  2.0000)
   1 Cr     0.000000    2.025004    2.025004    ( 0.0000,  0.0000,  0.0000)
   2 Ni     2.025004    0.000000    2.025004    ( 0.0000,  0.0000,  1.5000)
   3 Cr     2.025004    2.025004    0.000000    ( 0.0000,  0.0000,  0.0000)
   4 Al     4.049996    0.000000    0.000000    ( 0.0000,  0.0000,  0.0000)
   5 Fe     4.049996    2.025004    2.025004    ( 0.0000,  0.0000,  2.0000)
   6 Ni     6.075000    0.000000    2.025004    ( 0.0000,  0.0000,  1.5000)
   7 Al     6.075000    2.025004    0.000000    ( 0.0000,  0.0000,  0.0000)
   8 Al     8.100004    0.000000    0.000000    ( 0.0000,  0.0000,  0.0000)
   9 Co     8.100004    2.025004    2.025004    ( 0.0000,  0.0000,  2.1000)
  10 Ni    10.124996    0.000000    2.025004    ( 0.0000,  0.0000,  1.5000)
  11 Co    10.124996    2.025004    0.000000    ( 0.0000,  0.0000,  2.1000)
  12 Ni     0.000000    4.049996    0.000000    ( 0.0000,  0.0000,  1.5000)
  13 Cr     0.000000    6.075000    2.025004    ( 0.0000,  0.0000,  0.0000)
  14 Fe     2.025004    4.049996    2.025004    ( 0.0000,  0.0000,  2.0000)
  15 Cr     2.025004    6.075000    0.000000    ( 0.0000,  0.0000,  0.0000)
  16 Co     4.049996    4.049996    0.000000    ( 0.0000,  0.0000,  2.1000)
  17 Cr     4.049996    6.075000    2.025004    ( 0.0000,  0.0000,  0.0000)
  18 Co     6.075000    4.049996    2.025004    ( 0.0000,  0.0000,  2.1000)
  19 Fe     6.075000    6.075000    0.000000    ( 0.0000,  0.0000,  2.0000)
  20 Cr     8.100004    4.049996    0.000000    ( 0.0000,  0.0000,  0.0000)
  21 Fe     8.100004    6.075000    2.025004    ( 0.0000,  0.0000,  2.0000)
  22 Co    10.124996    4.049996    2.025004    ( 0.0000,  0.0000,  2.1000)
  23 Al    10.124996    6.075000    0.000000    ( 0.0000,  0.0000,  0.0000)
  24 Ni     0.000000    8.100004    0.000000    ( 0.0000,  0.0000,  1.5000)
  25 Cr     0.000000   10.124996    2.025004    ( 0.0000,  0.0000,  0.0000)
  26 Cr     2.025004    8.100004    2.025004    ( 0.0000,  0.0000,  0.0000)
  27 Al     2.025004   10.124996    0.000000    ( 0.0000,  0.0000,  0.0000)
  28 Cr     4.049996    8.100004    0.000000    ( 0.0000,  0.0000,  0.0000)
  29 Cr     4.049996   10.124996    2.025004    ( 0.0000,  0.0000,  0.0000)
  30 Fe     6.075000    8.100004    2.025004    ( 0.0000,  0.0000,  2.0000)
  31 Fe     6.075000   10.124996    0.000000    ( 0.0000,  0.0000,  2.0000)
  32 Ni     8.100004    8.100004    0.000000    ( 0.0000,  0.0000,  1.5000)
  33 Cr     8.100004   10.124996    2.025004    ( 0.0000,  0.0000,  0.0000)
  34 Co    10.124996    8.100004    2.025004    ( 0.0000,  0.0000,  2.1000)
  35 Ni    10.124996   10.124996    0.000000    ( 0.0000,  0.0000,  1.5000)
  36 Ni     0.000000    0.000000    4.049996    ( 0.0000,  0.0000,  1.5000)
  37 Co     0.000000    2.025004    6.075000    ( 0.0000,  0.0000,  2.1000)
  38 Co     2.025004    0.000000    6.075000    ( 0.0000,  0.0000,  2.1000)
  39 Cr     2.025004    2.025004    4.049996    ( 0.0000,  0.0000,  0.0000)
  40 Fe     4.049996    0.000000    4.049996    ( 0.0000,  0.0000,  2.0000)
  41 Al     4.049996    2.025004    6.075000    ( 0.0000,  0.0000,  0.0000)
  42 Fe     6.075000    0.000000    6.075000    ( 0.0000,  0.0000,  2.0000)
  43 Ni     6.075000    2.025004    4.049996    ( 0.0000,  0.0000,  1.5000)
  44 Cr     8.100004    0.000000    4.049996    ( 0.0000,  0.0000,  0.0000)
  45 Co     8.100004    2.025004    6.075000    ( 0.0000,  0.0000,  2.1000)
  46 Co    10.124996    0.000000    6.075000    ( 0.0000,  0.0000,  2.1000)
  47 Ni    10.124996    2.025004    4.049996    ( 0.0000,  0.0000,  1.5000)
  48 Ni     0.000000    4.049996    4.049996    ( 0.0000,  0.0000,  1.5000)
  49 Cr     0.000000    6.075000    6.075000    ( 0.0000,  0.0000,  0.0000)
  50 Co     2.025004    4.049996    6.075000    ( 0.0000,  0.0000,  2.1000)
  51 Al     2.025004    6.075000    4.049996    ( 0.0000,  0.0000,  0.0000)
  52 Al     4.049996    4.049996    4.049996    ( 0.0000,  0.0000,  0.0000)
  53 Fe     4.049996    6.075000    6.075000    ( 0.0000,  0.0000,  2.0000)
  54 Fe     6.075000    4.049996    6.075000    ( 0.0000,  0.0000,  2.0000)
  55 Fe     6.075000    6.075000    4.049996    ( 0.0000,  0.0000,  2.0000)
  56 Ni     8.100004    4.049996    4.049996    ( 0.0000,  0.0000,  1.5000)
  57 Ni     8.100004    6.075000    6.075000    ( 0.0000,  0.0000,  1.5000)
  58 Co    10.124996    4.049996    6.075000    ( 0.0000,  0.0000,  2.1000)
  59 Co    10.124996    6.075000    4.049996    ( 0.0000,  0.0000,  2.1000)
  60 Fe     0.000000    8.100004    4.049996    ( 0.0000,  0.0000,  2.0000)
  61 Co     0.000000   10.124996    6.075000    ( 0.0000,  0.0000,  2.1000)
  62 Al     2.025004    8.100004    6.075000    ( 0.0000,  0.0000,  0.0000)
  63 Ni     2.025004   10.124996    4.049996    ( 0.0000,  0.0000,  1.5000)
  64 Al     4.049996    8.100004    4.049996    ( 0.0000,  0.0000,  0.0000)
  65 Cr     4.049996   10.124996    6.075000    ( 0.0000,  0.0000,  0.0000)
  66 Al     6.075000    8.100004    6.075000    ( 0.0000,  0.0000,  0.0000)
  67 Ni     6.075000   10.124996    4.049996    ( 0.0000,  0.0000,  1.5000)
  68 Al     8.100004    8.100004    4.049996    ( 0.0000,  0.0000,  0.0000)
  69 Fe     8.100004   10.124996    6.075000    ( 0.0000,  0.0000,  2.0000)
  70 Cr    10.124996    8.100004    6.075000    ( 0.0000,  0.0000,  0.0000)
  71 Cr    10.124996   10.124996    4.049996    ( 0.0000,  0.0000,  0.0000)
  72 Fe     0.000000    0.000000    8.100004    ( 0.0000,  0.0000,  2.0000)
  73 Co     0.000000    2.025004   10.124996    ( 0.0000,  0.0000,  2.1000)
  74 Co     2.025004    0.000000   10.124996    ( 0.0000,  0.0000,  2.1000)
  75 Co     2.025004    2.025004    8.100004    ( 0.0000,  0.0000,  2.1000)
  76 Fe     4.049996    0.000000    8.100004    ( 0.0000,  0.0000,  2.0000)
  77 Fe     4.049996    2.025004   10.124996    ( 0.0000,  0.0000,  2.0000)
  78 Cr     6.075000    0.000000   10.124996    ( 0.0000,  0.0000,  0.0000)
  79 Fe     6.075000    2.025004    8.100004    ( 0.0000,  0.0000,  2.0000)
  80 Co     8.100004    0.000000    8.100004    ( 0.0000,  0.0000,  2.1000)
  81 Al     8.100004    2.025004   10.124996    ( 0.0000,  0.0000,  0.0000)
  82 Ni    10.124996    0.000000   10.124996    ( 0.0000,  0.0000,  1.5000)
  83 Ni    10.124996    2.025004    8.100004    ( 0.0000,  0.0000,  1.5000)
  84 Ni     0.000000    4.049996    8.100004    ( 0.0000,  0.0000,  1.5000)
  85 Fe     0.000000    6.075000   10.124996    ( 0.0000,  0.0000,  2.0000)
  86 Co     2.025004    4.049996   10.124996    ( 0.0000,  0.0000,  2.1000)
  87 Cr     2.025004    6.075000    8.100004    ( 0.0000,  0.0000,  0.0000)
  88 Ni     4.049996    4.049996    8.100004    ( 0.0000,  0.0000,  1.5000)
  89 Fe     4.049996    6.075000   10.124996    ( 0.0000,  0.0000,  2.0000)
  90 Ni     6.075000    4.049996   10.124996    ( 0.0000,  0.0000,  1.5000)
  91 Co     6.075000    6.075000    8.100004    ( 0.0000,  0.0000,  2.1000)
  92 Al     8.100004    4.049996    8.100004    ( 0.0000,  0.0000,  0.0000)
  93 Cr     8.100004    6.075000   10.124996    ( 0.0000,  0.0000,  0.0000)
  94 Fe    10.124996    4.049996   10.124996    ( 0.0000,  0.0000,  2.0000)
  95 Cr    10.124996    6.075000    8.100004    ( 0.0000,  0.0000,  0.0000)
  96 Ni     0.000000    8.100004    8.100004    ( 0.0000,  0.0000,  1.5000)
  97 Fe     0.000000   10.124996   10.124996    ( 0.0000,  0.0000,  2.0000)
  98 Co     2.025004    8.100004   10.124996    ( 0.0000,  0.0000,  2.1000)
  99 Ni     2.025004   10.124996    8.100004    ( 0.0000,  0.0000,  1.5000)
 100 Cr     4.049996    8.100004    8.100004    ( 0.0000,  0.0000,  0.0000)
 101 Al     4.049996   10.124996   10.124996    ( 0.0000,  0.0000,  0.0000)
 102 Cr     6.075000    8.100004   10.124996    ( 0.0000,  0.0000,  0.0000)
 103 Co     6.075000   10.124996    8.100004    ( 0.0000,  0.0000,  2.1000)
 104 Al     8.100004    8.100004    8.100004    ( 0.0000,  0.0000,  0.0000)
 105 Ni     8.100004   10.124996   10.124996    ( 0.0000,  0.0000,  1.5000)
 106 Co    10.124996    8.100004   10.124996    ( 0.0000,  0.0000,  2.1000)
 107 Fe    10.124996   10.124996    8.100004    ( 0.0000,  0.0000,  2.0000)

Unit cell:
           periodic     x           y           z      points  spacing
  1. axis:    yes   12.150000    0.000000    0.000000    54     0.2250
  2. axis:    yes    0.000000   12.150000    0.000000    54     0.2250
  3. axis:    yes    0.000000    0.000000   12.150000    54     0.2250

  Lengths:  12.150000  12.150000  12.150000
  Angles:   90.000000  90.000000  90.000000

Effective grid spacing dv^(1/3) = 0.2250

     iter     time        total  log10-change:  magmom
                         energy  eigst   dens
iter:   1 15:43:58 -1001.051136                  +129.0860
iter:   2 15:44:51  -859.610340  +0.09  -1.13    +67.1398
iter:   3 15:45:44  -872.872219  -0.38  -1.01    +73.7295
iter:   4 15:46:37  -777.690250  -1.06  -1.12    +68.4777
iter:   5 15:47:30  -764.610502  -1.62  -1.28    +69.6848
iter:   6 15:48:24  -768.862721  -1.68  -1.33    +80.0685
iter:   7 15:49:17  -770.812941  -1.35  -1.32    +85.5216
iter:   8 15:50:10  -762.671048  -1.57  -1.33    +88.9369
iter:   9 15:51:03  -766.981921  -1.38  -1.41    +91.5188
iter:  10 15:51:57  -763.961913  -1.57  -1.45    +91.9813
iter:  11 15:52:50  -768.255743  -1.54  -1.52    +89.8824
iter:  12 15:53:43  -762.013656  -1.65  -1.46    +89.9732
iter:  13 15:54:36  -762.572842  -1.85  -1.60    +88.6376
iter:  14 15:55:30  -760.108577  -2.01  -1.67    +88.0503
iter:  15 15:56:23  -760.720268  -2.37  -1.72    +85.7992
iter:  16 15:57:16  -762.333825  -2.52  -1.77    +84.6595
iter:  17 15:58:10  -764.642509  -2.38  -1.81    +83.2134
iter:  18 15:59:03  -764.425417  -2.57  -1.78    +81.4851
iter:  19 15:59:56  -765.902990  -2.57  -1.88    +79.6004
iter:  20 16:00:49  -766.517952  -2.60  -1.92    +79.1069
iter:  21 16:01:43  -767.385471  -2.71  -1.94    +78.5135
iter:  22 16:02:36  -767.590571  -2.71  -1.97    +77.1985
iter:  23 16:03:29  -768.215917  -2.78  -2.04    +77.3507
iter:  24 16:04:22  -768.503167  -2.84  -2.05    +76.7143
iter:  25 16:05:16  -768.618963  -3.05  -2.11    +76.2181
iter:  26 16:06:09  -769.394713  -2.89  -2.16    +75.6338
iter:  27 16:07:02  -769.254028  -3.23  -2.14    +75.4357
iter:  28 16:07:56  -769.707161  -3.16  -2.22    +75.1369
iter:  29 16:08:49  -770.064282  -3.13  -2.24    +74.7440
iter:  30 16:09:42  -770.180238  -3.31  -2.26    +74.6347
iter:  31 16:10:35  -770.381287  -3.26  -2.28    +74.3193
iter:  32 16:11:28  -770.876832  -2.94  -2.38    +74.2986
iter:  33 16:12:22  -770.501223  -3.33  -2.28    +74.3077
iter:  34 16:13:15  -770.608473  -3.53  -2.56    +74.2640
iter:  35 16:14:08  -770.643403  -3.56  -2.56    +74.4618
iter:  36 16:15:01  -770.613503c -3.87  -2.55    +74.6703
iter:  37 16:15:55  -770.619890c -4.13  -2.66    +74.7322
iter:  38 16:16:48  -770.622477c -4.21  -2.72    +74.8267
iter:  39 16:17:41  -770.625232c -4.22  -2.79    +74.8609
iter:  40 16:18:35  -770.618944c -4.41  -2.77    +74.8988
iter:  41 16:19:28  -770.629050c -4.31  -2.88    +74.9752
iter:  42 16:20:21  -770.613578c -4.34  -2.87    +75.0063
iter:  43 16:21:15  -770.614388c -4.52  -2.93    +74.9947
iter:  44 16:22:08  -770.607656c -4.77  -3.01    +75.0083
iter:  45 16:23:01  -770.616434c -4.60  -3.08    +75.0170
iter:  46 16:23:55  -770.607626c -4.75  -3.04    +75.0004
iter:  47 16:24:48  -770.609336c -4.74  -3.11    +74.9890
iter:  48 16:25:41  -770.608291c -5.06  -3.21    +74.9983
iter:  49 16:26:35  -770.605529c -4.99  -3.23    +74.9865
iter:  50 16:27:28  -770.607866c -5.14  -3.23    +74.9595
iter:  51 16:28:21  -770.607217c -5.36  -3.28    +74.9530
iter:  52 16:29:14  -770.609784c -5.28  -3.34    +74.9703
iter:  53 16:30:07  -770.606224c -5.17  -3.38    +74.9631
iter:  54 16:31:01  -770.607854c -5.24  -3.34    +74.9496
iter:  55 16:31:54  -770.607312c -5.41  -3.40    +74.9545
iter:  56 16:32:47  -770.606274c -5.32  -3.52    +74.9729
iter:  57 16:33:40  -770.606305c -5.57  -3.45    +74.9660
iter:  58 16:34:34  -770.605550c -5.89  -3.56    +74.9442
iter:  59 16:35:27  -770.608644c -5.69  -3.66    +74.9464
iter:  60 16:36:20  -770.606183c -6.02  -3.57    +74.9480
iter:  61 16:37:13  -770.605892c -6.14  -3.73    +74.9550
iter:  62 16:38:06  -770.606774c -6.07  -3.74    +74.9513
iter:  63 16:39:00  -770.605778c -6.04  -3.79    +74.9539
iter:  64 16:39:53  -770.606731c -6.15  -3.92    +74.9519
iter:  65 16:40:46  -770.605877c -6.22  -3.88    +74.9526
iter:  66 16:41:40  -770.606111c -6.46  -4.02c   +74.9530
iter:  67 16:42:33  -770.606032c -6.75  -4.10c   +74.9534
iter:  68 16:43:26  -770.606273c -6.75  -4.13c   +74.9554
iter:  69 16:44:19  -770.606014c -7.08  -4.17c   +74.9560
iter:  70 16:45:13  -770.606108c -6.85  -4.19c   +74.9570
iter:  71 16:46:06  -770.605762c -6.86  -4.24c   +74.9568
iter:  72 16:46:59  -770.606180c -6.91  -4.28c   +74.9551
iter:  73 16:47:52  -770.605941c -7.10  -4.31c   +74.9575
iter:  74 16:48:45  -770.606003c -7.43c -4.42c   +74.9558

Converged after 74 iterations.

Dipole moment: (-0.584993, -0.155114, 0.089191) |e|*Ang

Total magnetic moment: (0.000000, 0.000000, 74.955817)
Local magnetic moments:
   0 Fe ( 0.000000,  0.000000,  2.995294)
   1 Cr ( 0.000000,  0.000000, -3.300804)
   2 Ni ( 0.000000,  0.000000,  0.020118)
   3 Cr ( 0.000000,  0.000000, -3.323090)
   4 Al ( 0.000000,  0.000000, -0.002732)
   5 Fe ( 0.000000,  0.000000,  2.912434)
   6 Ni ( 0.000000,  0.000000,  0.370375)
   7 Al ( 0.000000,  0.000000, -0.009528)
   8 Al ( 0.000000,  0.000000, -0.022732)
   9 Co ( 0.000000,  0.000000,  1.831051)
  10 Ni ( 0.000000,  0.000000,  0.382386)
  11 Co ( 0.000000,  0.000000,  1.776683)
  12 Ni ( 0.000000,  0.000000,  0.394039)
  13 Cr ( 0.000000,  0.000000, -3.239910)
  14 Fe ( 0.000000,  0.000000,  2.764944)
  15 Cr ( 0.000000,  0.000000, -3.266691)
  16 Co ( 0.000000,  0.000000,  1.710590)
  17 Cr ( 0.000000,  0.000000, -3.170622)
  18 Co ( 0.000000,  0.000000,  1.717805)
  19 Fe ( 0.000000,  0.000000,  2.948530)
  20 Cr ( 0.000000,  0.000000, -3.275366)
  21 Fe ( 0.000000,  0.000000,  2.990359)
  22 Co ( 0.000000,  0.000000,  1.815635)
  23 Al ( 0.000000,  0.000000, -0.022020)
  24 Ni ( 0.000000,  0.000000,  0.319920)
  25 Cr ( 0.000000,  0.000000, -3.248707)
  26 Cr ( 0.000000,  0.000000,  3.020091)
  27 Al ( 0.000000,  0.000000, -0.005909)
  28 Cr ( 0.000000,  0.000000, -3.211031)
  29 Cr ( 0.000000,  0.000000, -3.275035)
  30 Fe ( 0.000000,  0.000000,  2.815666)
  31 Fe ( 0.000000,  0.000000,  2.732065)
  32 Ni ( 0.000000,  0.000000,  0.596266)
  33 Cr ( 0.000000,  0.000000,  3.147536)
  34 Co ( 0.000000,  0.000000,  1.708083)
  35 Ni ( 0.000000,  0.000000,  0.617748)
  36 Ni ( 0.000000,  0.000000,  0.466289)
  37 Co ( 0.000000,  0.000000,  1.995858)
  38 Co ( 0.000000,  0.000000,  1.807969)
  39 Cr ( 0.000000,  0.000000, -3.278604)
  40 Fe ( 0.000000,  0.000000,  3.010452)
  41 Al ( 0.000000,  0.000000, -0.033483)
  42 Fe ( 0.000000,  0.000000,  2.999157)
  43 Ni ( 0.000000,  0.000000,  0.578141)
  44 Cr ( 0.000000,  0.000000, -3.291588)
  45 Co ( 0.000000,  0.000000,  1.928329)
  46 Co ( 0.000000,  0.000000,  1.930910)
  47 Ni ( 0.000000,  0.000000,  0.699144)
  48 Ni ( 0.000000,  0.000000,  0.439611)
  49 Cr ( 0.000000,  0.000000,  3.142890)
  50 Co ( 0.000000,  0.000000,  1.647378)
  51 Al ( 0.000000,  0.000000, -0.026983)
  52 Al ( 0.000000,  0.000000, -0.024872)
  53 Fe ( 0.000000,  0.000000,  2.759517)
  54 Fe ( 0.000000,  0.000000,  2.988556)
  55 Fe ( 0.000000,  0.000000,  2.815765)
  56 Ni ( 0.000000,  0.000000,  0.766750)
  57 Ni ( 0.000000,  0.000000,  0.193250)
  58 Co ( 0.000000,  0.000000,  1.897588)
  59 Co ( 0.000000,  0.000000,  1.841660)
  60 Fe ( 0.000000,  0.000000,  2.894379)
  61 Co ( 0.000000,  0.000000,  1.896287)
  62 Al ( 0.000000,  0.000000, -0.021288)
  63 Ni ( 0.000000,  0.000000,  0.254312)
  64 Al ( 0.000000,  0.000000, -0.004150)
  65 Cr ( 0.000000,  0.000000, -3.237322)
  66 Al ( 0.000000,  0.000000, -0.030843)
  67 Ni ( 0.000000,  0.000000,  0.259624)
  68 Al ( 0.000000,  0.000000, -0.050056)
  69 Fe ( 0.000000,  0.000000,  2.886294)
  70 Cr ( 0.000000,  0.000000, -3.185114)
  71 Cr ( 0.000000,  0.000000,  3.112780)
  72 Fe ( 0.000000,  0.000000,  3.135964)
  73 Co ( 0.000000,  0.000000,  1.960972)
  74 Co ( 0.000000,  0.000000,  1.675969)
  75 Co ( 0.000000,  0.000000,  1.966654)
  76 Fe ( 0.000000,  0.000000,  2.949026)
  77 Fe ( 0.000000,  0.000000,  2.921342)
  78 Cr ( 0.000000,  0.000000, -3.163519)
  79 Fe ( 0.000000,  0.000000,  2.901143)
  80 Co ( 0.000000,  0.000000,  1.885250)
  81 Al ( 0.000000,  0.000000, -0.009535)
  82 Ni ( 0.000000,  0.000000,  0.629425)
  83 Ni ( 0.000000,  0.000000,  0.667479)
  84 Ni ( 0.000000,  0.000000,  0.639764)
  85 Fe ( 0.000000,  0.000000,  3.009399)
  86 Co ( 0.000000,  0.000000,  1.830650)
  87 Cr ( 0.000000,  0.000000, -3.254498)
  88 Ni ( 0.000000,  0.000000,  0.640881)
  89 Fe ( 0.000000,  0.000000,  2.983284)
  90 Ni ( 0.000000,  0.000000,  0.386277)
  91 Co ( 0.000000,  0.000000,  1.649890)
  92 Al ( 0.000000,  0.000000, -0.039756)
  93 Cr ( 0.000000,  0.000000,  3.137686)
  94 Fe ( 0.000000,  0.000000,  2.890959)
  95 Cr ( 0.000000,  0.000000, -3.206167)
  96 Ni ( 0.000000,  0.000000,  0.520864)
  97 Fe ( 0.000000,  0.000000,  3.103705)
  98 Co ( 0.000000,  0.000000,  1.577346)
  99 Ni ( 0.000000,  0.000000,  0.570537)
 100 Cr ( 0.000000,  0.000000,  3.085341)
 101 Al ( 0.000000,  0.000000, -0.008768)
 102 Cr ( 0.000000,  0.000000, -3.222338)
 103 Co ( 0.000000,  0.000000,  1.553835)
 104 Al ( 0.000000,  0.000000, -0.015311)
 105 Ni ( 0.000000,  0.000000,  0.508417)
 106 Co ( 0.000000,  0.000000,  1.771887)
 107 Fe ( 0.000000,  0.000000,  3.030812)

Energy contributions relative to reference atoms: (reference = -3382523.201499)

Kinetic:       -318.722119
Potential:     +200.038517
External:        +0.000000
XC:            -678.206158
Entropy (-ST):   -4.871906
Local:          +28.719710
--------------------------
Free energy:   -773.041956
Extrapolated:  -770.606003

Spin contamination: 68.073364 electrons
Showing only first 2 kpts
                      Up                     Down
 Kpt  Band  Eigenvalues  Occupancy  Eigenvalues  Occupancy
  0   470      5.11180    0.99982      6.27456    0.04619
  0   471      5.12611    0.99979      6.28213    0.04297
  0   472      5.13721    0.99976      6.29524    0.03789
  0   473      5.14648    0.99974      6.29944    0.03639

  1   470      5.11976    0.99980      6.27238    0.04716
  1   471      5.13642    0.99976      6.27952    0.04406
  1   472      5.14008    0.99976      6.28867    0.04036
  1   473      5.14762    0.99974      6.30537    0.03436


Fermi level: 5.97179

No gap

Forces in eV/Ang:
  0 Fe   -0.28043    0.28263   -0.26553
  1 Cr   -0.74459   -0.02800   -0.01311
  2 Ni    0.06494    0.05369   -0.04147
  3 Cr    0.10009    0.29450   -0.27457
  4 Al   -0.15224    0.16516    0.37928
  5 Fe    0.09916    0.26374    0.00379
  6 Ni   -0.06582    0.18355   -0.15097
  7 Al   -0.33618    0.61661    0.50786
  8 Al    0.72486   -0.46673    0.36167
  9 Co    0.15537    0.27304    0.17872
 10 Ni   -0.07629    0.18829   -0.17149
 11 Co    0.17175    0.10716    0.09519
 12 Ni   -0.04761   -0.05247   -0.12592
 13 Cr   -0.30637   -0.07383    0.42555
 14 Fe   -0.06811   -0.13962   -0.33787
 15 Cr   -0.45121   -0.38609   -0.72399
 16 Co   -0.00761    0.09876   -0.03056
 17 Cr    0.39316   -0.26392    0.16456
 18 Co    0.14850   -0.09042    0.12922
 19 Fe   -0.28123   -0.12603    0.39983
 20 Cr    0.07951    0.22795    0.19690
 21 Fe   -0.04980   -0.03646    0.14339
 22 Co   -0.18818   -0.18804    0.14870
 23 Al    0.17967    0.40811   -0.03265
 24 Ni   -0.07484    0.03045   -0.12798
 25 Cr   -0.25893    0.00333    0.20873
 26 Cr    0.25786   -0.13838   -0.42574
 27 Al   -0.68709   -0.05193   -0.09407
 28 Cr    0.11373   -0.01271   -0.18481
 29 Cr    0.25476    0.44895    0.62949
 30 Fe   -0.05368   -0.20641   -0.17719
 31 Fe    0.07320   -0.35384    0.01676
 32 Ni   -0.04179    0.06125    0.08789
 33 Cr    0.09926    0.17470   -0.19279
 34 Co    0.03100   -0.11815   -0.10378
 35 Ni    0.11543   -0.08756   -0.02175
 36 Ni   -0.02992    0.01121    0.15825
 37 Co   -0.07338    0.07754    0.13302
 38 Co   -0.19911    0.02890    0.15877
 39 Cr   -0.12971   -0.16410    0.13272
 40 Fe    0.06842   -0.15966   -0.14107
 41 Al   -0.01765   -0.08783    0.46717
 42 Fe    0.16699    0.09093    0.11164
 43 Ni   -0.07515    0.09972    0.00642
 44 Cr   -0.00095    0.11679    0.03185
 45 Co   -0.03601    0.07710    0.07653
 46 Co    0.10962    0.17818    0.18659
 47 Ni   -0.02235    0.05430    0.06405
 48 Ni   -0.04052   -0.02554    0.12062
 49 Cr   -0.10569   -0.37879    0.28262
 50 Co    0.07358   -0.22592    0.10725
 51 Al   -0.58679   -0.55513    0.10257
 52 Al    0.44286   -0.07908   -0.04743
 53 Fe    0.24629   -0.45582    0.02150
 54 Fe    0.27230    0.03659   -0.02292
 55 Fe    0.17031   -0.32443   -0.15776
 56 Ni    0.04224   -0.10165   -0.07665
 57 Ni   -0.00302    0.12037   -0.08265
 58 Co   -0.01541   -0.26020   -0.25117
 59 Co   -0.12784   -0.24659   -0.18298
 60 Fe   -0.32363    0.10412    0.08658
 61 Co    0.07899    0.28749    0.16986
 62 Al   -0.61826    0.58614    0.36785
 63 Ni   -0.11843    0.01119    0.11433
 64 Al    0.28937    0.39670   -0.25443
 65 Cr   -0.06810    0.51463    0.10954
 66 Al   -0.03950   -0.16505    0.25077
 67 Ni    0.05372   -0.27573    0.08843
 68 Al    0.13224   -0.20493   -0.29501
 69 Fe   -0.16444    0.51995    0.48375
 70 Cr    0.42847    0.35464   -0.42904
 71 Cr    0.30433    0.20770    0.03808
 72 Fe    0.11834    0.17056   -0.06547
 73 Co    0.02563    0.01879   -0.11670
 74 Co   -0.13880    0.01031   -0.16617
 75 Co   -0.21001    0.06189    0.09650
 76 Fe   -0.24340   -0.07221   -0.02307
 77 Fe   -0.39259    0.35426   -0.30305
 78 Cr    0.12767   -0.27026   -0.40929
 79 Fe   -0.02732   -0.12017   -0.24690
 80 Co   -0.00369   -0.18012   -0.25849
 81 Al    0.60065   -0.15046   -0.43763
 82 Ni    0.13226    0.05182   -0.05474
 83 Ni   -0.02609   -0.01672   -0.02523
 84 Ni   -0.00697   -0.22863    0.04921
 85 Fe    0.12365    0.09936   -0.13999
 86 Co   -0.02893   -0.25683   -0.08329
 87 Cr   -0.01355   -0.27678    0.21301
 88 Ni    0.04783   -0.02263    0.05404
 89 Fe    0.06071   -0.51207    0.17621
 90 Ni   -0.01949   -0.05328   -0.06579
 91 Co   -0.39091   -0.24768   -0.31726
 92 Al   -0.15250    0.13196   -0.43230
 93 Cr   -0.07182    0.16907   -0.01173
 94 Fe    0.73957   -0.58479    0.04968
 95 Cr    0.37240   -0.37561    0.37445
 96 Ni   -0.01280    0.15115    0.18853
 97 Fe   -0.11739   -0.23124   -0.18307
 98 Co   -0.25630   -0.09092    0.01600
 99 Ni   -0.13586    0.11202    0.00227
100 Cr   -0.05586    0.23220    0.17178
101 Al   -0.28088   -0.12379   -0.73706
102 Cr    0.44335   -0.11023   -0.16445
103 Co    0.44641    0.41373   -0.09525
104 Al   -0.00202    0.17217    0.33757
105 Ni    0.08933   -0.00462   -0.01395
106 Co    0.24685    0.36975    0.06551
107 Fe    0.04430    0.17910    0.04374

Timing:                              incl.     excl.
-----------------------------------------------------------
Forces:                             14.626    14.626   0.4% |
Hamiltonian:                         0.746     0.006   0.0% |
 Atomic:                             0.517     0.450   0.0% |
  XC Correction:                     0.067     0.067   0.0% |
 Calculate atomic Hamiltonians:      0.099     0.099   0.0% |
 Communicate:                        0.004     0.004   0.0% |
 Initialize Hamiltonian:             0.000     0.000   0.0% |
 Poisson:                            0.002     0.002   0.0% |
 XC 3D grid:                         0.118     0.118   0.0% |
LCAO initialization:                52.519     0.800   0.0% |
 LCAO eigensolver:                   3.712     0.004   0.0% |
  Calculate projections:             0.171     0.171   0.0% |
  DenseAtomicCorrection:             0.183     0.183   0.0% |
  Distribute overlap matrix:         0.443     0.443   0.0% |
  Orbital Layouts:                   1.875     1.875   0.0% |
  Potential matrix:                  0.935     0.935   0.0% |
  Sum over cells:                    0.101     0.101   0.0% |
 LCAO to grid:                      46.959    46.959   1.2% |
 Set positions (LCAO WFS):           1.046     0.496   0.0% |
  Basic WFS set positions:           0.003     0.003   0.0% |
  Basis functions set positions:     0.001     0.001   0.0% |
  P tci:                             0.255     0.255   0.0% |
  ST tci:                            0.095     0.095   0.0% |
  mktci:                             0.198     0.198   0.0% |
PWDescriptor:                        0.068     0.068   0.0% |
SCF-cycle:                        3948.626   205.270   5.1% |-|
 Davidson:                        3622.135  1153.203  28.7% |----------|
  Apply H:                          58.508    57.638   1.4% ||
   HMM T:                            0.870     0.870   0.0% |
  Subspace diag:                   351.268     0.024   0.0% |
   calc_h_matrix:                  142.322    83.703   2.1% ||
    Apply H:                        58.618    57.822   1.4% ||
     HMM T:                          0.796     0.796   0.0% |
   diagonalize:                     58.280    58.280   1.4% ||
   rotate_psi:                     150.642   150.642   3.7% ||
  calc. matrices:                  826.885   747.663  18.6% |------|
   Apply H:                         79.222    77.371   1.9% ||
    HMM T:                           1.852     1.852   0.0% |
  diagonalize:                     876.054   876.054  21.8% |--------|
  rotate_psi:                      356.215   356.215   8.9% |---|
 Density:                           62.708     0.001   0.0% |
  Atomic density matrices:           0.939     0.939   0.0% |
  Mix:                              31.388    31.388   0.8% |
  Multipole moments:                 0.024     0.024   0.0% |
  Pseudo density:                   30.355    30.352   0.8% |
   Symmetrize density:               0.003     0.003   0.0% |
 Hamiltonian:                       52.896     0.857   0.0% |
  Atomic:                           16.069    11.207   0.3% |
   XC Correction:                    4.862     4.862   0.1% |
  Calculate atomic Hamiltonians:    24.827    24.827   0.6% |
  Communicate:                       1.317     1.317   0.0% |
  Poisson:                           0.040     0.040   0.0% |
  XC 3D grid:                        9.786     9.786   0.2% |
 Orthonormalize:                     5.618     0.001   0.0% |
  calc_s_matrix:                     0.662     0.662   0.0% |
  inverse-cholesky:                  0.346     0.346   0.0% |
  projections:                       3.545     3.545   0.1% |
  rotate_psi_s:                      1.064     1.064   0.0% |
Set symmetry:                        0.001     0.001   0.0% |
Other:                               2.986     2.986   0.1% |
-----------------------------------------------------------
Total:                                      4019.571 100.0%

Date: Sat Apr  8 16:49:01 2023
