
  ___ ___ ___ _ _ _  
 |   |   |_  | | | | 
 | | | | | . | | | | 
 |__ |  _|___|_____|  22.8.0
 |___|_|             

User:   c.zeng@d0150
Date:   Sat Apr  8 00:34:38 2023
Arch:   x86_64
Pid:    114500
CWD:    /home/c.zeng/projects/hea-corrosion/hea-mlp/data-curation/volume/dft-jobs/112
Python: 3.8.1
gpaw:   /home/c.zeng/usr/installs/gpaw/source/gpaw-22.8.0/gpaw
_gpaw:  /home/c.zeng/usr/installs/gpaw/source/gpaw-22.8.0/
        _gpaw.cpython-38-x86_64-linux-gnu.so
ase:    /home/c.zeng/.local/lib/python3.8/site-packages/ase-3.22.1-py3.8.egg/ase (version 3.22.1)
numpy:  /shared/centos7/python/3.8.1/lib/python3.8/site-packages/numpy (version 1.17.4)
scipy:  /shared/centos7/python/3.8.1/lib/python3.8/site-packages/scipy (version 1.4.1)
libxc:  4.2.3
units:  Angstrom and eV
cores: 64
OpenMP: False
OMP_NUM_THREADS: 1

Input parameters:
  convergence: {energy: 0.0001}
  kpts: [2 2 2]
  maxiter: 666
  mode: {ecut: 350.0,
         name: pw}
  occupations: {fixmagmom: False,
                name: fermi-dirac,
                width: 0.1}
  spinpol: True
  xc: PBE

System changes: positions, numbers, cell, pbc, initial_charges, initial_magmoms 

Initialize ...

species:
  Fe:
    name: Iron
    id: 37abbd8d6c3c35915a9b583b742da910
    Z: 26.0
    valence: 8
    core: 18
    charge: 0.0
    file: /home/c.zeng/usr/data/gpaw-setups-0.9.20000/Fe.PBE.gz
    compensation charges: {type: gauss,
                           rc: 0.33,
                           lmax: 2}
    cutoffs: {filter: 2.06,
              core: 2.67}
    valence states:
      #              energy  rcut
      - 4s(2.00)    -5.291   1.164
      - 4p(0.00)    -1.326   1.058
      - 3d(6.00)    -7.505   1.058
      -  s          21.920   1.164
      -  p          25.885   1.058
      -  d          19.706   1.058
  
    # Using partial waves for Fe as LCAO basis

  Cr:
    name: Chromium
    id: 33f258bda2ca9f93018e70263a35547b
    Z: 24.0
    valence: 6
    core: 18
    charge: 0.0
    file: /home/c.zeng/usr/data/gpaw-setups-0.9.20000/Cr.PBE.gz
    compensation charges: {type: gauss,
                           rc: 0.35,
                           lmax: 2}
    cutoffs: {filter: 2.14,
              core: 3.04}
    valence states:
      #              energy  rcut
      - 4s(1.00)    -4.007   1.164
      - 4p(0.00)    -0.989   1.217
      - 3d(5.00)    -2.913   1.111
      -  s          23.205   1.164
      -  p          26.223   1.217
      -  d          24.299   1.111
  
    # Using partial waves for Cr as LCAO basis

  Ni:
    name: Nickel
    id: 0d9f38a9d6e76a2886f07bb4381f212b
    Z: 28.0
    valence: 16
    core: 12
    charge: 0.0
    file: /home/c.zeng/usr/data/gpaw-setups-0.9.20000/Ni.PBE.gz
    compensation charges: {type: gauss,
                           rc: 0.36,
                           lmax: 2}
    cutoffs: {filter: 2.14,
              core: 1.98}
    valence states:
      #              energy  rcut
      - 4s(2.00)    -5.642   1.164
      - 3p(6.00)   -71.394   1.207
      - 4p(0.00)    -1.226   1.207
      - 3d(8.00)    -8.875   1.138
      -  s          21.570   1.164
      -  d          18.337   1.138
  
    # Using partial waves for Ni as LCAO basis

  Al:
    name: Aluminium
    id: 0292cae29f5d6237e50f6abdd43a7bdd
    Z: 13.0
    valence: 3
    core: 10
    charge: 0.0
    file: /home/c.zeng/usr/data/gpaw-setups-0.9.20000/Al.PBE.gz
    compensation charges: {type: gauss,
                           rc: 0.34,
                           lmax: 2}
    cutoffs: {filter: 1.91,
              core: 2.36}
    valence states:
      #              energy  rcut
      - 3s(2.00)    -7.753   1.085
      - 3p(1.00)    -2.712   1.085
      -  s          19.459   1.085
      -  p          24.499   1.085
      -  d           0.000   1.085
  
    # Using partial waves for Al as LCAO basis

  Co:
    name: Cobalt
    id: 339d20d5b0b93d2de9531a1bee871d91
    Z: 27.0
    valence: 9
    core: 18
    charge: 0.0
    file: /home/c.zeng/usr/data/gpaw-setups-0.9.20000/Co.PBE.gz
    compensation charges: {type: gauss,
                           rc: 0.32,
                           lmax: 2}
    cutoffs: {filter: 1.87,
              core: 2.55}
    valence states:
      #              energy  rcut
      - 4s(2.00)    -5.469   1.005
      - 4p(0.00)    -1.277   1.058
      - 3d(7.00)    -8.205   1.005
      -  s          21.742   1.005
      -  p          25.934   1.058
      -  d          19.007   1.005
  
    # Using partial waves for Co as LCAO basis

Reference energy: -3382523.201499  # eV

Spin-polarized calculation.
Magnetic moment: 128.800000

Convergence criteria:
 Maximum [total energy] change in last 3 cyles: 0.0001 eV / electron
 Maximum integral of absolute [dens]ity change: 0.0001 electrons / valence electron
 Maximum integral of absolute [eigenst]ate change: 4e-08 eV^2 / valence electron
 Maximum number of scf [iter]ations: 666
 (Square brackets indicate name in SCF output, whereas a 'c' in
 the SCF output indicates the quantity has converged.)

Symmetries present (total): 1

  ( 1  0  0)
  ( 0  1  0)
  ( 0  0  1)

8 k-points: 2 x 2 x 2 Monkhorst-Pack grid
4 k-points in the irreducible part of the Brillouin zone
       k-points in crystal coordinates                weights
   0:     0.25000000   -0.25000000   -0.25000000          2/8
   1:     0.25000000   -0.25000000    0.25000000          2/8
   2:     0.25000000    0.25000000   -0.25000000          2/8
   3:     0.25000000    0.25000000    0.25000000          2/8

Wave functions: Plane wave expansion
  Cutoff energy: 350.000 eV
  Number of coefficients (min, max): 18865, 18865
  Pulay-stress correction: 0.000000 eV/Ang^3 (de/decut=0.000000)
  Using FFTW library
  ScaLapack parameters: grid=1x1, blocksize=None
  Wavefunction extrapolation:
    Improved wavefunction reuse through dual PAW basis 

Occupation numbers: Fermi-Dirac:
  width: 0.1000  # eV
 

Eigensolver
   Davidson(niter=2) 

Densities:
  Coarse grid: 48*48*48 grid
  Fine grid: 96*96*96 grid
  Total Charge: 0.000000 

Density mixing:
  Method: difference
  Backend: pulay
  Linear mixing parameter: 0.05
  old densities: 5
  Damping of long wavelength oscillations: 50 

Hamiltonian:
  XC and Coulomb potentials evaluated on a 96*96*96 grid
  Using the PBE Exchange-Correlation functional
  External potential:
    NoExternalPotential
 

XC parameters: PBE with 2 nearest neighbor stencil

Memory estimate:
  Process memory now: 170.64 MiB
  Calculator: 639.69 MiB
    Density: 5.10 MiB
      Arrays: 1.85 MiB
      Localized functions: 2.51 MiB
      Mixer: 0.74 MiB
    Hamiltonian: 1.45 MiB
      Arrays: 1.37 MiB
      XC: 0.00 MiB
      Poisson: 0.00 MiB
      vbar: 0.08 MiB
    Wavefunctions: 633.14 MiB
      Arrays psit_nG: 373.64 MiB
      Eigensolver: 252.55 MiB
      Projections: 2.31 MiB
      Projectors: 0.34 MiB
      PW-descriptor: 4.30 MiB

Total number of cores used: 64
Parallelization over k-points: 4
Domain decomposition: 4 x 2 x 2

Number of atoms: 108
Number of atomic orbitals: 961
Number of bands in calculation: 649
Number of valence electrons: 945
Bands to converge: occupied

... initialized

Initializing position-dependent things.

Density initialized from atomic densities
Creating initial wave functions:
  649 bands from LCAO basis set

        .--------------------------.  
       /|                     Ni   |  
      / |            Cr Ni     NiNi|  
     /  |       Al       Ni       Fe  
    /   |Cr       Fer     CAlo     |  
   /i   | Coi        Co      Fe    |  
  /  FeCr   CFe       Cr           |  
 *      Co     CrNi   FeAlFeFe   Ni|  
 |      |CrFe   CrCoAl   FeCrCo   Co  
 | NiCo | AlNi   FeAlAl     Cr     |  
 |     Co  NiFe Fe  Ni NiNi  CrCr  |  
 |      CoFe   AlFe   NiAlCoFe  Fe |  
 |Co    |AlAl   CrFeCo   CrCo     Cr  
 |      .-CrAl-----FeNi-CoAlCoNi---.  
 |     /   Al Cr    Fe FeNi    Cr /   
 |    Cr       CNio       Co     /    
 |   /  Fe         Cr       Ni  /     
 |  /      Fe       Co       Cr/      
 | / Ni     Co       Cr Ni    /       
 |/             Al       Co  /        
 *--------Al----------------*         

Positions:
   0 Fe    10.764147   10.861293   10.805330    ( 0.0000,  0.0000,  2.0000)
   1 Cr    10.786221    1.792513    1.813624    ( 0.0000,  0.0000,  0.0000)
   2 Ni     1.744156    0.036560    1.851269    ( 0.0000,  0.0000,  1.5000)
   3 Cr     1.736571    1.831142   10.798805    ( 0.0000,  0.0000,  0.0000)
   4 Al     3.575126    0.057318    0.061759    ( 0.0000,  0.0000,  0.0000)
   5 Fe     3.594289    1.817617    1.845577    ( 0.0000,  0.0000,  2.0000)
   6 Ni     5.429813   10.817005    1.865054    ( 0.0000,  0.0000,  1.5000)
   7 Al     5.429608    1.929425    0.057134    ( 0.0000,  0.0000,  0.0000)
   8 Al     7.316909   10.723332    0.087382    ( 0.0000,  0.0000,  0.0000)
   9 Co     7.263142    1.825786    1.869404    ( 0.0000,  0.0000,  2.1000)
  10 Ni     9.063554    0.025226    1.863474    ( 0.0000,  0.0000,  1.5000)
  11 Co     9.049217    1.829703    0.033106    ( 0.0000,  0.0000,  2.1000)
  12 Ni     0.004792    3.558981   10.794801    ( 0.0000,  0.0000,  1.5000)
  13 Cr    10.759710    5.390697    1.778165    ( 0.0000,  0.0000,  0.0000)
  14 Fe     1.733585    3.561849    1.761112    ( 0.0000,  0.0000,  2.0000)
  15 Cr     1.776899    5.391834   10.795505    ( 0.0000,  0.0000,  0.0000)
  16 Co     3.565452    3.619360   10.832619    ( 0.0000,  0.0000,  2.1000)
  17 Cr     3.633221    5.394614    1.719551    ( 0.0000,  0.0000,  0.0000)
  18 Co     5.471624    3.659114    1.836033    ( 0.0000,  0.0000,  2.1000)
  19 Fe     5.440212    5.373060   -0.002773    ( 0.0000,  0.0000,  2.0000)
  20 Cr     7.258997    3.609080    0.031294    ( 0.0000,  0.0000,  0.0000)
  21 Fe     7.268941    5.378362    1.785274    ( 0.0000,  0.0000,  2.0000)
  22 Co     9.030724    3.577636    1.833728    ( 0.0000,  0.0000,  2.1000)
  23 Al     9.040420    5.372281   10.801110    ( 0.0000,  0.0000,  0.0000)
  24 Ni    10.791663    7.196206   10.792486    ( 0.0000,  0.0000,  1.5000)
  25 Cr    10.758434    9.040387    1.848239    ( 0.0000,  0.0000,  0.0000)
  26 Cr     1.690487    7.202493    1.786032    ( 0.0000,  0.0000,  0.0000)
  27 Al     1.652691    8.981047    0.027217    ( 0.0000,  0.0000,  0.0000)
  28 Cr     3.631241    7.164437    0.034633    ( 0.0000,  0.0000,  0.0000)
  29 Cr     3.625452    9.063759    1.801678    ( 0.0000,  0.0000,  0.0000)
  30 Fe     5.490852    7.187095    1.746342    ( 0.0000,  0.0000,  2.0000)
  31 Fe     5.426935    8.989152    0.009861    ( 0.0000,  0.0000,  2.0000)
  32 Ni     7.229122    7.237075   -0.008698    ( 0.0000,  0.0000,  1.5000)
  33 Cr     7.249194    8.995850    1.810713    ( 0.0000,  0.0000,  0.0000)
  34 Co     9.052073    7.204300    1.764218    ( 0.0000,  0.0000,  2.1000)
  35 Ni     9.092553    8.989639   10.808760    ( 0.0000,  0.0000,  1.5000)
  36 Ni    -0.000975   10.826235    3.639789    ( 0.0000,  0.0000,  1.5000)
  37 Co    10.822772    1.771770    5.422044    ( 0.0000,  0.0000,  2.1000)
  38 Co     1.754263   10.802084    5.428872    ( 0.0000,  0.0000,  2.1000)
  39 Cr     1.741873    1.774270    3.610801    ( 0.0000,  0.0000,  0.0000)
  40 Fe     3.591183   10.794152    3.612143    ( 0.0000,  0.0000,  2.0000)
  41 Al     3.593088    1.736744    5.455177    ( 0.0000,  0.0000,  0.0000)
  42 Fe     5.437150   10.794563    5.400804    ( 0.0000,  0.0000,  2.0000)
  43 Ni     5.451931    1.783251    3.601387    ( 0.0000,  0.0000,  1.5000)
  44 Cr     7.226222    0.007781    3.626209    ( 0.0000,  0.0000,  0.0000)
  45 Co     7.236069    1.766512    5.381392    ( 0.0000,  0.0000,  2.1000)
  46 Co     9.034587   10.848850    5.403844    ( 0.0000,  0.0000,  2.1000)
  47 Ni     9.031558    1.804946    3.616730    ( 0.0000,  0.0000,  1.5000)
  48 Ni    10.773885    3.543973    3.617867    ( 0.0000,  0.0000,  1.5000)
  49 Cr    10.772186    5.358409    5.454917    ( 0.0000,  0.0000,  0.0000)
  50 Co     1.757531    3.575678    5.428937    ( 0.0000,  0.0000,  2.1000)
  51 Al     1.621766    5.386986    3.572550    ( 0.0000,  0.0000,  0.0000)
  52 Al     3.634303    3.633188    3.540792    ( 0.0000,  0.0000,  0.0000)
  53 Fe     3.550606    5.397969    5.404753    ( 0.0000,  0.0000,  2.0000)
  54 Fe     5.402221    3.610887    5.370193    ( 0.0000,  0.0000,  2.0000)
  55 Fe     5.460241    5.433590    3.575613    ( 0.0000,  0.0000,  2.0000)
  56 Ni     7.250157    3.615183    3.623169    ( 0.0000,  0.0000,  1.5000)
  57 Ni     7.248707    5.410715    5.362099    ( 0.0000,  0.0000,  1.5000)
  58 Co     9.058230    3.565236    5.380082    ( 0.0000,  0.0000,  2.1000)
  59 Co     9.074071    5.365323    3.589008    ( 0.0000,  0.0000,  2.1000)
  60 Fe    10.732086    7.267719    3.615162    ( 0.0000,  0.0000,  2.0000)
  61 Co    10.775779    9.094782    5.426621    ( 0.0000,  0.0000,  2.1000)
  62 Al     1.686775    7.280195    5.496868    ( 0.0000,  0.0000,  0.0000)
  63 Ni     1.734277    9.054854    3.595598    ( 0.0000,  0.0000,  1.5000)
  64 Al     3.592936    7.268141    3.470210    ( 0.0000,  0.0000,  0.0000)
  65 Cr     3.586606    9.093570    5.438989    ( 0.0000,  0.0000,  0.0000)
  66 Al     5.383004    7.229273    5.440602    ( 0.0000,  0.0000,  0.0000)
  67 Ni     5.438189    9.045072    3.590069    ( 0.0000,  0.0000,  1.5000)
  68 Al     7.326074    7.204776    3.545683    ( 0.0000,  0.0000,  0.0000)
  69 Fe     7.279632    9.072210    5.413107    ( 0.0000,  0.0000,  2.0000)
  70 Cr     9.092152    7.237465    5.436987    ( 0.0000,  0.0000,  0.0000)
  71 Cr     9.065675    9.066703    3.636153    ( 0.0000,  0.0000,  0.0000)
  72 Fe    10.809723   10.839544    7.207860    ( 0.0000,  0.0000,  2.0000)
  73 Co    10.806033    1.798562    8.996921    ( 0.0000,  0.0000,  2.1000)
  74 Co     1.743366    0.025229    8.997224    ( 0.0000,  0.0000,  2.1000)
  75 Co     1.767453    1.793054    7.239326    ( 0.0000,  0.0000,  2.1000)
  76 Fe     3.586833    0.005591    7.224978    ( 0.0000,  0.0000,  2.0000)
  77 Fe     3.553431    1.854828    8.998555    ( 0.0000,  0.0000,  2.0000)
  78 Cr     5.409460   10.815988    8.971428    ( 0.0000,  0.0000,  0.0000)
  79 Fe     5.421081    1.784279    7.188372    ( 0.0000,  0.0000,  2.0000)
  80 Co     7.245937   10.799746    7.160228    ( 0.0000,  0.0000,  2.1000)
  81 Al     7.320999    1.765083    8.948813    ( 0.0000,  0.0000,  0.0000)
  82 Ni     9.091124   10.807104    8.993610    ( 0.0000,  0.0000,  1.5000)
  83 Ni     9.075738    1.781649    7.163106    ( 0.0000,  0.0000,  1.5000)
  84 Ni    10.826451    3.561578    7.207611    ( 0.0000,  0.0000,  1.5000)
  85 Fe     0.036832    5.383155    8.996207    ( 0.0000,  0.0000,  2.0000)
  86 Co     1.771305    3.603573    9.016896    ( 0.0000,  0.0000,  2.1000)
  87 Cr     1.802046    5.346615    7.250741    ( 0.0000,  0.0000,  0.0000)
  88 Ni     3.593250    3.620096    7.230713    ( 0.0000,  0.0000,  1.5000)
  89 Fe     3.560215    5.391985    9.052268    ( 0.0000,  0.0000,  2.0000)
  90 Ni     5.376880    3.650263    8.987215    ( 0.0000,  0.0000,  1.5000)
  91 Co     5.354319    5.395567    7.215694    ( 0.0000,  0.0000,  2.1000)
  92 Al     7.220974    3.645372    7.098821    ( 0.0000,  0.0000,  0.0000)
  93 Cr     7.211073    5.388295    9.040181    ( 0.0000,  0.0000,  0.0000)
  94 Fe     9.095052    3.598119    8.980636    ( 0.0000,  0.0000,  2.0000)
  95 Cr     9.078205    5.402416    7.227759    ( 0.0000,  0.0000,  0.0000)
  96 Ni    10.763411    7.244682    7.260285    ( 0.0000,  0.0000,  1.5000)
  97 Fe    10.795093    9.034566    8.977574    ( 0.0000,  0.0000,  2.0000)
  98 Co     1.740045    7.178947    8.984662    ( 0.0000,  0.0000,  2.1000)
  99 Ni     1.734429    9.080207    7.236696    ( 0.0000,  0.0000,  1.5000)
 100 Cr     3.580482    7.154277    7.248285    ( 0.0000,  0.0000,  0.0000)
 101 Al     3.612835    8.970898    8.958086    ( 0.0000,  0.0000,  0.0000)
 102 Cr     5.410943    7.155878    9.067049    ( 0.0000,  0.0000,  0.0000)
 103 Co     5.466441    9.064062    7.220963    ( 0.0000,  0.0000,  2.1000)
 104 Al     7.307203    7.271549    7.289738    ( 0.0000,  0.0000,  0.0000)
 105 Ni     7.271073    9.044683    9.027879    ( 0.0000,  0.0000,  1.5000)
 106 Co     9.081743    7.219805    9.041166    ( 0.0000,  0.0000,  2.1000)
 107 Fe     9.063684    9.083009    7.213865    ( 0.0000,  0.0000,  2.0000)

Unit cell:
           periodic     x           y           z      points  spacing
  1. axis:    yes   10.820500    0.000000    0.000000    48     0.2254
  2. axis:    yes    0.000000   10.820500    0.000000    48     0.2254
  3. axis:    yes    0.000000    0.000000   10.820500    48     0.2254

  Lengths:  10.820500  10.820500  10.820500
  Angles:   90.000000  90.000000  90.000000

Effective grid spacing dv^(1/3) = 0.2254

     iter     time        total  log10-change:  magmom
                         energy  eigst   dens
iter:   1 00:37:00  -996.853464                  +129.0863
iter:   2 00:38:08  -888.901047  -0.19  -1.18    +70.8549
iter:   3 00:39:13  -876.062893  -0.82  -1.19    +61.2234
iter:   4 00:40:19  -851.788980  -1.23  -1.26    +57.0189
iter:   5 00:41:24  -843.645101  -1.55  -1.30    +54.8554
iter:   6 00:42:33  -844.609325  -1.33  -1.35    +55.5244
iter:   7 00:43:38  -834.908318  -1.30  -1.39    +54.2147
iter:   8 00:44:45  -828.008045  -1.64  -1.53    +54.1038
iter:   9 00:45:52  -827.449859  -1.86  -1.66    +55.6110
iter:  10 00:46:58  -824.997954  -2.41  -1.72    +56.4656
iter:  11 00:48:06  -825.451662  -2.49  -1.80    +59.0761
iter:  12 00:49:13  -827.060385  -2.41  -1.86    +60.4105
iter:  13 00:50:20  -826.482195  -2.43  -1.86    +61.1724
iter:  14 00:51:26  -826.753014  -2.49  -1.93    +62.4898
iter:  15 00:52:35  -826.575318  -2.66  -1.96    +62.9153
iter:  16 00:53:42  -826.208447  -2.90  -2.02    +63.1050
iter:  17 00:54:49  -826.742567  -2.93  -2.08    +64.0796
iter:  18 00:55:55  -826.207709  -3.06  -2.06    +64.1024
iter:  19 00:57:03  -826.315280  -3.03  -2.19    +64.2775
iter:  20 00:58:11  -826.502922  -3.00  -2.24    +64.4879
iter:  21 00:59:18  -826.239864  -3.21  -2.25    +64.7854
iter:  22 01:00:23  -826.301791  -3.36  -2.37    +64.9356
iter:  23 01:01:29  -826.233213c -3.52  -2.39    +65.0262
iter:  24 01:02:34  -826.275492c -3.63  -2.49    +65.1936
iter:  25 01:03:40  -826.324646c -3.68  -2.51    +65.2334
iter:  26 01:04:45  -826.345152c -3.81  -2.55    +65.3650
iter:  27 01:05:51  -826.354600c -3.96  -2.54    +65.3781
iter:  28 01:06:58  -826.394459c -3.93  -2.60    +65.3023
iter:  29 01:08:05  -826.417461c -4.19  -2.63    +65.3916
iter:  30 01:09:12  -826.450966c -4.03  -2.67    +65.3455
iter:  31 01:10:19  -826.477730c -4.10  -2.70    +65.3240
iter:  32 01:11:27  -826.496898c -4.28  -2.74    +65.4494
iter:  33 01:12:35  -826.509409c -4.23  -2.75    +65.4292
iter:  34 01:13:41  -826.526094c -4.43  -2.80    +65.3517
iter:  35 01:14:48  -826.550929c -4.38  -2.85    +65.4088
iter:  36 01:15:54  -826.559982c -4.50  -2.86    +65.3642
iter:  37 01:16:59  -826.586130c -4.42  -2.91    +65.3053
iter:  38 01:18:08  -826.599124c -4.44  -2.95    +65.3401
iter:  39 01:19:15  -826.605563c -4.62  -2.95    +65.2876
iter:  40 01:20:20  -826.616389c -4.56  -3.00    +65.2385
iter:  41 01:21:25  -826.624188c -4.83  -3.06    +65.2420
iter:  42 01:22:32  -826.632180c -4.77  -3.09    +65.2122
iter:  43 01:23:40  -826.649993c -4.62  -3.13    +65.2047
iter:  44 01:24:46  -826.659002c -4.59  -3.14    +65.1999
iter:  45 01:25:54  -826.660419c -4.95  -3.18    +65.1784
iter:  46 01:27:01  -826.663335c -5.11  -3.21    +65.1721
iter:  47 01:28:07  -826.668584c -5.10  -3.26    +65.1374
iter:  48 01:29:14  -826.666876c -5.17  -3.28    +65.1433
iter:  49 01:30:21  -826.669368c -5.31  -3.32    +65.1291
iter:  50 01:31:28  -826.671094c -5.37  -3.37    +65.1156
iter:  51 01:32:34  -826.671473c -5.58  -3.37    +65.1089
iter:  52 01:33:43  -826.672876c -5.53  -3.41    +65.1096
iter:  53 01:34:48  -826.675023c -5.45  -3.46    +65.0872
iter:  54 01:35:57  -826.675258c -5.66  -3.49    +65.0817
iter:  55 01:37:03  -826.676935c -5.73  -3.52    +65.0715
iter:  56 01:38:12  -826.678617c -5.64  -3.55    +65.0584
iter:  57 01:39:20  -826.679475c -5.73  -3.57    +65.0488
iter:  58 01:40:27  -826.680557c -5.66  -3.58    +65.0372
iter:  59 01:41:33  -826.681356c -5.78  -3.67    +65.0208
iter:  60 01:42:39  -826.682544c -5.94  -3.75    +64.9997
iter:  61 01:43:46  -826.683300c -6.11  -3.77    +64.9885
iter:  62 01:44:52  -826.685655c -5.66  -3.81    +64.9408
iter:  63 01:45:59  -826.685757c -6.08  -3.80    +64.9480
iter:  64 01:47:06  -826.686924c -5.91  -3.84    +64.9307
iter:  65 01:48:12  -826.687791c -6.04  -3.86    +64.8968
iter:  66 01:49:20  -826.689289c -5.81  -3.97    +64.8568
iter:  67 01:50:28  -826.690651c -5.92  -3.96    +64.8289
iter:  68 01:51:35  -826.692838c -5.65  -3.96    +64.7900
iter:  69 01:52:44  -826.703625c -4.38  -3.89    +64.6014
iter:  70 01:53:51  -826.705871c -4.92  -3.66    +64.5515
iter:  71 01:54:57  -826.706899c -5.37  -3.58    +64.5581
iter:  72 01:56:03  -826.708503c -5.74  -3.58    +64.5447
iter:  73 01:57:11  -826.709174c -6.06  -3.51    +64.5460
iter:  74 01:58:18  -826.708165c -5.78  -3.50    +64.5361
iter:  75 01:59:25  -826.711037c -5.11  -3.51    +64.5221
iter:  76 02:00:32  -826.708749c -5.17  -3.34    +64.4909
iter:  77 02:01:40  -826.710998c -4.85  -3.45    +64.4715
iter:  78 02:02:49  -826.706427c -5.17  -3.31    +64.4852
iter:  79 02:03:55  -826.704201c -5.65  -3.52    +64.4331
iter:  80 02:05:02  -826.704121c -5.81  -3.75    +64.4159
iter:  81 02:06:10  -826.704498c -5.93  -3.69    +64.4095
iter:  82 02:07:16  -826.704122c -6.12  -3.71    +64.4191
iter:  83 02:08:21  -826.705135c -5.91  -3.78    +64.4072
iter:  84 02:09:27  -826.704631c -6.02  -3.75    +64.4029
iter:  85 02:10:36  -826.704060c -5.99  -3.79    +64.4116
iter:  86 02:11:42  -826.704595c -6.19  -3.83    +64.4048
iter:  87 02:12:48  -826.704338c -6.27  -3.88    +64.4035
iter:  88 02:13:56  -826.704510c -6.35  -3.92    +64.3972
iter:  89 02:15:03  -826.704228c -6.54  -3.93    +64.4023
iter:  90 02:16:09  -826.704399c -6.61  -4.00    +64.4051
iter:  91 02:17:16  -826.704733c -6.71  -4.03c   +64.4047
iter:  92 02:18:22  -826.704588c -6.89  -4.02c   +64.4081
iter:  93 02:19:29  -826.704787c -6.79  -4.07c   +64.4103
iter:  94 02:20:35  -826.704774c -6.58  -4.07c   +64.4135
iter:  95 02:21:43  -826.704935c -6.74  -4.03c   +64.4082
iter:  96 02:22:49  -826.705042c -6.45  -4.14c   +64.4068
iter:  97 02:23:56  -826.704899c -6.39  -4.05c   +64.4095
iter:  98 02:25:03  -826.705168c -6.50  -4.08c   +64.4060
iter:  99 02:26:11  -826.705130c -6.58  -4.22c   +64.4044
iter: 100 02:27:20  -826.705410c -6.74  -4.21c   +64.4032
iter: 101 02:28:25  -826.705339c -6.84  -4.27c   +64.4081
iter: 102 02:29:33  -826.705473c -6.87  -4.38c   +64.4074
iter: 103 02:30:41  -826.705408c -7.00  -4.39c   +64.4066
iter: 104 02:31:47  -826.705777c -6.71  -4.21c   +64.4076
iter: 105 02:32:55  -826.705770c -6.74  -4.25c   +64.4062
iter: 106 02:34:01  -826.706087c -6.81  -4.27c   +64.4062
iter: 107 02:35:08  -826.705975c -6.83  -4.25c   +64.4085
iter: 108 02:36:14  -826.706194c -6.72  -4.33c   +64.4068
iter: 109 02:37:24  -826.706025c -6.76  -4.20c   +64.4066
iter: 110 02:38:31  -826.706413c -6.57  -4.16c   +64.4022
iter: 111 02:39:38  -826.706365c -6.71  -4.24c   +64.3987
iter: 112 02:40:44  -826.706724c -6.76  -4.25c   +64.3966
iter: 113 02:41:51  -826.706642c -7.06  -4.22c   +64.3971
iter: 114 02:42:56  -826.706870c -6.63  -4.36c   +64.3931
iter: 115 02:44:05  -826.706336c -6.10  -4.21c   +64.4051
iter: 116 02:45:13  -826.706627c -6.92  -4.37c   +64.4019
iter: 117 02:46:21  -826.706545c -7.04  -4.37c   +64.4011
iter: 118 02:47:26  -826.706760c -7.03  -4.37c   +64.4007
iter: 119 02:48:35  -826.706986c -6.73  -4.57c   +64.4046
iter: 120 02:49:43  -826.707028c -6.92  -4.55c   +64.4051
iter: 121 02:50:50  -826.707069c -7.22  -4.33c   +64.4071
iter: 122 02:51:56  -826.707286c -6.79  -4.32c   +64.4000
iter: 123 02:53:02  -826.707296c -7.08  -4.28c   +64.3982
iter: 124 02:54:12  -826.707558c -6.78  -4.28c   +64.3961
iter: 125 02:55:19  -826.707908c -6.39  -4.30c   +64.3889
iter: 126 02:56:26  -826.707688c -6.89  -4.14c   +64.3919
iter: 127 02:57:33  -826.707848c -6.72  -4.33c   +64.3838
iter: 128 02:58:40  -826.707991c -6.89  -4.62c   +64.3873
iter: 129 02:59:48  -826.708231c -6.71  -4.69c   +64.3896
iter: 130 03:00:57  -826.708335c -6.94  -4.67c   +64.3899
iter: 131 03:02:05  -826.708385c -7.25  -4.68c   +64.3905
iter: 132 03:03:12  -826.708529c -6.79  -4.68c   +64.3881
iter: 133 03:04:18  -826.707506c -5.39  -4.56c   +64.3979
iter: 134 03:05:26  -826.706423c -5.10  -4.56c   +64.4019
iter: 135 03:06:36  -826.705115c -4.77  -4.21c   +64.3991
iter: 136 03:07:43  -826.703804c -4.23  -3.93    +64.3876
iter: 137 03:08:49  -826.703961c -5.44  -3.66    +64.3898
iter: 138 03:09:57  -826.703895c -5.92  -3.70    +64.3867
iter: 139 03:11:02  -826.703674c -5.92  -3.71    +64.3831
iter: 140 03:12:09  -826.703034c -6.20  -3.73    +64.3827
iter: 141 03:13:18  -826.706038c -5.53  -3.74    +64.3842
iter: 142 03:14:25  -826.705192c -5.67  -3.50    +64.3887
iter: 143 03:15:31  -826.708405c -5.55  -3.59    +64.4620
iter: 144 03:16:40  -826.706075c -5.35  -3.47    +64.4613
iter: 145 03:17:48  -826.704050c -5.46  -3.55    +64.5077
iter: 146 03:18:56  -826.704982c -5.24  -3.62    +64.5163
iter: 147 03:20:04  -826.703182c -5.67  -3.60    +64.4931
iter: 148 03:21:13  -826.703234c -5.81  -3.87    +64.4810
iter: 149 03:22:23  -826.702775c -6.23  -3.85    +64.4884
iter: 150 03:23:32  -826.702609c -6.25  -3.99    +64.4872
iter: 151 03:24:41  -826.702803c -6.39  -4.06c   +64.4735
iter: 152 03:25:49  -826.702753c -6.68  -4.15c   +64.4707
iter: 153 03:26:56  -826.702743c -6.78  -4.27c   +64.4790
iter: 154 03:28:03  -826.702759c -6.60  -4.35c   +64.4762
iter: 155 03:29:09  -826.702821c -6.85  -4.20c   +64.4707
iter: 156 03:30:09  -826.702843c -6.91  -4.43c   +64.4674
iter: 157 03:31:15  -826.702819c -7.13  -4.50c   +64.4683
iter: 158 03:32:24  -826.702911c -7.05  -4.51c   +64.4663
iter: 159 03:33:31  -826.702955c -7.22  -4.65c   +64.4623
iter: 160 03:34:39  -826.703015c -7.38  -4.71c   +64.4605
iter: 161 03:35:47  -826.703093c -7.05  -4.79c   +64.4604
iter: 162 03:36:56  -826.702986c -7.12  -4.81c   +64.4627
iter: 163 03:38:01  -826.702543c -5.83  -4.83c   +64.4656
iter: 164 03:39:10  -826.702154c -5.68  -4.57c   +64.4692
iter: 165 03:40:15  -826.701217c -4.39  -4.32c   +64.4976
iter: 166 03:41:25  -826.701215c -5.27  -3.79    +64.5045
iter: 167 03:42:33  -826.701165c -5.86  -3.77    +64.5123
iter: 168 03:43:42  -826.701038c -6.06  -3.77    +64.5312
iter: 169 03:44:48  -826.700942c -6.49  -3.76    +64.5367
iter: 170 03:45:58  -826.701652c -5.70  -3.76    +64.5368
iter: 171 03:47:03  -826.700778c -5.54  -3.59    +64.5371
iter: 172 03:48:10  -826.700323c -5.80  -3.65    +64.5643
iter: 173 03:49:17  -826.699911c -5.74  -3.78    +64.5562
iter: 174 03:50:24  -826.700221c -6.03  -3.81    +64.5543
iter: 175 03:51:34  -826.699910c -6.48  -3.89    +64.5677
iter: 176 03:52:42  -826.700198c -6.30  -4.01c   +64.5680
iter: 177 03:53:48  -826.699801c -6.40  -3.93    +64.5631
iter: 178 03:54:57  -826.699921c -6.32  -4.05c   +64.5665
iter: 179 03:56:06  -826.700135c -6.34  -4.01c   +64.5704
iter: 180 03:57:14  -826.699804c -6.41  -4.11c   +64.5664
iter: 181 03:58:21  -826.699906c -6.59  -4.08c   +64.5629
iter: 182 03:59:29  -826.699857c -6.74  -4.21c   +64.5660
iter: 183 04:00:37  -826.699874c -7.17  -4.24c   +64.5676
iter: 184 04:01:44  -826.699860c -7.21  -4.39c   +64.5656
iter: 185 04:02:53  -826.699805c -7.31  -4.43c   +64.5667
iter: 186 04:04:01  -826.699947c -7.34  -4.43c   +64.5681
iter: 187 04:05:08  -826.699901c -7.29  -4.45c   +64.5670
iter: 188 04:06:15  -826.700019c -7.13  -4.47c   +64.5663
iter: 189 04:07:22  -826.699913c -7.16  -4.41c   +64.5664
iter: 190 04:08:29  -826.699961c -7.23  -4.55c   +64.5682
iter: 191 04:09:39  -826.700030c -7.39  -4.49c   +64.5687
iter: 192 04:10:46  -826.699935c -7.36  -4.65c   +64.5652
iter: 193 04:11:55  -826.699964c -7.87c -4.61c   +64.5660

Converged after 193 iterations.

Dipole moment: (27.529252, -2.558581, -8.721388) |e|*Ang

Total magnetic moment: (0.000000, 0.000000, 64.565985)
Local magnetic moments:
   0 Fe ( 0.000000,  0.000000,  2.167068)
   1 Cr ( 0.000000,  0.000000,  1.388789)
   2 Ni ( 0.000000,  0.000000, -0.009045)
   3 Cr ( 0.000000,  0.000000, -1.883136)
   4 Al ( 0.000000,  0.000000, -0.013470)
   5 Fe ( 0.000000,  0.000000,  2.197547)
   6 Ni ( 0.000000,  0.000000,  0.175384)
   7 Al ( 0.000000,  0.000000, -0.017852)
   8 Al ( 0.000000,  0.000000, -0.014618)
   9 Co ( 0.000000,  0.000000,  1.422436)
  10 Ni ( 0.000000,  0.000000,  0.198990)
  11 Co ( 0.000000,  0.000000,  1.111201)
  12 Ni ( 0.000000,  0.000000,  0.245692)
  13 Cr ( 0.000000,  0.000000,  1.181503)
  14 Fe ( 0.000000,  0.000000,  1.483131)
  15 Cr ( 0.000000,  0.000000, -1.575889)
  16 Co ( 0.000000,  0.000000,  0.750645)
  17 Cr ( 0.000000,  0.000000,  0.375831)
  18 Co ( 0.000000,  0.000000,  1.070952)
  19 Fe ( 0.000000,  0.000000,  1.825867)
  20 Cr ( 0.000000,  0.000000, -1.983883)
  21 Fe ( 0.000000,  0.000000,  2.342504)
  22 Co ( 0.000000,  0.000000,  1.048338)
  23 Al ( 0.000000,  0.000000, -0.028355)
  24 Ni ( 0.000000,  0.000000,  0.207833)
  25 Cr ( 0.000000,  0.000000,  0.054305)
  26 Cr ( 0.000000,  0.000000,  0.080739)
  27 Al ( 0.000000,  0.000000, -0.017133)
  28 Cr ( 0.000000,  0.000000, -0.730623)
  29 Cr ( 0.000000,  0.000000, -1.878792)
  30 Fe ( 0.000000,  0.000000,  1.727439)
  31 Fe ( 0.000000,  0.000000,  1.584668)
  32 Ni ( 0.000000,  0.000000,  0.258416)
  33 Cr ( 0.000000,  0.000000,  1.546983)
  34 Co ( 0.000000,  0.000000,  0.939159)
  35 Ni ( 0.000000,  0.000000,  0.342584)
  36 Ni ( 0.000000,  0.000000,  0.169782)
  37 Co ( 0.000000,  0.000000,  1.560160)
  38 Co ( 0.000000,  0.000000,  1.254776)
  39 Cr ( 0.000000,  0.000000, -1.884345)
  40 Fe ( 0.000000,  0.000000,  2.186135)
  41 Al ( 0.000000,  0.000000, -0.039356)
  42 Fe ( 0.000000,  0.000000,  2.242340)
  43 Ni ( 0.000000,  0.000000,  0.394440)
  44 Cr ( 0.000000,  0.000000, -1.687093)
  45 Co ( 0.000000,  0.000000,  1.495793)
  46 Co ( 0.000000,  0.000000,  1.298140)
  47 Ni ( 0.000000,  0.000000,  0.419747)
  48 Ni ( 0.000000,  0.000000,  0.291877)
  49 Cr ( 0.000000,  0.000000,  1.522920)
  50 Co ( 0.000000,  0.000000,  0.981553)
  51 Al ( 0.000000,  0.000000, -0.028574)
  52 Al ( 0.000000,  0.000000, -0.039481)
  53 Fe ( 0.000000,  0.000000,  2.066190)
  54 Fe ( 0.000000,  0.000000,  2.384748)
  55 Fe ( 0.000000,  0.000000,  2.210799)
  56 Ni ( 0.000000,  0.000000,  0.550582)
  57 Ni ( 0.000000,  0.000000,  0.179855)
  58 Co ( 0.000000,  0.000000,  1.212168)
  59 Co ( 0.000000,  0.000000,  0.856370)
  60 Fe ( 0.000000,  0.000000,  1.388267)
  61 Co ( 0.000000,  0.000000,  1.229387)
  62 Al ( 0.000000,  0.000000, -0.014602)
  63 Ni ( 0.000000,  0.000000,  0.004152)
  64 Al ( 0.000000,  0.000000, -0.013373)
  65 Cr ( 0.000000,  0.000000, -1.933002)
  66 Al ( 0.000000,  0.000000, -0.023125)
  67 Ni ( 0.000000,  0.000000,  0.062096)
  68 Al ( 0.000000,  0.000000, -0.033979)
  69 Fe ( 0.000000,  0.000000,  2.019453)
  70 Cr ( 0.000000,  0.000000, -0.835512)
  71 Cr ( 0.000000,  0.000000, -0.964922)
  72 Fe ( 0.000000,  0.000000,  2.452075)
  73 Co ( 0.000000,  0.000000,  1.504964)
  74 Co ( 0.000000,  0.000000,  1.077050)
  75 Co ( 0.000000,  0.000000,  1.579192)
  76 Fe ( 0.000000,  0.000000,  2.285038)
  77 Fe ( 0.000000,  0.000000,  2.361633)
  78 Cr ( 0.000000,  0.000000, -1.976255)
  79 Fe ( 0.000000,  0.000000,  2.283972)
  80 Co ( 0.000000,  0.000000,  1.309563)
  81 Al ( 0.000000,  0.000000, -0.018245)
  82 Ni ( 0.000000,  0.000000,  0.403333)
  83 Ni ( 0.000000,  0.000000,  0.508752)
  84 Ni ( 0.000000,  0.000000,  0.370547)
  85 Fe ( 0.000000,  0.000000,  2.191612)
  86 Co ( 0.000000,  0.000000,  1.220288)
  87 Cr ( 0.000000,  0.000000, -1.773665)
  88 Ni ( 0.000000,  0.000000,  0.434825)
  89 Fe ( 0.000000,  0.000000,  2.114635)
  90 Ni ( 0.000000,  0.000000,  0.195491)
  91 Co ( 0.000000,  0.000000,  0.851206)
  92 Al ( 0.000000,  0.000000, -0.042009)
  93 Cr ( 0.000000,  0.000000,  1.691130)
  94 Fe ( 0.000000,  0.000000,  2.122129)
  95 Cr ( 0.000000,  0.000000, -1.434559)
  96 Ni ( 0.000000,  0.000000,  0.224101)
  97 Fe ( 0.000000,  0.000000,  2.424122)
  98 Co ( 0.000000,  0.000000,  0.517573)
  99 Ni ( 0.000000,  0.000000,  0.380387)
 100 Cr ( 0.000000,  0.000000,  1.529492)
 101 Al ( 0.000000,  0.000000, -0.009582)
 102 Cr ( 0.000000,  0.000000, -1.460669)
 103 Co ( 0.000000,  0.000000,  0.768432)
 104 Al ( 0.000000,  0.000000, -0.020034)
 105 Ni ( 0.000000,  0.000000,  0.279392)
 106 Co ( 0.000000,  0.000000,  1.106218)
 107 Fe ( 0.000000,  0.000000,  2.194337)

Energy contributions relative to reference atoms: (reference = -3382523.201499)

Kinetic:       +215.620524
Potential:     -226.320068
External:        +0.000000
XC:            -847.268423
Entropy (-ST):   -4.179370
Local:          +33.357690
--------------------------
Free energy:   -828.789649
Extrapolated:  -826.699964

Spin contamination: 27.264733 electrons
Showing only first 2 kpts
                      Up                     Down
 Kpt  Band  Eigenvalues  Occupancy  Eigenvalues  Occupancy
  0   470      9.12160    0.99655     10.07758    0.01997
  0   471      9.12417    0.99646     10.09858    0.01625
  0   472      9.13850    0.99592     10.10984    0.01455
  0   473      9.15110    0.99537     10.11654    0.01362

  1   470      9.12172    0.99655     10.08585    0.01842
  1   471      9.13726    0.99597     10.09405    0.01699
  1   472      9.15542    0.99517     10.09905    0.01618
  1   473      9.17256    0.99427     10.12505    0.01252


Fermi level: 9.68826

No gap

Forces in eV/Ang:
  0 Fe   -0.02723    0.11513   -0.14576
  1 Cr    0.05336    0.20767    0.02001
  2 Ni    0.11884   -0.35670   -0.38779
  3 Cr   -0.17901    0.40154    0.19349
  4 Al    0.09921   -0.16488   -0.20566
  5 Fe   -0.27023    0.34347    0.01466
  6 Ni    0.01614    0.40804   -0.43137
  7 Al   -0.43813   -0.15597    0.12776
  8 Al    0.28923    0.65559   -0.38894
  9 Co    0.09250    0.25504   -0.15771
 10 Ni   -0.13965   -0.07291   -0.26721
 11 Co   -0.17574    0.00860   -0.00248
 12 Ni   -0.09086    0.13873    0.05372
 13 Cr    0.02627   -0.08303    0.19973
 14 Fe    0.51306    0.10950   -0.04442
 15 Cr   -0.21136   -0.30141   -0.18864
 16 Co   -0.14848    0.26006    0.09786
 17 Cr   -0.27285    0.22117   -0.76792
 18 Co    0.01252   -0.28281    0.11165
 19 Fe   -0.37273   -0.05938    0.32095
 20 Cr    0.29012    0.43301    0.06318
 21 Fe    0.00283   -0.14930   -0.01250
 22 Co   -0.08813   -0.15143   -0.11952
 23 Al    0.26477    0.67693   -0.10582
 24 Ni    0.02560   -0.07623    0.07220
 25 Cr   -0.45478   -0.36995    0.33519
 26 Cr   -0.15521    0.10827    0.08939
 27 Al    0.22557    0.27421   -0.52977
 28 Cr   -0.12653   -0.18976    0.41469
 29 Cr    0.19555   -0.01720    0.19279
 30 Fe   -0.37323    0.17924   -0.03038
 31 Fe   -0.32778    0.01362   -0.07697
 32 Ni    0.13739    0.05765   -0.17541
 33 Cr    0.08416   -0.20358    0.32200
 34 Co    0.30434    0.29086    0.12856
 35 Ni   -0.13225    0.01246    0.29536
 36 Ni   -0.11433    0.02434   -0.04580
 37 Co    0.20452    0.36327   -0.07811
 38 Co    0.12738   -0.10716   -0.07023
 39 Cr   -0.41369    0.18723   -0.42692
 40 Fe   -0.01427   -0.23803   -0.30322
 41 Al   -0.13962    0.45533    0.05289
 42 Fe    0.17251   -0.14008   -0.00917
 43 Ni   -0.20961    0.28531   -0.01143
 44 Cr   -0.10133    0.08899    0.04697
 45 Co   -0.21240    0.01150    0.18565
 46 Co   -0.16718   -0.07192   -0.27026
 47 Ni   -0.14438   -0.13365    0.06767
 48 Ni    0.32474    0.19682    0.01376
 49 Cr   -0.73121   -0.32202    0.33530
 50 Co    0.27174   -0.13024   -0.17942
 51 Al    0.55316   -0.53415    0.27801
 52 Al    0.01147   -0.15610    0.32939
 53 Fe    0.00054   -0.03767   -0.44018
 54 Fe    0.13365    0.18282    0.06766
 55 Fe   -0.24281   -0.21842   -0.16011
 56 Ni    0.03418   -0.20981   -0.09531
 57 Ni   -0.00325    0.39988    0.16459
 58 Co    0.04819    0.19805    0.04789
 59 Co    0.04625    0.00249    0.15644
 60 Fe   -0.14003   -0.13165   -0.14512
 61 Co   -0.30192   -0.03981   -0.12990
 62 Al   -0.30494    0.42554   -0.19649
 63 Ni    0.30073   -0.30702    0.11073
 64 Al    0.30756   -0.23502    0.68340
 65 Cr   -0.02451    0.66967    0.38117
 66 Al    0.43417   -0.19406    0.00335
 67 Ni   -0.07235   -0.56894    0.20349
 68 Al   -0.23539   -0.34512    0.38601
 69 Fe    0.05107    0.06370    0.06976
 70 Cr    0.50497   -0.11369    0.01590
 71 Cr    0.70779    0.11590   -0.28616
 72 Fe    0.30088    0.37782   -0.08111
 73 Co    0.12455   -0.01029    0.17952
 74 Co    0.25983   -0.13621    0.27275
 75 Co   -0.05664    0.17398    0.00730
 76 Fe   -0.22701   -0.48186    0.15958
 77 Fe   -0.03112   -0.12508    0.00891
 78 Cr    0.25864   -0.22309   -0.23487
 79 Fe    0.13000   -0.02041    0.08136
 80 Co   -0.08663   -0.07734    0.04285
 81 Al    0.30980   -0.04748    0.03538
 82 Ni   -0.30354    0.31419    0.19529
 83 Ni   -0.47304    0.18516    0.19379
 84 Ni    0.03764   -0.05866   -0.11316
 85 Fe    0.03521    0.22478   -0.32690
 86 Co    0.01304   -0.20146    0.02395
 87 Cr   -0.28222    0.02638    0.19894
 88 Ni    0.03466   -0.08737   -0.12946
 89 Fe    0.11014   -0.40019    0.26016
 90 Ni    0.28795   -0.37517    0.05624
 91 Co   -0.07820   -0.01722   -0.18554
 92 Al   -0.10465   -0.07496   -0.03001
 93 Cr   -0.19776    0.12550   -0.28320
 94 Fe    0.07040   -0.47611   -0.09780
 95 Cr    0.63124    0.02662    0.02650
 96 Ni    0.18220   -0.19726   -0.05190
 97 Fe    0.11114   -0.24592    0.00388
 98 Co    0.27436    0.02181    0.28570
 99 Ni    0.41477   -0.27247    0.04272
100 Cr    0.04420    0.06462   -0.02976
101 Al   -0.60596    0.14072   -0.02419
102 Cr    0.35434    0.14714    0.09319
103 Co    0.05773   -0.00766    0.06744
104 Al   -0.49913   -0.03007   -0.10977
105 Ni   -0.19154   -0.06629   -0.05446
106 Co   -0.28541    0.01154   -0.07087
107 Fe   -0.04863   -0.18292   -0.18166

Timing:                              incl.     excl.
-----------------------------------------------------------
Forces:                             16.470    16.470   0.1% |
Hamiltonian:                         1.010     0.010   0.0% |
 Atomic:                             0.160     0.081   0.0% |
  XC Correction:                     0.079     0.079   0.0% |
 Calculate atomic Hamiltonians:      0.708     0.708   0.0% |
 Communicate:                        0.020     0.020   0.0% |
 Initialize Hamiltonian:             0.000     0.000   0.0% |
 Poisson:                            0.001     0.001   0.0% |
 XC 3D grid:                         0.111     0.111   0.0% |
LCAO initialization:                64.205     1.080   0.0% |
 LCAO eigensolver:                   7.804     0.026   0.0% |
  Calculate projections:             0.246     0.246   0.0% |
  DenseAtomicCorrection:             0.142     0.142   0.0% |
  Distribute overlap matrix:         0.816     0.816   0.0% |
  Orbital Layouts:                   3.383     3.383   0.0% |
  Potential matrix:                  1.757     1.757   0.0% |
  Sum over cells:                    1.433     1.433   0.0% |
 LCAO to grid:                      53.418    53.418   0.4% |
 Set positions (LCAO WFS):           1.904     1.118   0.0% |
  Basic WFS set positions:           0.004     0.004   0.0% |
  Basis functions set positions:     0.001     0.001   0.0% |
  P tci:                             0.224     0.224   0.0% |
  ST tci:                            0.203     0.203   0.0% |
  mktci:                             0.354     0.354   0.0% |
PWDescriptor:                        0.207     0.207   0.0% |
SCF-cycle:                       12967.025   188.134   1.4% ||
 Davidson:                       12359.399  3069.062  23.5% |--------|
  Apply H:                         120.289   113.508   0.9% |
   HMM T:                            6.781     6.781   0.1% |
  Subspace diag:                   983.754     0.145   0.0% |
   calc_h_matrix:                  393.306   278.839   2.1% ||
    Apply H:                       114.467   110.200   0.8% |
     HMM T:                          4.266     4.266   0.0% |
   diagonalize:                    165.581   165.581   1.3% ||
   rotate_psi:                     424.722   424.722   3.3% ||
  calc. matrices:                 2249.730  2007.259  15.4% |-----|
   Apply H:                        242.471   227.878   1.7% ||
    HMM T:                          14.593    14.593   0.1% |
  diagonalize:                    5027.074  5027.074  38.5% |--------------|
  rotate_psi:                      909.490   909.490   7.0% |--|
 Density:                          204.296     0.007   0.0% |
  Atomic density matrices:           3.606     3.606   0.0% |
  Mix:                             158.138   158.138   1.2% |
  Multipole moments:                 0.131     0.131   0.0% |
  Pseudo density:                   42.414    42.401   0.3% |
   Symmetrize density:               0.013     0.013   0.0% |
 Hamiltonian:                      209.174     2.022   0.0% |
  Atomic:                           39.196    21.527   0.2% |
   XC Correction:                   17.669    17.669   0.1% |
  Calculate atomic Hamiltonians:   138.772   138.772   1.1% |
  Communicate:                       2.173     2.173   0.0% |
  Poisson:                           0.120     0.120   0.0% |
  XC 3D grid:                       26.892    26.892   0.2% |
 Orthonormalize:                     6.023     0.001   0.0% |
  calc_s_matrix:                     0.809     0.809   0.0% |
  inverse-cholesky:                  0.463     0.463   0.0% |
  projections:                       3.683     3.683   0.0% |
  rotate_psi_s:                      1.067     1.067   0.0% |
Set symmetry:                        0.001     0.001   0.0% |
Other:                               5.770     5.770   0.0% |
-----------------------------------------------------------
Total:                                     13054.688 100.0%

Date: Sat Apr  8 04:12:13 2023
