
  ___ ___ ___ _ _ _  
 |   |   |_  | | | | 
 | | | | | . | | | | 
 |__ |  _|___|_____|  22.8.0
 |___|_|             

User:   c.zeng@d0108
Date:   Mon Apr 17 04:20:28 2023
Arch:   x86_64
Pid:    33747
CWD:    /home/c.zeng/projects/hea-corrosion/hea-mlp/data-curation/bulk-mcmc/dft-jobs/203
Python: 3.8.1
gpaw:   /home/c.zeng/usr/installs/gpaw/source/gpaw-22.8.0/gpaw
_gpaw:  /home/c.zeng/usr/installs/gpaw/source/gpaw-22.8.0/
        _gpaw.cpython-38-x86_64-linux-gnu.so
ase:    /home/c.zeng/.local/lib/python3.8/site-packages/ase-3.22.1-py3.8.egg/ase (version 3.22.1)
numpy:  /home/c.zeng/.local/lib/python3.8/site-packages/numpy (version 1.24.2)
scipy:  /home/c.zeng/.local/lib/python3.8/site-packages/scipy (version 1.10.1)
libxc:  4.2.3
units:  Angstrom and eV
cores: 30
OpenMP: False
OMP_NUM_THREADS: 1

Input parameters:
  convergence: {energy: 0.0001}
  kpts: [2 2 2]
  maxiter: 666
  mode: {ecut: 350.0,
         name: pw}
  occupations: {fixmagmom: False,
                name: fermi-dirac,
                width: 0.1}
  spinpol: True
  xc: PBE

System changes: positions, numbers, cell, pbc, initial_charges, initial_magmoms 

Initialize ...

species:
  Ni:
    name: Nickel
    id: 0d9f38a9d6e76a2886f07bb4381f212b
    Z: 28.0
    valence: 16
    core: 12
    charge: 0.0
    file: /home/c.zeng/usr/data/gpaw-setups-0.9.20000/Ni.PBE.gz
    compensation charges: {type: gauss,
                           rc: 0.36,
                           lmax: 2}
    cutoffs: {filter: 2.14,
              core: 1.98}
    valence states:
      #              energy  rcut
      - 4s(2.00)    -5.642   1.164
      - 3p(6.00)   -71.394   1.207
      - 4p(0.00)    -1.226   1.207
      - 3d(8.00)    -8.875   1.138
      -  s          21.570   1.164
      -  d          18.337   1.138
  
    # Using partial waves for Ni as LCAO basis

  Al:
    name: Aluminium
    id: 0292cae29f5d6237e50f6abdd43a7bdd
    Z: 13.0
    valence: 3
    core: 10
    charge: 0.0
    file: /home/c.zeng/usr/data/gpaw-setups-0.9.20000/Al.PBE.gz
    compensation charges: {type: gauss,
                           rc: 0.34,
                           lmax: 2}
    cutoffs: {filter: 1.91,
              core: 2.36}
    valence states:
      #              energy  rcut
      - 3s(2.00)    -7.753   1.085
      - 3p(1.00)    -2.712   1.085
      -  s          19.459   1.085
      -  p          24.499   1.085
      -  d           0.000   1.085
  
    # Using partial waves for Al as LCAO basis

  Co:
    name: Cobalt
    id: 339d20d5b0b93d2de9531a1bee871d91
    Z: 27.0
    valence: 9
    core: 18
    charge: 0.0
    file: /home/c.zeng/usr/data/gpaw-setups-0.9.20000/Co.PBE.gz
    compensation charges: {type: gauss,
                           rc: 0.32,
                           lmax: 2}
    cutoffs: {filter: 1.87,
              core: 2.55}
    valence states:
      #              energy  rcut
      - 4s(2.00)    -5.469   1.005
      - 4p(0.00)    -1.277   1.058
      - 3d(7.00)    -8.205   1.005
      -  s          21.742   1.005
      -  p          25.934   1.058
      -  d          19.007   1.005
  
    # Using partial waves for Co as LCAO basis

  Cr:
    name: Chromium
    id: 33f258bda2ca9f93018e70263a35547b
    Z: 24.0
    valence: 6
    core: 18
    charge: 0.0
    file: /home/c.zeng/usr/data/gpaw-setups-0.9.20000/Cr.PBE.gz
    compensation charges: {type: gauss,
                           rc: 0.35,
                           lmax: 2}
    cutoffs: {filter: 2.14,
              core: 3.04}
    valence states:
      #              energy  rcut
      - 4s(1.00)    -4.007   1.164
      - 4p(0.00)    -0.989   1.217
      - 3d(5.00)    -2.913   1.111
      -  s          23.205   1.164
      -  p          26.223   1.217
      -  d          24.299   1.111
  
    # Using partial waves for Cr as LCAO basis

  Fe:
    name: Iron
    id: 37abbd8d6c3c35915a9b583b742da910
    Z: 26.0
    valence: 8
    core: 18
    charge: 0.0
    file: /home/c.zeng/usr/data/gpaw-setups-0.9.20000/Fe.PBE.gz
    compensation charges: {type: gauss,
                           rc: 0.33,
                           lmax: 2}
    cutoffs: {filter: 2.06,
              core: 2.67}
    valence states:
      #              energy  rcut
      - 4s(2.00)    -5.291   1.164
      - 4p(0.00)    -1.326   1.058
      - 3d(6.00)    -7.505   1.058
      -  s          21.920   1.164
      -  p          25.885   1.058
      -  d          19.706   1.058
  
    # Using partial waves for Fe as LCAO basis

Reference energy: -3235165.067515  # eV

Spin-polarized calculation.
Magnetic moment: 121.100000

Convergence criteria:
 Maximum [total energy] change in last 3 cyles: 0.0001 eV / electron
 Maximum integral of absolute [dens]ity change: 0.0001 electrons / valence electron
 Maximum integral of absolute [eigenst]ate change: 4e-08 eV^2 / valence electron
 Maximum number of scf [iter]ations: 666
 (Square brackets indicate name in SCF output, whereas a 'c' in
 the SCF output indicates the quantity has converged.)

Symmetries present (total): 1

  ( 1  0  0)
  ( 0  1  0)
  ( 0  0  1)

8 k-points: 2 x 2 x 2 Monkhorst-Pack grid
4 k-points in the irreducible part of the Brillouin zone
       k-points in crystal coordinates                weights
   0:     0.25000000   -0.25000000   -0.25000000          2/8
   1:     0.25000000   -0.25000000    0.25000000          2/8
   2:     0.25000000    0.25000000   -0.25000000          2/8
   3:     0.25000000    0.25000000    0.25000000          2/8

Wave functions: Plane wave expansion
  Cutoff energy: 350.000 eV
  Number of coefficients (min, max): 19084, 19084
  Pulay-stress correction: 0.000000 eV/Ang^3 (de/decut=0.000000)
  Using FFTW library
  ScaLapack parameters: grid=1x1, blocksize=None
  Wavefunction extrapolation:
    Improved wavefunction reuse through dual PAW basis 

Occupation numbers: Fermi-Dirac:
  width: 0.1000  # eV
 

Eigensolver
   Davidson(niter=2) 

Densities:
  Coarse grid: 48*48*48 grid
  Fine grid: 96*96*96 grid
  Total Charge: 0.000000 

Density mixing:
  Method: difference
  Backend: pulay
  Linear mixing parameter: 0.05
  old densities: 5
  Damping of long wavelength oscillations: 50 

Hamiltonian:
  XC and Coulomb potentials evaluated on a 96*96*96 grid
  Using the PBE Exchange-Correlation functional
  External potential:
    NoExternalPotential
 

XC parameters: PBE with 2 nearest neighbor stencil

Memory estimate:
  Process memory now: 266.96 MiB
  Calculator: 986.43 MiB
    Density: 5.59 MiB
      Arrays: 2.05 MiB
      Localized functions: 2.72 MiB
      Mixer: 0.82 MiB
    Hamiltonian: 1.61 MiB
      Arrays: 1.52 MiB
      XC: 0.00 MiB
      Poisson: 0.00 MiB
      vbar: 0.08 MiB
    Wavefunctions: 979.23 MiB
      Arrays psit_nG: 726.83 MiB
      Eigensolver: 242.60 MiB
      Projections: 4.67 MiB
      Projectors: 0.74 MiB
      PW-descriptor: 4.39 MiB

Total number of cores used: 30
Parallelization over k-points: 2
Domain decomposition: 5 x 3 x 1

Number of atoms: 108
Number of atomic orbitals: 933
Number of bands in calculation: 624
Number of valence electrons: 912
Bands to converge: occupied

... initialized

Initializing position-dependent things.

Density initialized from atomic densities
Creating initial wave functions:
  624 bands from LCAO basis set

        .--------Al----------------.  
       /|           Fe             |  
      / |    FeFe     Ni           |  
     / Cr       Ni       Al        |  
    /   |Fe      CrCo       Fe     |  
   /    | NiNi      ACo            |  
  /    Co  FeiAlAl    Co Fe  CoAl  |  
 *      Fe     AlCoAl   CrFe     Cr|  
 |      |FeNi   NiFeFe   AlNiCr   Co  
 |      | CoNi   AlCoCoAl NiCrFe   |  
 |     Fe  Al CoCo  CrCr Ni  CrCr  |  
 |      Cr  Ni NiCrCo CoNiCoAl   Fe|  
 |      |CrCo   CoAlAl   CoNiFe   Fe  
 |      .-FeNi-----CrCr-Al--CrFe---.  
 |     Al  Cr CoCr    Al Co  Cr Ni/   
 |    / Co              Ni       Cr   
 |   /           Ali      CrFe  /     
 |  /      Cr       Fe     NiAl/      
 | /                   Fe     /i      
 |/                          /        
 *--------------------------Ni        

Positions:
   0 Ni    10.797848    0.093654    0.085777    ( 0.0000,  0.0000,  0.0000)
   1 Al    10.831824    1.844742    1.870716    ( 0.0000,  0.0000,  2.0000)
   2 Ni     1.786803   10.847372    1.827335    ( 0.0000,  0.0000,  0.0000)
   3 Co     1.769614    1.870531   -0.031264    ( 0.0000,  0.0000,  0.0000)
   4 Al     3.620857   10.822050   10.833629    ( 0.0000,  0.0000,  1.5000)
   5 Cr     3.571246    1.883176    1.708402    ( 0.0000,  0.0000,  0.0000)
   6 Co     5.521103   10.788063    1.666217    ( 0.0000,  0.0000,  0.0000)
   7 Al     5.520831    1.813973   10.830911    ( 0.0000,  0.0000,  1.5000)
   8 Al     7.330846    0.011025   10.815657    ( 0.0000,  0.0000,  2.0000)
   9 Fe     7.282018    1.809483    1.793250    ( 0.0000,  0.0000,  2.1000)
  10 Fe     9.029996    0.022005    1.811918    ( 0.0000,  0.0000,  1.5000)
  11 Fe     9.007196    1.868639   10.825714    ( 0.0000,  0.0000,  2.0000)
  12 Ni    10.861310    3.649723    0.014171    ( 0.0000,  0.0000,  2.0000)
  13 Ni    10.867442    5.463468    1.819235    ( 0.0000,  0.0000,  2.1000)
  14 Co     1.756088    3.650267    1.845949    ( 0.0000,  0.0000,  0.0000)
  15 Fe     1.790358    5.439092   10.869084    ( 0.0000,  0.0000,  2.1000)
  16 Ni     3.687842    3.622792   -0.049287    ( 0.0000,  0.0000,  2.0000)
  17 Co     3.667347    5.391145    1.745368    ( 0.0000,  0.0000,  0.0000)
  18 Al     5.497977    3.634415    1.792370    ( 0.0000,  0.0000,  2.0000)
  19 Ni     5.524908    5.448029    0.002551    ( 0.0000,  0.0000,  2.0000)
  20 Co     7.223340    3.611877   10.834270    ( 0.0000,  0.0000,  0.0000)
  21 Al     7.217762    5.474830    1.807776    ( 0.0000,  0.0000,  2.1000)
  22 Cr     9.073442    3.654344    1.775148    ( 0.0000,  0.0000,  0.0000)
  23 Ni     9.008740    5.418608    0.007692    ( 0.0000,  0.0000,  2.0000)
  24 Cr    10.859190    7.178720    0.014480    ( 0.0000,  0.0000,  1.5000)
  25 Fe    -0.018106    8.970948    1.875391    ( 0.0000,  0.0000,  0.0000)
  26 Fe     1.817615    7.224025    1.802546    ( 0.0000,  0.0000,  1.5000)
  27 Cr     1.880729    8.993464   10.874031    ( 0.0000,  0.0000,  0.0000)
  28 Fe     3.684428    7.260447   -0.001356    ( 0.0000,  0.0000,  2.0000)
  29 Co     3.612616    9.025636    1.761807    ( 0.0000,  0.0000,  1.5000)
  30 Cr     5.481440    7.275114    1.811211    ( 0.0000,  0.0000,  1.5000)
  31 Fe     5.461261    9.048153   10.833988    ( 0.0000,  0.0000,  1.5000)
  32 Ni     7.245704    7.257881    0.056891    ( 0.0000,  0.0000,  2.1000)
  33 Co     7.301969    9.004609    1.790315    ( 0.0000,  0.0000,  0.0000)
  34 Cr     9.029343    7.181775    1.815549    ( 0.0000,  0.0000,  2.0000)
  35 Cr     9.030561    9.042010    0.020232    ( 0.0000,  0.0000,  1.5000)
  36 Fe    -0.031046    0.001947    3.645701    ( 0.0000,  0.0000,  2.0000)
  37 Fe    10.825910    1.804351    5.434602    ( 0.0000,  0.0000,  2.1000)
  38 Ni     1.743552   10.849296    5.484376    ( 0.0000,  0.0000,  0.0000)
  39 Al     1.769755    1.791891    3.636068    ( 0.0000,  0.0000,  1.5000)
  40 Al     3.516667   10.719828    3.663227    ( 0.0000,  0.0000,  0.0000)
  41 Co     3.644244    1.785205    5.586728    ( 0.0000,  0.0000,  0.0000)
  42 Al     5.484778   10.815439    5.504022    ( 0.0000,  0.0000,  0.0000)
  43 Cr     5.457934    1.842230    3.658769    ( 0.0000,  0.0000,  0.0000)
  44 Ni     7.360615   10.815439    3.672229    ( 0.0000,  0.0000,  0.0000)
  45 Al     7.266884    1.811614    5.485528    ( 0.0000,  0.0000,  2.1000)
  46 Al     9.077986    0.023590    5.491921    ( 0.0000,  0.0000,  0.0000)
  47 Co     9.066788    1.824226    3.671175    ( 0.0000,  0.0000,  1.5000)
  48 Fe    -0.047135    3.649615    3.617291    ( 0.0000,  0.0000,  2.0000)
  49 Cr    10.809264    5.435993    5.379805    ( 0.0000,  0.0000,  2.0000)
  50 Cr     1.752316    3.624989    5.344676    ( 0.0000,  0.0000,  0.0000)
  51 Cr     1.805786    5.472046    3.619389    ( 0.0000,  0.0000,  2.1000)
  52 Ni     3.649408    3.633491    3.631251    ( 0.0000,  0.0000,  2.1000)
  53 Co     3.657628    5.433797    5.434015    ( 0.0000,  0.0000,  1.5000)
  54 Cr     5.413368    3.672642    5.480309    ( 0.0000,  0.0000,  1.5000)
  55 Al     5.413835    5.465588    3.639666    ( 0.0000,  0.0000,  2.1000)
  56 Cr     7.223449    3.731734    3.720829    ( 0.0000,  0.0000,  0.0000)
  57 Cr     7.220557    5.483180    5.485572    ( 0.0000,  0.0000,  0.0000)
  58 Co     9.069039    3.623673    5.469720    ( 0.0000,  0.0000,  1.5000)
  59 Ni     9.064766    5.503837    3.636731    ( 0.0000,  0.0000,  0.0000)
  60 Fe    -0.007801    7.208303    3.671501    ( 0.0000,  0.0000,  2.1000)
  61 Co    -0.032907    9.095361    5.398690    ( 0.0000,  0.0000,  0.0000)
  62 Co     1.823693    7.248716    5.440766    ( 0.0000,  0.0000,  2.0000)
  63 Al     1.739856    8.989170    3.676437    ( 0.0000,  0.0000,  2.0000)
  64 Ni     3.645353    7.306090    3.692343    ( 0.0000,  0.0000,  0.0000)
  65 Ni     3.652300    9.051545    5.521635    ( 0.0000,  0.0000,  1.5000)
  66 Co     5.474253    7.265362    5.482886    ( 0.0000,  0.0000,  2.1000)
  67 Cr     5.473601    9.034877    3.664390    ( 0.0000,  0.0000,  0.0000)
  68 Ni     7.218436    7.243171    3.634643    ( 0.0000,  0.0000,  1.5000)
  69 Al     7.240823    9.039172    5.472851    ( 0.0000,  0.0000,  1.5000)
  70 Cr     8.972600    7.234071    5.399136    ( 0.0000,  0.0000,  2.0000)
  71 Cr     9.065516    8.978221    3.651180    ( 0.0000,  0.0000,  0.0000)
  72 Al    10.856755    0.017916    7.210891    ( 0.0000,  0.0000,  2.1000)
  73 Cr    10.824681    1.882197    8.982799    ( 0.0000,  0.0000,  0.0000)
  74 Fe     1.860768   10.856646    9.009795    ( 0.0000,  0.0000,  0.0000)
  75 Fe     1.767189    1.801926    7.237202    ( 0.0000,  0.0000,  2.1000)
  76 Cr     3.637144   10.797772    7.275701    ( 0.0000,  0.0000,  2.1000)
  77 Ni     3.668032    1.775833    9.018743    ( 0.0000,  0.0000,  0.0000)
  78 Ni     5.482495   10.845165    9.071409    ( 0.0000,  0.0000,  2.1000)
  79 Co     5.527517    1.773408    7.253489    ( 0.0000,  0.0000,  0.0000)
  80 Co     7.260502    0.005379    7.255185    ( 0.0000,  0.0000,  1.5000)
  81 Fe     7.265112    1.802383    9.014883    ( 0.0000,  0.0000,  2.0000)
  82 Al     9.024788    0.026384    9.025244    ( 0.0000,  0.0000,  1.5000)
  83 Ni     9.016296    1.814658    7.226449    ( 0.0000,  0.0000,  2.0000)
  84 Fe    10.804437    3.613888    7.198159    ( 0.0000,  0.0000,  0.0000)
  85 Al    10.834662    5.395809    9.098938    ( 0.0000,  0.0000,  0.0000)
  86 Fe     1.818746    3.628870    9.065668    ( 0.0000,  0.0000,  0.0000)
  87 Fe     1.809776    5.464294    7.231146    ( 0.0000,  0.0000,  0.0000)
  88 Ni     3.671588    3.637100    7.249553    ( 0.0000,  0.0000,  0.0000)
  89 Al     3.679546    5.412074    9.119606    ( 0.0000,  0.0000,  0.0000)
  90 Co     5.499651    3.591088    9.044978    ( 0.0000,  0.0000,  2.1000)
  91 Fe     5.468306    5.448464    7.223046    ( 0.0000,  0.0000,  1.5000)
  92 Co     7.241888    3.617400    7.225101    ( 0.0000,  0.0000,  0.0000)
  93 Co     7.214631    5.385893    9.048577    ( 0.0000,  0.0000,  2.1000)
  94 Fe     8.994291    3.655975    9.039237    ( 0.0000,  0.0000,  1.5000)
  95 Ni     9.006577    5.423262    7.223296    ( 0.0000,  0.0000,  2.0000)
  96 Cr    -0.070637    7.291956    7.110419    ( 0.0000,  0.0000,  0.0000)
  97 Cr     0.073012    9.104570    9.068375    ( 0.0000,  0.0000,  0.0000)
  98 Ni     1.863247    7.257381    9.054785    ( 0.0000,  0.0000,  2.0000)
  99 Fe     1.858343    9.053708    7.225808    ( 0.0000,  0.0000,  2.1000)
 100 Al     3.683906    7.292456    7.235550    ( 0.0000,  0.0000,  2.0000)
 101 Ni     3.628218    9.069550    9.051262    ( 0.0000,  0.0000,  2.1000)
 102 Co     5.530605    7.331890    9.040129    ( 0.0000,  0.0000,  0.0000)
 103 Al     5.476232    9.097209    7.250467    ( 0.0000,  0.0000,  2.0000)
 104 Cr     7.256827    7.264242    7.208456    ( 0.0000,  0.0000,  2.1000)
 105 Al     7.272548    9.136437    9.056861    ( 0.0000,  0.0000,  1.5000)
 106 Fe     8.936493    7.190875    9.109767    ( 0.0000,  0.0000,  0.0000)
 107 Co     8.994682    9.112169    7.218480    ( 0.0000,  0.0000,  0.0000)

Unit cell:
           periodic     x           y           z      points  spacing
  1. axis:    yes   10.872400    0.000000    0.000000    48     0.2265
  2. axis:    yes    0.000000   10.872400    0.000000    48     0.2265
  3. axis:    yes    0.000000    0.000000   10.872400    48     0.2265

  Lengths:  10.872400  10.872400  10.872400
  Angles:   90.000000  90.000000  90.000000

Effective grid spacing dv^(1/3) = 0.2265

     iter     time        total  log10-change:  magmom
                         energy  eigst   dens
iter:   1 04:23:25  -923.259999                  +120.1261
iter:   2 04:24:35  -854.451264  -0.27  -1.24    +80.5003
iter:   3 04:25:45  -849.210229  -0.69  -1.25    +48.4204
iter:   4 04:26:55  -815.842495  -1.18  -1.25    +42.8160
iter:   5 04:28:05  -809.964858  -1.65  -1.37    +40.3728
iter:   6 04:29:16  -811.094012  -1.76  -1.41    +39.9516
iter:   7 04:30:25  -805.614791  -1.58  -1.43    +39.2356
iter:   8 04:31:35  -802.579812  -1.74  -1.52    +39.9457
iter:   9 04:32:45  -811.374883  -1.72  -1.65    +41.2410
iter:  10 04:33:57  -801.606378  -2.01  -1.59    +41.5654
iter:  11 04:35:09  -801.686801  -2.43  -1.79    +43.3367
iter:  12 04:36:21  -802.789233  -2.55  -1.84    +45.0966
iter:  13 04:37:33  -803.185465  -2.46  -1.84    +46.4172
iter:  14 04:38:44  -803.278445  -2.50  -1.88    +47.5636
iter:  15 04:39:56  -803.630157  -2.56  -1.93    +48.7443
iter:  16 04:41:08  -803.724860  -2.61  -1.98    +50.1647
iter:  17 04:42:20  -803.536964  -2.79  -2.01    +50.8997
iter:  18 04:43:32  -803.510564  -2.90  -2.07    +51.7093
iter:  19 04:44:44  -803.952055  -2.84  -2.12    +52.8949
iter:  20 04:45:55  -803.838439  -2.92  -2.11    +53.2577
iter:  21 04:47:07  -804.007792  -2.98  -2.16    +54.2512
iter:  22 04:48:19  -804.186147  -2.99  -2.20    +54.8773
iter:  23 04:49:31  -804.222702  -3.06  -2.22    +55.8952
iter:  24 04:50:43  -804.292433  -3.22  -2.26    +56.3111
iter:  25 04:51:55  -804.362510  -3.33  -2.30    +56.8422
iter:  26 04:53:06  -804.448169  -3.46  -2.33    +57.4046
iter:  27 04:54:18  -804.537316  -3.59  -2.37    +57.9251
iter:  28 04:55:30  -804.619258  -3.73  -2.38    +58.3349
iter:  29 04:56:42  -804.863488  -3.21  -2.41    +58.8512
iter:  30 04:57:54  -804.959046  -3.37  -2.42    +59.0526
iter:  31 04:59:06  -804.919893  -3.36  -2.42    +58.9211
iter:  32 05:00:18  -804.912940c -3.44  -2.52    +58.8234
iter:  33 05:01:30  -804.923970c -3.69  -2.60    +58.7946
iter:  34 05:02:41  -804.932454c -3.99  -2.66    +58.7753
iter:  35 05:03:53  -804.965623c -4.03  -2.70    +58.7764
iter:  36 05:05:05  -804.969728c -4.20  -2.72    +58.6222
iter:  37 05:06:17  -804.989747c -4.39  -2.75    +58.5995
iter:  38 05:07:29  -805.021896c -4.25  -2.79    +58.5095
iter:  39 05:08:41  -805.031749c -4.36  -2.79    +58.4514
iter:  40 05:09:53  -805.066502c -4.17  -2.83    +58.3339
iter:  41 05:11:04  -805.072472c -4.29  -2.81    +58.2716
iter:  42 05:12:16  -805.116252c -4.07  -2.90    +58.2341
iter:  43 05:13:28  -805.116399c -4.18  -2.84    +58.1209
iter:  44 05:14:40  -805.133081c -4.31  -2.90    +57.9552
iter:  45 05:15:52  -805.153401c -4.41  -2.96    +57.8872
iter:  46 05:17:04  -805.165748c -4.70  -3.00    +57.8148
iter:  47 05:18:16  -805.196894c -4.69  -3.01    +57.7519
iter:  48 05:19:28  -805.056123  -3.58  -3.00    +58.0120
iter:  49 05:20:39  -804.963593  -3.42  -3.07    +58.0543
iter:  50 05:21:51  -804.963182  -3.92  -3.09    +58.0475
iter:  51 05:23:03  -804.967509c -4.58  -3.05    +57.8519
iter:  52 05:24:15  -804.973434c -4.78  -3.14    +57.7554
iter:  53 05:25:27  -804.976661c -4.80  -3.15    +57.6925
iter:  54 05:26:39  -804.979020c -5.08  -3.17    +57.6763
iter:  55 05:27:51  -804.990129c -4.93  -3.25    +57.5788
iter:  56 05:29:03  -804.991395c -5.23  -3.30    +57.5770
iter:  57 05:30:14  -805.003605c -4.89  -3.34    +57.5131
iter:  58 05:31:27  -805.008331c -5.13  -3.45    +57.4823
iter:  59 05:32:39  -805.015937c -5.07  -3.46    +57.4140
iter:  60 05:33:50  -805.024598c -5.19  -3.61    +57.3513
iter:  61 05:35:02  -805.017474c -5.43  -3.68    +57.3821
iter:  62 05:36:14  -805.014053c -4.82  -3.67    +57.2717
iter:  63 05:37:26  -805.032229c -4.83  -3.54    +57.2496
iter:  64 05:38:38  -805.004374c -4.24  -3.70    +57.2140
iter:  65 05:39:50  -804.994299c -4.26  -3.37    +57.1211
iter:  66 05:41:02  -804.994947c -4.33  -3.23    +56.9794
iter:  67 05:42:14  -805.006910c -4.38  -3.14    +56.7586
iter:  68 05:43:26  -805.002478c -4.47  -3.07    +57.0367
iter:  69 05:44:38  -805.010717c -4.96  -3.16    +56.9266
iter:  70 05:45:50  -804.995893c -4.52  -3.18    +57.0197
iter:  71 05:47:01  -805.028275c -4.29  -3.02    +56.8795
iter:  72 05:48:13  -805.010461c -5.01  -3.06    +56.9332
iter:  73 05:49:25  -805.011685c -4.00  -3.10    +56.9771
iter:  74 05:50:37  -805.014573c -4.41  -3.10    +56.9276
iter:  75 05:51:49  -805.029684c -4.53  -3.20    +56.8226
iter:  76 05:53:01  -805.017892c -5.23  -3.37    +56.8496
iter:  77 05:54:13  -805.004831c -4.15  -3.47    +56.8025
iter:  78 05:55:25  -805.004024c -4.10  -3.43    +56.7573
iter:  79 05:56:36  -805.017256c -4.25  -3.30    +56.6432
iter:  80 05:57:49  -805.051714c -3.90  -3.18    +56.3971
iter:  81 05:59:01  -805.010420c -3.73  -3.02    +56.7621
iter:  82 06:00:12  -805.076973c -3.85  -3.26    +56.3921
iter:  83 06:01:24  -805.028746c -4.17  -3.02    +56.6124
iter:  84 06:02:36  -805.067162c -4.01  -3.18    +56.3645
iter:  85 06:03:48  -805.040155c -4.30  -2.96    +56.5793
iter:  86 06:05:00  -805.044391c -4.81  -3.20    +56.5247
iter:  87 06:06:12  -805.037105c -4.81  -3.25    +56.4866
iter:  88 06:07:24  -805.067407c -4.22  -3.25    +56.3472
iter:  89 06:08:36  -805.044767c -4.64  -3.00    +56.3594
iter:  90 06:09:48  -805.075206c -4.33  -3.26    +56.2371
iter:  91 06:11:00  -805.059886c -4.84  -3.10    +56.2462
iter:  92 06:12:12  -805.079387c -4.79  -3.34    +56.2044
iter:  93 06:13:23  -805.088657c -5.21  -3.47    +56.1820
iter:  94 06:14:36  -805.069650c -5.07  -3.46    +56.2181
iter:  95 06:15:47  -805.061250c -5.10  -3.46    +56.2593
iter:  96 06:16:59  -805.080511c -5.07  -3.51    +56.1723
iter:  97 06:18:11  -805.037623c -4.37  -3.45    +56.2681
iter:  98 06:19:23  -804.960102  -3.46  -3.49    +56.4876
iter:  99 06:20:35  -804.951181c -4.14  -3.21    +56.5500
iter: 100 06:21:47  -804.953904c -4.66  -3.16    +56.6042
iter: 101 06:22:59  -804.962601c -4.43  -3.16    +56.6941
iter: 102 06:24:11  -804.967835c -4.98  -3.16    +56.6959
iter: 103 06:25:23  -804.981749c -4.43  -3.15    +56.7088
iter: 104 06:26:35  -804.977550c -4.28  -2.98    +56.7013
iter: 105 06:27:47  -804.985626c -4.23  -3.05    +56.8186
iter: 106 06:28:59  -804.971157c -4.73  -3.09    +56.7953
iter: 107 06:30:11  -804.980727c -4.88  -3.39    +56.9108
iter: 108 06:31:23  -804.983983c -5.15  -3.39    +56.9683
iter: 109 06:32:35  -804.993111c -4.74  -3.45    +57.0879
iter: 110 06:33:47  -804.998239c -5.02  -3.44    +57.1661
iter: 111 06:34:59  -805.000544c -5.41  -3.47    +57.1821
iter: 112 06:36:11  -805.003438c -5.24  -3.46    +57.2036
iter: 113 06:37:23  -805.006575c -5.27  -3.48    +57.2416
iter: 114 06:38:35  -805.008768c -5.32  -3.47    +57.2670
iter: 115 06:39:47  -805.010429c -5.53  -3.66    +57.2712
iter: 116 06:40:58  -805.015381c -5.32  -3.73    +57.3121
iter: 117 06:42:09  -805.007481c -5.39  -3.68    +57.2097
iter: 118 06:43:20  -804.987384c -4.17  -3.86    +56.7761
iter: 119 06:44:30  -804.985777c -4.93  -3.61    +56.7358
iter: 120 06:45:41  -804.987474c -5.33  -3.65    +56.7304
iter: 121 06:46:51  -804.990958c -5.39  -3.70    +56.7346
iter: 122 06:48:02  -804.988905c -5.99  -3.72    +56.7560
iter: 123 06:49:12  -804.992026c -5.40  -3.72    +56.7690
iter: 124 06:50:23  -804.989558c -5.92  -3.66    +56.7815
iter: 125 06:51:34  -804.992206c -5.70  -3.78    +56.8211
iter: 126 06:52:44  -804.992393c -6.01  -3.74    +56.8152
iter: 127 06:53:55  -804.994318c -5.77  -3.90    +56.8364
iter: 128 06:55:05  -804.996550c -5.54  -3.89    +56.8443
iter: 129 06:56:16  -804.994388c -6.03  -3.99    +56.8086
iter: 130 06:57:26  -804.986193c -4.84  -4.08c   +56.5968
iter: 131 06:58:36  -804.988714c -6.23  -3.77    +56.6518
iter: 132 06:59:47  -804.990111c -6.20  -3.87    +56.6728
iter: 133 07:00:57  -804.991409c -6.20  -3.90    +56.6936
iter: 134 07:02:08  -804.984990c -5.11  -3.99    +56.6128
iter: 135 07:03:18  -804.981729c -5.09  -3.76    +56.5973
iter: 136 07:04:29  -804.975417c -4.33  -3.64    +56.5522
iter: 137 07:05:39  -804.975010c -4.33  -3.41    +56.5104
iter: 138 07:06:49  -804.975105c -4.74  -3.27    +56.4992
iter: 139 07:07:59  -804.976251c -5.63  -3.25    +56.5098
iter: 140 07:09:08  -804.976503c -5.58  -3.27    +56.5011
iter: 141 07:10:19  -804.980503c -5.06  -3.26    +56.5023
iter: 142 07:11:30  -804.994851c -4.28  -3.18    +56.5135
iter: 143 07:12:41  -804.977695c -4.62  -3.05    +56.5657
iter: 144 07:13:51  -804.979923c -4.73  -3.28    +56.5651
iter: 145 07:15:02  -804.973505c -5.16  -3.25    +56.5591
iter: 146 07:16:13  -804.976325c -5.22  -3.47    +56.5800
iter: 147 07:17:24  -804.977262c -5.31  -3.55    +56.5581
iter: 148 07:18:35  -804.978212c -5.42  -3.61    +56.5414
iter: 149 07:19:46  -804.979395c -5.39  -3.61    +56.5472
iter: 150 07:20:57  -804.979701c -5.58  -3.59    +56.5516
iter: 151 07:22:08  -804.981263c -5.53  -3.71    +56.5204
iter: 152 07:23:18  -804.980481c -5.73  -3.69    +56.5183
iter: 153 07:24:29  -804.981979c -5.74  -3.70    +56.5115
iter: 154 07:25:40  -804.983645c -5.81  -3.90    +56.5021
iter: 155 07:26:51  -804.982375c -6.55  -3.86    +56.5231
iter: 156 07:28:02  -804.977640c -4.97  -3.95    +56.6525
iter: 157 07:29:12  -804.978441c -6.20  -3.89    +56.6332
iter: 158 07:30:23  -804.979152c -6.39  -3.99    +56.6158
iter: 159 07:31:34  -804.979300c -6.70  -4.05c   +56.6160
iter: 160 07:32:45  -804.980385c -5.97  -4.04c   +56.5873
iter: 161 07:33:56  -804.978616c -5.90  -3.96    +56.6077
iter: 162 07:35:07  -804.975539c -5.07  -4.06c   +56.6690
iter: 163 07:36:17  -804.978968c -5.38  -3.79    +56.6160
iter: 164 07:37:28  -804.977647c -6.20  -4.06c   +56.6402
iter: 165 07:38:39  -804.977420c -6.50  -4.05c   +56.6432
iter: 166 07:39:49  -804.978696c -6.12  -4.12c   +56.6368
iter: 167 07:41:00  -804.976747c -5.82  -4.24c   +56.6586
iter: 168 07:42:11  -804.976846c -6.53  -4.07c   +56.6577
iter: 169 07:43:22  -804.978047c -6.12  -4.10c   +56.6552
iter: 170 07:44:33  -804.973984c -5.15  -4.41c   +56.6745
iter: 171 07:45:44  -804.977953c -5.30  -3.86    +56.6551
iter: 172 07:46:55  -804.978651c -5.97  -4.36c   +56.6489
iter: 173 07:48:05  -804.979667c -6.02  -4.53c   +56.6423
iter: 174 07:49:16  -804.981757c -5.56  -4.32c   +56.6270
iter: 175 07:50:27  -804.975545c -4.78  -4.03c   +56.6870
iter: 176 07:51:38  -804.971828c -4.67  -4.07c   +56.7383
iter: 177 07:52:49  -804.974546c -5.50  -3.69    +56.7059
iter: 178 07:54:00  -804.975480c -5.95  -3.97    +56.7027
iter: 179 07:55:10  -804.978520c -5.16  -4.06c   +56.6982
iter: 180 07:56:21  -804.977673c -6.64  -4.20c   +56.6983
iter: 181 07:57:32  -804.978589c -6.32  -4.27c   +56.6994
iter: 182 07:58:43  -804.978091c -6.46  -4.22c   +56.6985
iter: 183 07:59:54  -804.979132c -6.04  -4.20c   +56.6892
iter: 184 08:01:04  -804.979415c -6.62  -4.22c   +56.6853
iter: 185 08:02:15  -804.982360c -5.28  -4.20c   +56.6504
iter: 186 08:03:26  -804.970877c -4.04  -3.86    +56.7997
iter: 187 08:04:37  -804.971650c -5.27  -3.59    +56.7926
iter: 188 08:05:48  -804.972130c -6.17  -3.63    +56.7846
iter: 189 08:06:59  -804.973351c -5.86  -3.68    +56.7638
iter: 190 08:08:09  -804.976294c -5.04  -3.76    +56.7374
iter: 191 08:09:20  -804.977901c -5.42  -4.10c   +56.7340
iter: 192 08:10:31  -804.976215c -6.08  -4.14c   +56.7375
iter: 193 08:11:42  -804.975566c -6.20  -4.10c   +56.7452
iter: 194 08:12:53  -804.977410c -5.81  -4.04c   +56.7407
iter: 195 08:14:04  -804.976236c -6.31  -4.30c   +56.7451
iter: 196 08:15:15  -804.978483c -5.58  -4.10c   +56.7285
iter: 197 08:16:26  -804.980687c -5.34  -4.26c   +56.7204
iter: 198 08:17:36  -804.976027c -4.97  -3.99    +56.7477
iter: 199 08:18:47  -804.973400c -4.93  -4.22c   +56.7637
iter: 200 08:19:58  -804.973605c -5.94  -3.83    +56.7614
iter: 201 08:21:09  -804.974724c -6.03  -3.85    +56.7553
iter: 202 08:22:20  -804.977640c -5.22  -3.93    +56.7420
iter: 203 08:23:31  -804.976235c -6.27  -4.03c   +56.7473
iter: 204 08:24:42  -804.978608c -5.46  -4.03c   +56.7322
iter: 205 08:25:53  -804.975722c -5.44  -3.98    +56.7550
iter: 206 08:27:04  -804.974692c -5.37  -4.12c   +56.7711
iter: 207 08:28:15  -804.977574c -5.25  -3.85    +56.7473
iter: 208 08:29:26  -804.977040c -6.36  -4.19c   +56.7489
iter: 209 08:30:37  -804.977822c -6.15  -4.42c   +56.7381
iter: 210 08:31:48  -804.978505c -6.30  -4.38c   +56.7376
iter: 211 08:32:58  -804.979593c -5.91  -4.36c   +56.7281
iter: 212 08:34:09  -804.977137c -5.52  -4.13c   +56.7458
iter: 213 08:35:20  -804.972208c -4.56  -4.55c   +56.7982
iter: 214 08:36:31  -804.974860c -5.55  -3.75    +56.7770
iter: 215 08:37:42  -804.976302c -5.59  -4.06c   +56.7676
iter: 216 08:38:53  -804.978031c -5.46  -4.37c   +56.7606
iter: 217 08:40:03  -804.972087c -4.60  -4.38c   +56.7886
iter: 218 08:41:14  -804.971592c -5.33  -3.73    +56.7990
iter: 219 08:42:25  -804.972160c -6.36  -3.67    +56.8084
iter: 220 08:43:36  -804.973233c -5.87  -3.71    +56.8169
iter: 221 08:44:47  -804.974582c -5.63  -3.81    +56.8327
iter: 222 08:45:58  -804.971278c -5.00  -3.93    +56.7833
iter: 223 08:47:09  -804.973507c -5.49  -3.61    +56.8220
iter: 224 08:48:19  -804.972788c -6.64  -3.86    +56.8133
iter: 225 08:49:30  -804.973767c -5.99  -3.80    +56.8237
iter: 226 08:50:41  -804.974099c -6.13  -3.94    +56.8221
iter: 227 08:51:52  -804.974431c -6.07  -3.77    +56.8311
iter: 228 08:53:03  -804.975840c -5.73  -4.07c   +56.8401
iter: 229 08:54:13  -804.974165c -5.87  -3.94    +56.8425
iter: 230 08:55:24  -804.973765c -5.92  -4.04c   +56.8541
iter: 231 08:56:34  -804.975980c -5.51  -3.83    +56.8300
iter: 232 08:57:45  -804.973566c -5.32  -3.98    +56.8776
iter: 233 08:58:56  -804.973615c -5.99  -3.86    +56.8789
iter: 234 09:00:06  -804.974472c -5.99  -3.86    +56.8711
iter: 235 09:01:17  -804.973667c -5.81  -3.83    +56.8775
iter: 236 09:02:27  -804.974449c -6.23  -3.80    +56.8565
iter: 237 09:03:38  -804.976095c -5.80  -3.89    +56.8554
iter: 238 09:04:49  -804.974595c -5.48  -3.89    +56.8522
iter: 239 09:05:59  -804.976985c -5.41  -3.79    +56.8573
iter: 240 09:07:10  -804.979145c -5.33  -3.98    +56.8634
iter: 241 09:08:21  -804.978428c -6.39  -3.82    +56.8507
iter: 242 09:09:31  -804.978885c -6.08  -4.02c   +56.8432
iter: 243 09:10:42  -804.980036c -5.91  -3.95    +56.8337
iter: 244 09:11:53  -804.979810c -5.94  -3.91    +56.8387
iter: 245 09:13:04  -804.980545c -5.83  -3.78    +56.8160
iter: 246 09:14:14  -804.980852c -6.27  -3.86    +56.8040
iter: 247 09:15:25  -804.981619c -5.98  -3.83    +56.8038
iter: 248 09:16:36  -804.981841c -5.69  -3.80    +56.7997
iter: 249 09:17:47  -804.981674c -6.22  -3.76    +56.7967
iter: 250 09:18:58  -804.982966c -5.81  -3.91    +56.7859
iter: 251 09:20:09  -804.982482c -6.32  -3.75    +56.7861
iter: 252 09:21:20  -804.983105c -6.14  -3.88    +56.7534
iter: 253 09:22:31  -804.983247c -6.54  -3.91    +56.7593
iter: 254 09:23:41  -804.984301c -5.91  -3.88    +56.7353
iter: 255 09:24:52  -804.982522c -5.79  -3.78    +56.7784
iter: 256 09:26:03  -804.982025c -5.76  -3.85    +56.8169
iter: 257 09:27:14  -804.983197c -5.78  -3.89    +56.7769
iter: 258 09:28:25  -804.982678c -6.37  -3.78    +56.7712
iter: 259 09:29:36  -804.983294c -6.10  -3.99    +56.7571
iter: 260 09:30:47  -804.984068c -6.07  -4.01c   +56.7595
iter: 261 09:31:58  -804.984408c -6.10  -3.87    +56.7370
iter: 262 09:33:09  -804.984327c -7.14  -4.02c   +56.7425
iter: 263 09:34:20  -804.984875c -6.27  -4.03c   +56.7281
iter: 264 09:35:31  -804.984408c -6.23  -3.97    +56.7281
iter: 265 09:36:42  -804.985352c -5.88  -3.95    +56.7191
iter: 266 09:37:53  -804.985113c -6.57  -3.86    +56.7194
iter: 267 09:39:04  -804.986760c -5.93  -4.08c   +56.7031
iter: 268 09:40:15  -804.985789c -6.26  -4.04c   +56.7064
iter: 269 09:41:26  -804.985514c -6.42  -4.10c   +56.6668
iter: 270 09:42:37  -804.986929c -6.28  -4.19c   +56.6699
iter: 271 09:43:48  -804.982976c -5.37  -4.21c   +56.6687
iter: 272 09:44:59  -804.980464c -5.30  -4.06c   +56.6905
iter: 273 09:46:10  -804.978995c -5.27  -3.91    +56.7231
iter: 274 09:47:21  -804.978834c -5.55  -3.76    +56.7566
iter: 275 09:48:32  -804.979479c -6.32  -3.73    +56.7551
iter: 276 09:49:43  -804.979197c -6.40  -3.79    +56.7701
iter: 277 09:50:55  -804.979806c -5.95  -3.83    +56.7293
iter: 278 09:52:06  -804.979949c -5.98  -3.92    +56.7655
iter: 279 09:53:17  -804.980033c -5.81  -3.94    +56.7012
iter: 280 09:54:28  -804.981083c -6.10  -4.09c   +56.7495
iter: 281 09:55:39  -804.981191c -6.42  -4.11c   +56.7166
iter: 282 09:56:50  -804.982650c -6.02  -4.24c   +56.7379
iter: 283 09:58:01  -804.982557c -6.49  -4.06c   +56.7296
iter: 284 09:59:12  -804.983573c -6.22  -4.30c   +56.7361
iter: 285 10:00:23  -804.977171c -4.65  -4.18c   +56.7066
iter: 286 10:01:34  -804.975165c -4.96  -3.89    +56.6893
iter: 287 10:02:45  -804.975839c -5.84  -3.72    +56.7000
iter: 288 10:03:56  -804.976706c -6.19  -3.73    +56.7023
iter: 289 10:05:07  -804.978024c -5.74  -3.78    +56.7041
iter: 290 10:06:18  -804.977817c -6.34  -3.93    +56.7034
iter: 291 10:07:30  -804.978715c -5.95  -3.78    +56.7073
iter: 292 10:08:41  -804.979129c -6.40  -3.96    +56.7106
iter: 293 10:09:52  -804.979423c -6.25  -4.01c   +56.7059
iter: 294 10:11:03  -804.979831c -5.98  -3.91    +56.7136
iter: 295 10:12:14  -804.980110c -6.30  -3.93    +56.7160
iter: 296 10:13:26  -804.981040c -6.05  -4.23c   +56.7137
iter: 297 10:14:37  -804.980111c -6.38  -4.12c   +56.7233
iter: 298 10:15:48  -804.980254c -6.85  -4.25c   +56.7498
iter: 299 10:16:59  -804.981015c -6.41  -4.39c   +56.7356
iter: 300 10:18:10  -804.979539c -5.91  -4.48c   +56.7689
iter: 301 10:19:22  -804.978508c -5.75  -4.27c   +56.7949
iter: 302 10:20:33  -804.978462c -6.30  -4.06c   +56.8063
iter: 303 10:21:45  -804.979132c -6.04  -4.04c   +56.8283
iter: 304 10:22:56  -804.979797c -6.20  -4.09c   +56.8372
iter: 305 10:24:07  -804.975532c -4.73  -4.17c   +56.7586
iter: 306 10:25:18  -804.975827c -6.02  -3.70    +56.7520
iter: 307 10:26:30  -804.976217c -6.51  -3.74    +56.7594
iter: 308 10:27:41  -804.976613c -6.16  -3.71    +56.7486
iter: 309 10:28:52  -804.976584c -6.40  -3.74    +56.7456
iter: 310 10:30:05  -804.977544c -5.51  -3.80    +56.7377
iter: 311 10:31:19  -804.978351c -5.50  -3.70    +56.7317
iter: 312 10:32:32  -804.977794c -5.74  -3.67    +56.7320
iter: 313 10:33:46  -804.979199c -5.81  -4.09c   +56.7465
iter: 314 10:34:59  -804.978166c -6.49  -4.06c   +56.7341
iter: 315 10:36:13  -804.977583c -6.42  -4.25c   +56.7217
iter: 316 10:37:27  -804.978948c -6.11  -4.14c   +56.7337
iter: 317 10:38:40  -804.977826c -6.38  -4.38c   +56.7175
iter: 318 10:39:54  -804.978844c -6.36  -4.18c   +56.7252
iter: 319 10:41:08  -804.978416c -7.17  -4.36c   +56.7246
iter: 320 10:42:21  -804.979136c -6.53  -4.39c   +56.7294
iter: 321 10:43:35  -804.979041c -7.12  -4.55c   +56.7288
iter: 322 10:44:49  -804.979908c -6.22  -4.39c   +56.7255
iter: 323 10:46:03  -804.980999c -5.99  -4.72c   +56.7235
iter: 324 10:47:16  -804.975177c -4.63  -4.36c   +56.7460
iter: 325 10:48:30  -804.975218c -5.64  -3.85    +56.7532
iter: 326 10:49:44  -804.975894c -6.48  -3.85    +56.7548
iter: 327 10:50:58  -804.979313c -5.02  -3.92    +56.7671
iter: 328 10:52:11  -804.978149c -6.48  -4.56c   +56.7679
iter: 329 10:53:25  -804.980149c -5.54  -4.26c   +56.7749
iter: 330 10:54:39  -804.978080c -5.68  -4.33c   +56.7769
iter: 331 10:55:53  -804.977719c -6.13  -4.24c   +56.7870
iter: 332 10:57:07  -804.978699c -6.18  -4.11c   +56.7844
iter: 333 10:58:20  -804.979394c -6.24  -4.38c   +56.7905
iter: 334 10:59:34  -804.977199c -5.49  -4.48c   +56.7776
iter: 335 11:00:47  -804.972191c -4.44  -4.08c   +56.7280
iter: 336 11:02:01  -804.976103c -5.01  -3.57    +56.7610
iter: 337 11:03:15  -804.976912c -5.60  -3.92    +56.7627
iter: 338 11:04:28  -804.977262c -6.28  -4.07c   +56.7653
iter: 339 11:05:42  -804.977844c -6.27  -4.12c   +56.7705
iter: 340 11:06:56  -804.976021c -5.58  -4.24c   +56.7643
iter: 341 11:08:09  -804.969412c -4.16  -3.93    +56.7337
iter: 342 11:09:23  -804.977766c -4.23  -3.40    +56.7718
iter: 343 11:10:37  -804.976928c -5.84  -4.23c   +56.7690
iter: 344 11:11:50  -804.976964c -6.68  -4.07c   +56.7696
iter: 345 11:13:04  -804.977510c -6.37  -4.07c   +56.7776
iter: 346 11:14:17  -804.979408c -5.47  -4.15c   +56.8037
iter: 347 11:15:31  -804.971375c -4.19  -4.58c   +56.6852
iter: 348 11:16:44  -804.972692c -5.70  -3.55    +56.7022
iter: 349 11:17:58  -804.973091c -6.28  -3.64    +56.7023
iter: 350 11:19:12  -804.974078c -5.82  -3.68    +56.7061
iter: 351 11:20:26  -804.974817c -5.98  -3.76    +56.7105
iter: 352 11:21:40  -804.973578c -5.58  -3.82    +56.7094
iter: 353 11:22:53  -804.974378c -6.05  -3.66    +56.7185
iter: 354 11:24:07  -804.973345c -6.05  -3.74    +56.7206
iter: 355 11:25:21  -804.973631c -6.20  -3.68    +56.7349
iter: 356 11:26:36  -804.973966c -5.86  -3.59    +56.7309
iter: 357 11:27:50  -804.973898c -5.52  -3.66    +56.7716
iter: 358 11:29:04  -804.973883c -5.86  -3.65    +56.7432
iter: 359 11:30:18  -804.975387c -5.80  -3.88    +56.7402
iter: 360 11:31:32  -804.973618c -6.11  -3.97    +56.7512
iter: 361 11:32:46  -804.972168c -5.47  -3.96    +56.7871
iter: 362 11:34:00  -804.975307c -5.37  -3.77    +56.7570
iter: 363 11:35:15  -804.975305c -6.12  -4.04c   +56.7535
iter: 364 11:36:29  -804.976195c -6.00  -4.09c   +56.7647
iter: 365 11:37:43  -804.976180c -6.49  -4.09c   +56.7605
iter: 366 11:38:57  -804.977328c -6.08  -4.22c   +56.7592
iter: 367 11:40:12  -804.976464c -6.57  -4.17c   +56.7663
iter: 368 11:41:26  -804.976383c -6.52  -4.32c   +56.7786
iter: 369 11:42:40  -804.977206c -6.25  -4.21c   +56.7572
iter: 370 11:43:55  -804.977041c -6.53  -4.34c   +56.7922
iter: 371 11:45:09  -804.977761c -6.43  -4.37c   +56.7944
iter: 372 11:46:23  -804.976994c -6.75  -4.37c   +56.7885
iter: 373 11:47:38  -804.971366c -4.63  -4.47c   +56.7390
iter: 374 11:48:52  -804.974125c -5.64  -3.79    +56.7590
iter: 375 11:50:07  -804.974350c -6.57  -4.09c   +56.7552
iter: 376 11:51:21  -804.975750c -5.72  -4.13c   +56.7518
iter: 377 11:52:36  -804.976307c -6.19  -4.28c   +56.7532
iter: 378 11:53:50  -804.971387c -4.79  -4.30c   +56.7357
iter: 379 11:55:05  -804.970899c -5.47  -3.85    +56.7397
iter: 380 11:56:19  -804.972225c -5.93  -3.73    +56.7422
iter: 381 11:57:34  -804.973121c -5.97  -3.88    +56.7464
iter: 382 11:58:48  -804.973394c -6.49  -3.90    +56.7563
iter: 383 12:00:03  -804.974016c -5.96  -3.95    +56.7652
iter: 384 12:01:17  -804.974012c -6.23  -3.82    +56.7638
iter: 385 12:02:31  -804.975766c -5.63  -3.85    +56.7699
iter: 386 12:03:45  -804.974232c -6.01  -3.74    +56.7727
iter: 387 12:05:00  -804.974854c -6.17  -3.96    +56.7948
iter: 388 12:06:14  -804.975533c -6.28  -4.28c   +56.7951
iter: 389 12:07:28  -804.976486c -5.98  -4.22c   +56.8033
iter: 390 12:08:42  -804.976902c -6.08  -4.31c   +56.8083
iter: 391 12:09:57  -804.978052c -5.82  -4.45c   +56.8124
iter: 392 12:11:11  -804.976526c -5.97  -4.21c   +56.8038
iter: 393 12:12:25  -804.971452c -4.56  -4.45c   +56.7729
iter: 394 12:13:40  -804.972878c -5.98  -3.81    +56.7745
iter: 395 12:14:54  -804.974395c -5.56  -3.98    +56.7797
iter: 396 12:16:08  -804.975173c -5.94  -4.23c   +56.7838
iter: 397 12:17:22  -804.974468c -6.75  -4.34c   +56.7792
iter: 398 12:18:36  -804.975318c -6.30  -4.27c   +56.7848
iter: 399 12:19:50  -804.973632c -5.74  -4.45c   +56.7670
iter: 400 12:21:04  -804.969925c -4.81  -4.13c   +56.7162
iter: 401 12:22:19  -804.969456c -5.60  -3.74    +56.7095
iter: 402 12:23:33  -804.969237c -6.14  -3.71    +56.7063
iter: 403 12:24:47  -804.968166c -5.15  -3.70    +56.6814
iter: 404 12:26:01  -804.968069c -5.74  -3.66    +56.6715
iter: 405 12:27:15  -804.967605c -5.75  -3.67    +56.6768
iter: 406 12:28:29  -804.967735c -5.79  -3.71    +56.6721
iter: 407 12:29:44  -804.968638c -5.76  -3.73    +56.6879
iter: 408 12:30:58  -804.968005c -6.13  -3.78    +56.6802
iter: 409 12:32:12  -804.969211c -5.82  -3.91    +56.7119
iter: 410 12:33:27  -804.968994c -6.12  -3.99    +56.7154
iter: 411 12:34:41  -804.969892c -6.14  -4.05c   +56.7360
iter: 412 12:35:55  -804.969442c -6.50  -4.11c   +56.7301
iter: 413 12:37:09  -804.969928c -6.43  -4.14c   +56.7382
iter: 414 12:38:24  -804.970441c -6.52  -4.26c   +56.7431
iter: 415 12:39:38  -804.970566c -6.58  -4.21c   +56.7511
iter: 416 12:40:52  -804.971396c -6.23  -4.44c   +56.7658
iter: 417 12:42:06  -804.970106c -6.16  -4.38c   +56.7462
iter: 418 12:43:20  -804.965977c -4.79  -4.49c   +56.6740
iter: 419 12:44:34  -804.966944c -6.25  -3.84    +56.6892
iter: 420 12:45:49  -804.968073c -5.98  -3.93    +56.7060
iter: 421 12:47:03  -804.968643c -6.23  -4.06c   +56.7136
iter: 422 12:48:17  -804.965017c -4.91  -4.14c   +56.6699
iter: 423 12:49:31  -804.965281c -5.97  -3.75    +56.6733
iter: 424 12:50:45  -804.965346c -6.67  -3.70    +56.6759
iter: 425 12:51:59  -804.965652c -6.55  -3.77    +56.6848
iter: 426 12:53:13  -804.965559c -7.28  -3.81    +56.6816
iter: 427 12:54:28  -804.967584c -5.60  -3.79    +56.6881
iter: 428 12:55:42  -804.965435c -5.83  -3.61    +56.6951
iter: 429 12:56:55  -804.967042c -5.75  -3.84    +56.7074
iter: 430 12:58:08  -804.966733c -6.01  -3.75    +56.7073
iter: 431 12:59:21  -804.967039c -6.08  -3.91    +56.7181
iter: 432 13:00:34  -804.967626c -6.11  -4.17c   +56.7219
iter: 433 13:01:48  -804.968139c -6.06  -4.11c   +56.7338
iter: 434 13:03:01  -804.968502c -6.38  -4.23c   +56.7418
iter: 435 13:04:15  -804.968804c -6.35  -4.37c   +56.7447
iter: 436 13:05:29  -804.969058c -6.68  -4.36c   +56.7455
iter: 437 13:06:42  -804.969281c -6.76  -4.43c   +56.7470
iter: 438 13:07:56  -804.970098c -6.12  -4.55c   +56.7572
iter: 439 13:09:10  -804.966651c -4.99  -4.39c   +56.7140
iter: 440 13:10:23  -804.964682c -4.98  -4.17c   +56.6792
iter: 441 13:11:37  -804.965522c -6.18  -3.87    +56.6906
iter: 442 13:12:51  -804.966667c -5.68  -3.99    +56.7054
iter: 443 13:14:04  -804.966657c -6.85  -4.19c   +56.7041
iter: 444 13:15:17  -804.967020c -6.58  -4.21c   +56.7130
iter: 445 13:16:30  -804.966721c -6.94  -4.29c   +56.6982
iter: 446 13:17:43  -804.967598c -6.10  -4.23c   +56.7264
iter: 447 13:18:57  -804.966312c -5.67  -4.48c   +56.6675
iter: 448 13:20:10  -804.967174c -6.19  -4.11c   +56.6917
iter: 449 13:21:23  -804.967350c -6.83  -4.36c   +56.6854
iter: 450 13:22:37  -804.967471c -6.89  -4.36c   +56.7036
iter: 451 13:23:50  -804.967897c -6.56  -4.34c   +56.6942
iter: 452 13:25:04  -804.967679c -7.18  -4.45c   +56.7045
iter: 453 13:26:17  -804.968082c -6.68  -4.54c   +56.7198
iter: 454 13:27:30  -804.967428c -6.07  -4.60c   +56.6680
iter: 455 13:28:44  -804.968294c -6.23  -4.34c   +56.7017
iter: 456 13:29:57  -804.967570c -6.12  -4.64c   +56.6505
iter: 457 13:31:11  -804.968369c -6.45  -4.35c   +56.6693
iter: 458 13:32:24  -804.966574c -5.53  -4.58c   +56.6185
iter: 459 13:33:38  -804.966417c -5.99  -4.14c   +56.5937
iter: 460 13:34:51  -804.967564c -5.50  -4.07c   +56.6684
iter: 461 13:36:05  -804.967878c -6.43  -4.41c   +56.6639
iter: 462 13:37:18  -804.968114c -6.69  -4.35c   +56.6771
iter: 463 13:38:32  -804.968713c -6.39  -4.61c   +56.6829
iter: 464 13:39:46  -804.965093c -4.97  -4.79c   +56.6355
iter: 465 13:41:00  -804.962845c -4.85  -4.00    +56.5982
iter: 466 13:42:14  -804.963973c -5.93  -3.75    +56.6187
iter: 467 13:43:28  -804.964892c -5.77  -3.86    +56.6300
iter: 468 13:44:42  -804.965195c -6.35  -3.99    +56.6293
iter: 469 13:45:56  -804.964470c -6.26  -4.02c   +56.6383
iter: 470 13:47:10  -804.965111c -6.21  -3.94    +56.6319
iter: 471 13:48:24  -804.964941c -6.78  -4.05c   +56.6404
iter: 472 13:49:38  -804.966191c -5.77  -3.98    +56.6326
iter: 473 13:50:52  -804.965505c -6.04  -3.75    +56.6314
iter: 474 13:52:06  -804.965707c -6.24  -3.91    +56.6385
iter: 475 13:53:20  -804.966602c -6.06  -4.19c   +56.6382
iter: 476 13:54:33  -804.965913c -6.52  -4.03c   +56.6380
iter: 477 13:55:48  -804.966643c -6.43  -4.19c   +56.6475
iter: 478 13:57:02  -804.966441c -6.84  -4.32c   +56.6471
iter: 479 13:58:15  -804.966738c -6.47  -4.32c   +56.6355
iter: 480 13:59:30  -804.966924c -6.88  -4.33c   +56.6376
iter: 481 14:00:44  -804.967199c -6.67  -4.53c   +56.6352
iter: 482 14:01:58  -804.967686c -6.57  -4.65c   +56.6336
iter: 483 14:03:12  -804.966623c -6.25  -4.62c   +56.6405
iter: 484 14:04:25  -804.964076c -5.11  -4.66c   +56.6759
iter: 485 14:05:39  -804.964614c -6.50  -4.02c   +56.6743
iter: 486 14:06:54  -804.965462c -6.07  -4.11c   +56.6755
iter: 487 14:08:08  -804.965830c -6.38  -4.32c   +56.6783
iter: 488 14:09:22  -804.962440c -4.77  -4.44c   +56.6479
iter: 489 14:10:36  -804.963607c -5.97  -3.80    +56.6570
iter: 490 14:11:50  -804.963439c -7.00  -3.93    +56.6575
iter: 491 14:13:05  -804.963866c -6.58  -3.93    +56.6610
iter: 492 14:14:19  -804.963647c -7.36  -4.01c   +56.6594
iter: 493 14:15:33  -804.963787c -6.66  -3.99    +56.6613
iter: 494 14:16:47  -804.964400c -6.17  -4.02c   +56.6613
iter: 495 14:18:02  -804.964327c -6.29  -3.90    +56.6634
iter: 496 14:19:16  -804.964816c -5.99  -4.03c   +56.6541
iter: 497 14:20:30  -804.964494c -6.55  -3.96    +56.6566
iter: 498 14:21:44  -804.965034c -6.45  -4.33c   +56.6660
iter: 499 14:22:58  -804.965309c -6.59  -4.55c   +56.6676
iter: 500 14:24:12  -804.965623c -6.43  -4.49c   +56.6657
iter: 501 14:25:26  -804.965939c -6.49  -4.48c   +56.6678
iter: 502 14:26:40  -804.965778c -7.62c -4.55c   +56.6659

Converged after 502 iterations.

Dipole moment: (28.984148, 17.390338, 8.465579) |e|*Ang

Total magnetic moment: (0.000000, 0.000000, 56.665928)
Local magnetic moments:
   0 Ni ( 0.000000,  0.000000,  0.208946)
   1 Al ( 0.000000,  0.000000, -0.029830)
   2 Ni ( 0.000000,  0.000000,  0.202277)
   3 Co ( 0.000000,  0.000000,  1.336840)
   4 Al ( 0.000000,  0.000000, -0.030409)
   5 Cr ( 0.000000,  0.000000,  1.978833)
   6 Co ( 0.000000,  0.000000,  1.200976)
   7 Al ( 0.000000,  0.000000, -0.032219)
   8 Al ( 0.000000,  0.000000, -0.044124)
   9 Fe ( 0.000000,  0.000000,  2.167028)
  10 Fe ( 0.000000,  0.000000,  2.230532)
  11 Fe ( 0.000000,  0.000000,  2.192423)
  12 Ni ( 0.000000,  0.000000,  0.296290)
  13 Ni ( 0.000000,  0.000000,  0.233022)
  14 Co ( 0.000000,  0.000000,  1.041797)
  15 Fe ( 0.000000,  0.000000,  2.317098)
  16 Ni ( 0.000000,  0.000000,  0.397237)
  17 Co ( 0.000000,  0.000000,  1.233197)
  18 Al ( 0.000000,  0.000000, -0.031865)
  19 Ni ( 0.000000,  0.000000,  0.336185)
  20 Co ( 0.000000,  0.000000,  1.086726)
  21 Al ( 0.000000,  0.000000, -0.001315)
  22 Cr ( 0.000000,  0.000000, -2.233386)
  23 Ni ( 0.000000,  0.000000,  0.109144)
  24 Cr ( 0.000000,  0.000000, -0.684877)
  25 Fe ( 0.000000,  0.000000,  1.979494)
  26 Fe ( 0.000000,  0.000000,  2.209689)
  27 Cr ( 0.000000,  0.000000, -1.782469)
  28 Fe ( 0.000000,  0.000000,  2.281687)
  29 Co ( 0.000000,  0.000000,  0.874877)
  30 Cr ( 0.000000,  0.000000,  0.178234)
  31 Fe ( 0.000000,  0.000000,  2.348276)
  32 Ni ( 0.000000,  0.000000,  0.196749)
  33 Co ( 0.000000,  0.000000,  1.063464)
  34 Cr ( 0.000000,  0.000000, -0.400359)
  35 Cr ( 0.000000,  0.000000, -0.452067)
  36 Fe ( 0.000000,  0.000000,  2.214930)
  37 Fe ( 0.000000,  0.000000,  1.949504)
  38 Ni ( 0.000000,  0.000000,  0.258811)
  39 Al ( 0.000000,  0.000000, -0.028611)
  40 Al ( 0.000000,  0.000000, -0.016006)
  41 Co ( 0.000000,  0.000000,  0.967997)
  42 Al ( 0.000000,  0.000000, -0.012160)
  43 Cr ( 0.000000,  0.000000,  0.283888)
  44 Ni ( 0.000000,  0.000000,  0.010057)
  45 Al ( 0.000000,  0.000000, -0.015766)
  46 Al ( 0.000000,  0.000000, -0.024313)
  47 Co ( 0.000000,  0.000000,  0.997125)
  48 Fe ( 0.000000,  0.000000,  1.975998)
  49 Cr ( 0.000000,  0.000000, -0.755092)
  50 Cr ( 0.000000,  0.000000, -1.887833)
  51 Cr ( 0.000000,  0.000000,  0.087398)
  52 Ni ( 0.000000,  0.000000,  0.070606)
  53 Co ( 0.000000,  0.000000,  1.015312)
  54 Cr ( 0.000000,  0.000000, -1.490973)
  55 Al ( 0.000000,  0.000000, -0.006166)
  56 Cr ( 0.000000,  0.000000,  1.152583)
  57 Cr ( 0.000000,  0.000000, -0.707667)
  58 Co ( 0.000000,  0.000000,  0.975534)
  59 Ni ( 0.000000,  0.000000,  0.087785)
  60 Fe ( 0.000000,  0.000000,  1.966236)
  61 Co ( 0.000000,  0.000000,  0.857040)
  62 Co ( 0.000000,  0.000000,  1.045333)
  63 Al ( 0.000000,  0.000000, -0.034663)
  64 Ni ( 0.000000,  0.000000,  0.271417)
  65 Ni ( 0.000000,  0.000000,  0.032012)
  66 Co ( 0.000000,  0.000000,  0.270877)
  67 Cr ( 0.000000,  0.000000, -0.081036)
  68 Ni ( 0.000000,  0.000000, -0.009563)
  69 Al ( 0.000000,  0.000000, -0.004643)
  70 Cr ( 0.000000,  0.000000,  0.934841)
  71 Cr ( 0.000000,  0.000000, -1.693017)
  72 Al ( 0.000000,  0.000000, -0.020088)
  73 Cr ( 0.000000,  0.000000, -2.148117)
  74 Fe ( 0.000000,  0.000000,  2.148711)
  75 Fe ( 0.000000,  0.000000,  2.366474)
  76 Cr ( 0.000000,  0.000000, -1.955621)
  77 Ni ( 0.000000,  0.000000,  0.384005)
  78 Ni ( 0.000000,  0.000000,  0.193970)
  79 Co ( 0.000000,  0.000000,  1.163472)
  80 Co ( 0.000000,  0.000000,  0.525450)
  81 Fe ( 0.000000,  0.000000,  2.179655)
  82 Al ( 0.000000,  0.000000, -0.004280)
  83 Ni ( 0.000000,  0.000000,  0.084239)
  84 Fe ( 0.000000,  0.000000,  2.119131)
  85 Al ( 0.000000,  0.000000, -0.043599)
  86 Fe ( 0.000000,  0.000000,  2.428729)
  87 Fe ( 0.000000,  0.000000,  2.358280)
  88 Ni ( 0.000000,  0.000000,  0.407545)
  89 Al ( 0.000000,  0.000000, -0.048021)
  90 Co ( 0.000000,  0.000000,  1.515712)
  91 Fe ( 0.000000,  0.000000,  2.124358)
  92 Co ( 0.000000,  0.000000,  1.224635)
  93 Co ( 0.000000,  0.000000,  1.453206)
  94 Fe ( 0.000000,  0.000000,  2.423754)
  95 Ni ( 0.000000,  0.000000,  0.238403)
  96 Cr ( 0.000000,  0.000000, -1.706204)
  97 Cr ( 0.000000,  0.000000, -1.387390)
  98 Ni ( 0.000000,  0.000000,  0.204321)
  99 Fe ( 0.000000,  0.000000,  2.294845)
 100 Al ( 0.000000,  0.000000, -0.035217)
 101 Ni ( 0.000000,  0.000000,  0.122714)
 102 Co ( 0.000000,  0.000000,  1.024917)
 103 Al ( 0.000000,  0.000000, -0.001622)
 104 Cr ( 0.000000,  0.000000,  0.442008)
 105 Al ( 0.000000,  0.000000, -0.021790)
 106 Fe ( 0.000000,  0.000000,  2.263455)
 107 Co ( 0.000000,  0.000000,  0.590889)

Energy contributions relative to reference atoms: (reference = -3235165.067515)

Kinetic:       +220.514185
Potential:     -216.565446
External:        +0.000000
XC:            -838.127521
Entropy (-ST):   -4.095417
Local:          +31.260713
--------------------------
Free energy:   -807.013486
Extrapolated:  -804.965778

Spin contamination: 24.409076 electrons
Showing only first 2 kpts
                      Up                     Down
 Kpt  Band  Eigenvalues  Occupancy  Eigenvalues  Occupancy
  0   454      8.99753    0.99570      9.88790    0.03051
  0   455      9.00456    0.99539      9.90966    0.02470
  0   456      9.01715    0.99477      9.91847    0.02266
  0   457      9.03926    0.99349      9.93507    0.01926

  1   454      8.99481    0.99582      9.89860    0.02750
  1   455      9.02085    0.99458      9.90113    0.02683
  1   456      9.02774    0.99419      9.91376    0.02373
  1   457      9.03936    0.99348      9.92415    0.02143


Fermi level: 9.54205

No gap

Forces in eV/Ang:
  0 Ni    0.38975   -0.58140   -0.60276
  1 Al    0.11228   -0.41759   -1.18004
  2 Ni   -0.08016    0.06498   -0.00587
  3 Co    0.15999   -0.03501   -0.25295
  4 Al   -0.06436    0.32545    0.05818
  5 Cr    0.17830   -0.19411    0.89551
  6 Co   -0.27385    0.33852    1.12015
  7 Al   -0.69512    0.21637   -0.55086
  8 Al   -0.83772    0.06058    1.68364
  9 Fe    0.05427   -0.23600    0.83564
 10 Fe   -0.04986   -0.59685    0.44104
 11 Fe    0.35200    0.41758    0.12830
 12 Ni    0.07708   -0.24038   -0.07985
 13 Ni   -0.05699   -0.01835    0.09964
 14 Co    0.49526    0.09384   -0.19091
 15 Fe    0.30629   -0.16536    0.59514
 16 Ni   -0.30774   -0.08796    0.32767
 17 Co   -0.57630    0.55681    0.21246
 18 Al   -0.82465   -0.08149   -0.30780
 19 Ni   -0.27736    0.05870   -0.26404
 20 Co    0.41472    0.05571   -0.25122
 21 Al    0.90378   -0.06541   -0.57828
 22 Cr   -0.68127   -0.02663    0.28670
 23 Ni    0.01534    0.07219   -0.05595
 24 Cr    0.04981    1.02366    0.25597
 25 Fe   -0.39606    0.55690   -0.91710
 26 Fe    0.32280   -0.12738   -0.08966
 27 Cr   -1.02184   -0.33518    0.39432
 28 Fe   -0.14659    0.12857    0.23272
 29 Co    0.41105   -0.34734    0.50530
 30 Cr   -1.39070    1.58722   -0.26649
 31 Fe   -0.00343   -0.65183    0.59498
 32 Ni   -0.05577   -0.15392   -0.37885
 33 Co   -0.13877    0.08011    0.60843
 34 Cr    0.97440    1.06234   -0.00102
 35 Cr    1.32052   -0.62125    0.53502
 36 Fe   -0.30146   -0.23907   -0.21198
 37 Fe    0.20015    0.66840   -0.27529
 38 Ni    0.72545    0.05042   -0.18796
 39 Al    0.89724    0.15296    0.41105
 40 Al    1.22454    1.15528   -0.44785
 41 Co    0.15491    0.17441   -0.77427
 42 Al   -0.73643    1.49042   -1.01560
 43 Cr   -0.17380   -0.16162   -0.60425
 44 Ni   -0.81655    0.07965   -0.15305
 45 Al    0.26989    0.65077   -0.11222
 46 Al   -0.23277   -0.34284   -0.71163
 47 Co   -0.18348    0.25507   -0.32201
 48 Fe   -0.40736    0.32481    0.23174
 49 Cr   -0.22751   -0.07645    0.31112
 50 Cr    0.87297    0.71186    1.30291
 51 Cr    0.44019   -0.27810    0.25038
 52 Ni   -0.38728   -0.21911   -0.00026
 53 Co   -0.49122    0.01386    0.13131
 54 Cr   -0.58996   -0.76078    0.26056
 55 Al   -1.35091    0.99578    0.63038
 56 Cr    0.69240   -0.89672    0.32250
 57 Cr    0.79630   -0.01294    0.43464
 58 Co    0.06285    0.46809   -0.19660
 59 Ni   -0.16266   -0.56307   -0.13501
 60 Fe   -0.03966   -0.27762   -0.05535
 61 Co   -0.11169   -0.51757    0.52691
 62 Co   -0.29573   -0.40305    0.33603
 63 Al    0.05846   -0.49117    0.00555
 64 Ni    0.09406   -0.30507   -0.41679
 65 Ni    0.01081   -0.00040   -0.72599
 66 Co    0.01081    0.31698   -0.55095
 67 Cr   -0.03107   -0.80815   -1.43158
 68 Ni   -0.08577    0.01523   -0.26809
 69 Al    0.74940   -0.26921   -0.70318
 70 Cr    0.97770   -0.10286    0.50153
 71 Cr    0.37111   -0.05934   -1.13822
 72 Al    0.88652   -0.53575   -0.04024
 73 Cr    0.81884    0.71943    1.20318
 74 Fe   -0.67700    0.11191    0.40733
 75 Fe    0.72829    0.47662   -0.20898
 76 Cr   -1.41042    1.44368    0.31953
 77 Ni   -0.16799    0.38870    0.02843
 78 Ni   -0.23248    0.29774   -0.17822
 79 Co   -0.76978    0.53054    0.11588
 80 Co   -0.54656   -0.04053   -0.21991
 81 Fe   -0.17765    0.68114   -0.38354
 82 Al    1.13391    0.28333   -0.40167
 83 Ni    0.32751    0.26439    0.12833
 84 Fe    0.13293    0.17231   -0.27542
 85 Al   -0.01861    0.04440   -0.68961
 86 Fe    0.04127   -0.59313   -0.17841
 87 Fe   -0.02025   -0.44192   -0.62084
 88 Ni   -0.37019   -0.15881    0.09778
 89 Al    0.34673   -0.08863   -0.00030
 90 Co    0.10421    0.04221   -0.58760
 91 Fe    0.17722   -0.45370    0.24573
 92 Co    0.02736    0.51483    0.12557
 93 Co   -0.09209    0.34540   -0.00936
 94 Fe   -0.30484   -0.32753   -0.01189
 95 Ni    0.12137    0.00563    0.09896
 96 Cr    0.08448    0.28196    0.22069
 97 Cr   -0.31525   -0.75064    0.32106
 98 Ni   -0.45485    0.02493   -0.07551
 99 Fe   -0.71669   -0.12014    0.07545
100 Al   -0.56093   -0.57210   -0.17180
101 Ni    0.26300   -0.38479    0.21759
102 Co   -0.13018   -0.60694    0.17567
103 Al   -0.46716   -0.59331    1.11773
104 Cr    0.39274   -1.36345    0.55489
105 Al   -0.15251   -1.57186   -0.36435
106 Fe    0.71734    0.39638   -0.51231
107 Co    0.64184   -0.88206    0.41958

Timing:                              incl.     excl.
-----------------------------------------------------------
Forces:                             16.097    16.097   0.0% |
Hamiltonian:                         0.596     0.004   0.0% |
 Atomic:                             0.348     0.100   0.0% |
  XC Correction:                     0.248     0.248   0.0% |
 Calculate atomic Hamiltonians:      0.125     0.125   0.0% |
 Communicate:                        0.033     0.033   0.0% |
 Initialize Hamiltonian:             0.000     0.000   0.0% |
 Poisson:                            0.001     0.001   0.0% |
 XC 3D grid:                         0.085     0.085   0.0% |
LCAO initialization:                98.332     0.520   0.0% |
 LCAO eigensolver:                  10.194     0.010   0.0% |
  Calculate projections:             0.123     0.123   0.0% |
  DenseAtomicCorrection:             0.159     0.159   0.0% |
  Distribute overlap matrix:         1.532     1.532   0.0% |
  Orbital Layouts:                   4.939     4.939   0.0% |
  Potential matrix:                  2.889     2.889   0.0% |
  Sum over cells:                    0.541     0.541   0.0% |
 LCAO to grid:                      85.821    85.821   0.2% |
 Set positions (LCAO WFS):           1.797     1.309   0.0% |
  Basic WFS set positions:           0.003     0.003   0.0% |
  Basis functions set positions:     0.001     0.001   0.0% |
  P tci:                             0.138     0.138   0.0% |
  ST tci:                            0.148     0.148   0.0% |
  mktci:                             0.198     0.198   0.0% |
PWDescriptor:                        0.048     0.048   0.0% |
SCF-cycle:                       36271.702   415.954   1.1% |
 Davidson:                       35185.493  9659.312  26.5% |----------|
  Apply H:                         468.047   458.379   1.3% ||
   HMM T:                            9.668     9.668   0.0% |
  Subspace diag:                  3424.206     0.299   0.0% |
   calc_h_matrix:                 1300.924   800.287   2.2% ||
    Apply H:                       500.637   489.876   1.3% ||
     HMM T:                         10.761    10.761   0.0% |
   diagonalize:                    592.255   592.255   1.6% ||
   rotate_psi:                    1530.727  1530.727   4.2% |-|
  calc. matrices:                 7342.493  6655.417  18.3% |------|
   Apply H:                        687.076   667.553   1.8% ||
    HMM T:                          19.523    19.523   0.1% |
  diagonalize:                   10882.448 10882.448  29.9% |-----------|
  rotate_psi:                     3408.987  3408.987   9.4% |---|
 Density:                          339.193     0.012   0.0% |
  Atomic density matrices:          10.815    10.815   0.0% |
  Mix:                              81.119    81.119   0.2% |
  Multipole moments:                 0.227     0.227   0.0% |
  Pseudo density:                  247.020   247.004   0.7% |
   Symmetrize density:               0.015     0.015   0.0% |
 Hamiltonian:                      323.547     1.604   0.0% |
  Atomic:                          182.806    48.932   0.1% |
   XC Correction:                  133.874   133.874   0.4% |
  Calculate atomic Hamiltonians:    62.681    62.681   0.2% |
  Communicate:                      32.712    32.712   0.1% |
  Poisson:                           0.260     0.260   0.0% |
  XC 3D grid:                       43.483    43.483   0.1% |
 Orthonormalize:                     7.515     0.001   0.0% |
  calc_s_matrix:                     0.889     0.889   0.0% |
  inverse-cholesky:                  0.579     0.579   0.0% |
  projections:                       4.498     4.498   0.0% |
  rotate_psi_s:                      1.548     1.548   0.0% |
Set symmetry:                        0.001     0.001   0.0% |
Other:                               2.744     2.744   0.0% |
-----------------------------------------------------------
Total:                                     36389.520 100.0%

Date: Mon Apr 17 14:26:57 2023
