
  ___ ___ ___ _ _ _  
 |   |   |_  | | | | 
 | | | | | . | | | | 
 |__ |  _|___|_____|  22.8.0
 |___|_|             

User:   c.zeng@d0118
Date:   Thu Apr 13 23:51:06 2023
Arch:   x86_64
Pid:    117661
CWD:    /home/c.zeng/projects/hea-corrosion/hea-mlp/data-curation/bulk-md/dft-jobs/6
Python: 3.8.1
gpaw:   /home/c.zeng/usr/installs/gpaw/source/gpaw-22.8.0/gpaw
_gpaw:  /home/c.zeng/usr/installs/gpaw/source/gpaw-22.8.0/
        _gpaw.cpython-38-x86_64-linux-gnu.so
ase:    /home/c.zeng/.local/lib/python3.8/site-packages/ase-3.22.1-py3.8.egg/ase (version 3.22.1)
numpy:  /shared/centos7/python/3.8.1/lib/python3.8/site-packages/numpy (version 1.17.4)
scipy:  /shared/centos7/python/3.8.1/lib/python3.8/site-packages/scipy (version 1.4.1)
libxc:  4.2.3
units:  Angstrom and eV
cores: 30
OpenMP: False
OMP_NUM_THREADS: 1

Input parameters:
  convergence: {energy: 0.0001}
  kpts: [2 2 2]
  maxiter: 666
  mode: {ecut: 350.0,
         name: pw}
  occupations: {fixmagmom: False,
                name: fermi-dirac,
                width: 0.1}
  spinpol: True
  xc: PBE

System changes: positions, numbers, cell, pbc, initial_charges, initial_magmoms 

Initialize ...

species:
  Co:
    name: Cobalt
    id: 339d20d5b0b93d2de9531a1bee871d91
    Z: 27.0
    valence: 9
    core: 18
    charge: 0.0
    file: /home/c.zeng/usr/data/gpaw-setups-0.9.20000/Co.PBE.gz
    compensation charges: {type: gauss,
                           rc: 0.32,
                           lmax: 2}
    cutoffs: {filter: 1.87,
              core: 2.55}
    valence states:
      #              energy  rcut
      - 4s(2.00)    -5.469   1.005
      - 4p(0.00)    -1.277   1.058
      - 3d(7.00)    -8.205   1.005
      -  s          21.742   1.005
      -  p          25.934   1.058
      -  d          19.007   1.005
  
    # Using partial waves for Co as LCAO basis

  Fe:
    name: Iron
    id: 37abbd8d6c3c35915a9b583b742da910
    Z: 26.0
    valence: 8
    core: 18
    charge: 0.0
    file: /home/c.zeng/usr/data/gpaw-setups-0.9.20000/Fe.PBE.gz
    compensation charges: {type: gauss,
                           rc: 0.33,
                           lmax: 2}
    cutoffs: {filter: 2.06,
              core: 2.67}
    valence states:
      #              energy  rcut
      - 4s(2.00)    -5.291   1.164
      - 4p(0.00)    -1.326   1.058
      - 3d(6.00)    -7.505   1.058
      -  s          21.920   1.164
      -  p          25.885   1.058
      -  d          19.706   1.058
  
    # Using partial waves for Fe as LCAO basis

  Cr:
    name: Chromium
    id: 33f258bda2ca9f93018e70263a35547b
    Z: 24.0
    valence: 6
    core: 18
    charge: 0.0
    file: /home/c.zeng/usr/data/gpaw-setups-0.9.20000/Cr.PBE.gz
    compensation charges: {type: gauss,
                           rc: 0.35,
                           lmax: 2}
    cutoffs: {filter: 2.14,
              core: 3.04}
    valence states:
      #              energy  rcut
      - 4s(1.00)    -4.007   1.164
      - 4p(0.00)    -0.989   1.217
      - 3d(5.00)    -2.913   1.111
      -  s          23.205   1.164
      -  p          26.223   1.217
      -  d          24.299   1.111
  
    # Using partial waves for Cr as LCAO basis

  Ni:
    name: Nickel
    id: 0d9f38a9d6e76a2886f07bb4381f212b
    Z: 28.0
    valence: 16
    core: 12
    charge: 0.0
    file: /home/c.zeng/usr/data/gpaw-setups-0.9.20000/Ni.PBE.gz
    compensation charges: {type: gauss,
                           rc: 0.36,
                           lmax: 2}
    cutoffs: {filter: 2.14,
              core: 1.98}
    valence states:
      #              energy  rcut
      - 4s(2.00)    -5.642   1.164
      - 3p(6.00)   -71.394   1.207
      - 4p(0.00)    -1.226   1.207
      - 3d(8.00)    -8.875   1.138
      -  s          21.570   1.164
      -  d          18.337   1.138
  
    # Using partial waves for Ni as LCAO basis

Reference energy: -3846758.590871  # eV

Spin-polarized calculation.
Magnetic moment: 151.200000

Convergence criteria:
 Maximum [total energy] change in last 3 cyles: 0.0001 eV / electron
 Maximum integral of absolute [dens]ity change: 0.0001 electrons / valence electron
 Maximum integral of absolute [eigenst]ate change: 4e-08 eV^2 / valence electron
 Maximum number of scf [iter]ations: 666
 (Square brackets indicate name in SCF output, whereas a 'c' in
 the SCF output indicates the quantity has converged.)

Symmetries present (total): 1

  ( 1  0  0)
  ( 0  1  0)
  ( 0  0  1)

8 k-points: 2 x 2 x 2 Monkhorst-Pack grid
4 k-points in the irreducible part of the Brillouin zone
       k-points in crystal coordinates                weights
   0:     0.25000000   -0.25000000   -0.25000000          2/8
   1:     0.25000000   -0.25000000    0.25000000          2/8
   2:     0.25000000    0.25000000   -0.25000000          2/8
   3:     0.25000000    0.25000000    0.25000000          2/8

Wave functions: Plane wave expansion
  Cutoff energy: 350.000 eV
  Number of coefficients (min, max): 17755, 17755
  Pulay-stress correction: 0.000000 eV/Ang^3 (de/decut=0.000000)
  Using FFTW library
  ScaLapack parameters: grid=1x1, blocksize=None
  Wavefunction extrapolation:
    Improved wavefunction reuse through dual PAW basis 

Occupation numbers: Fermi-Dirac:
  width: 0.1000  # eV
 

Eigensolver
   Davidson(niter=2) 

Densities:
  Coarse grid: 48*48*48 grid
  Fine grid: 96*96*96 grid
  Total Charge: 0.000000 

Density mixing:
  Method: difference
  Backend: pulay
  Linear mixing parameter: 0.05
  old densities: 5
  Damping of long wavelength oscillations: 50 

Hamiltonian:
  XC and Coulomb potentials evaluated on a 96*96*96 grid
  Using the PBE Exchange-Correlation functional
  External potential:
    NoExternalPotential
 

XC parameters: PBE with 2 nearest neighbor stencil

Memory estimate:
  Process memory now: 253.20 MiB
  Calculator: 1084.22 MiB
    Density: 5.08 MiB
      Arrays: 2.05 MiB
      Localized functions: 2.21 MiB
      Mixer: 0.82 MiB
    Hamiltonian: 1.59 MiB
      Arrays: 1.52 MiB
      XC: 0.00 MiB
      Poisson: 0.00 MiB
      vbar: 0.06 MiB
    Wavefunctions: 1077.55 MiB
      Arrays psit_nG: 787.83 MiB
      Eigensolver: 278.98 MiB
      Projections: 5.75 MiB
      Projectors: 0.60 MiB
      PW-descriptor: 4.38 MiB

Total number of cores used: 30
Parallelization over k-points: 2
Domain decomposition: 5 x 3 x 1

Number of atoms: 108
Number of atomic orbitals: 1053
Number of bands in calculation: 727
Number of valence electrons: 1053
Bands to converge: occupied

... initialized

Initializing position-dependent things.

Density initialized from atomic densities
Creating initial wave functions:
  727 bands from LCAO basis set

        .-------------------------.  
       /|                         |  
      / |    Fe      Fe     Cro   |  
     / Co      Cr       Co        |  
    /   | Fe     CrFe             Co 
   /    |  Ni      CoCo     Cr    |  
  /  Coi|    FeCr     NiCo   Cr   |  
 *     Cr CrCr  Ni     NiNiCo Ni  |  
 |Co    |NiCo  NiCo Fe    Cr    Fe|  
 | Cr   |Fe Cr  Fe CNi    FCr     |  
 |    Cr| Ni FeCr     FeNi   NNi  |  
 |      Fe  Fe FeFNiCo FeCo     Ni|  
 |      |CrCo   CNi Fe  NiNiNi   Co  
 |      .-Cr--Cr---CNi------Ni----.  
 |   FeFe   Coo     Co  Co   Cr  /   
 |    FeCr     FFei   Nir       /    
 |   /   Fe              CoFe  /     
 |  /      Cr       Ni    CrCo/      
 | /Cr                 Ni    /       
 |/   Fe                    /        
 *----------------Fe-------*         

Positions:
   0 Co    -0.060244    0.030096   10.462070    ( 0.0000,  0.0000,  2.1000)
   1 Co    -0.068239    1.730190    1.615725    ( 0.0000,  0.0000,  2.1000)
   2 Fe     1.656523   -0.054940    1.787607    ( 0.0000,  0.0000,  2.0000)
   3 Fe     1.753667    1.778732   10.623155    ( 0.0000,  0.0000,  2.0000)
   4 Cr     3.581879    0.077329   10.610019    ( 0.0000,  0.0000,  0.0000)
   5 Cr     3.710958    1.857787    1.646987    ( 0.0000,  0.0000,  0.0000)
   6 Co     5.106872   10.535503    1.902097    ( 0.0000,  0.0000,  2.1000)
   7 Cr     5.420959    1.848708   10.440630    ( 0.0000,  0.0000,  0.0000)
   8 Fe     7.026565    0.029472   10.614699    ( 0.0000,  0.0000,  2.0000)
   9 Ni     7.046584    1.905881    1.683418    ( 0.0000,  0.0000,  1.5000)
  10 Ni     8.734833    0.384212    1.827301    ( 0.0000,  0.0000,  1.5000)
  11 Co     8.699818    1.915127   10.584565    ( 0.0000,  0.0000,  2.1000)
  12 Cr    10.710624    3.549639    0.091444    ( 0.0000,  0.0000,  0.0000)
  13 Fe    10.856543    5.275799    1.826919    ( 0.0000,  0.0000,  2.0000)
  14 Cr     1.901321    3.585112    1.914167    ( 0.0000,  0.0000,  0.0000)
  15 Fe     1.912833    5.313653   10.696461    ( 0.0000,  0.0000,  2.0000)
  16 Ni     3.332472    3.530211   10.458661    ( 0.0000,  0.0000,  1.5000)
  17 Co     3.611311    5.301393    1.673934    ( 0.0000,  0.0000,  2.1000)
  18 Ni     5.514661    3.514312    1.852644    ( 0.0000,  0.0000,  1.5000)
  19 Cr     5.308550    5.156842   10.562688    ( 0.0000,  0.0000,  0.0000)
  20 Co     7.030593    3.546693   10.372203    ( 0.0000,  0.0000,  2.1000)
  21 Ni     7.128873    5.335667    1.463542    ( 0.0000,  0.0000,  1.5000)
  22 Co     8.702652    3.488506    1.695201    ( 0.0000,  0.0000,  2.1000)
  23 Cr     8.954555    5.252007    0.018820    ( 0.0000,  0.0000,  0.0000)
  24 Fe     0.190780    6.904047   10.748831    ( 0.0000,  0.0000,  2.0000)
  25 Co    10.536229    9.049175    1.597474    ( 0.0000,  0.0000,  2.1000)
  26 Cr     1.786728    7.184527    1.864475    ( 0.0000,  0.0000,  0.0000)
  27 Cr     2.028624    8.892766   10.721876    ( 0.0000,  0.0000,  0.0000)
  28 Fe     3.888840    6.993467   10.624621    ( 0.0000,  0.0000,  2.0000)
  29 Cr     3.593682    8.778041    1.763504    ( 0.0000,  0.0000,  0.0000)
  30 Co     5.364563    7.254914    1.876973    ( 0.0000,  0.0000,  2.1000)
  31 Co     5.447053    8.882502   10.641341    ( 0.0000,  0.0000,  2.1000)
  32 Cr     7.060531    7.061217   10.625439    ( 0.0000,  0.0000,  0.0000)
  33 Ni     7.118732    8.822572    1.685723    ( 0.0000,  0.0000,  1.5000)
  34 Ni     9.044512    7.008654    1.952248    ( 0.0000,  0.0000,  1.5000)
  35 Cr     8.909539    8.592461   10.372535    ( 0.0000,  0.0000,  0.0000)
  36 Fe    -0.153352   10.769387    3.452266    ( 0.0000,  0.0000,  2.0000)
  37 Ni    10.531567    1.651507    5.332920    ( 0.0000,  0.0000,  1.5000)
  38 Cr     1.652467   -0.073945    5.232335    ( 0.0000,  0.0000,  0.0000)
  39 Fe     1.897405    1.856070    3.622775    ( 0.0000,  0.0000,  2.0000)
  40 Fe     3.404320   -0.017445    3.573077    ( 0.0000,  0.0000,  2.0000)
  41 Co     3.515997    1.965761    5.272254    ( 0.0000,  0.0000,  2.1000)
  42 Cr     5.240378    0.127062    5.417104    ( 0.0000,  0.0000,  0.0000)
  43 Fe     5.612188    1.628945    3.493325    ( 0.0000,  0.0000,  2.0000)
  44 Fe     7.273538   -0.019586    3.516234    ( 0.0000,  0.0000,  2.0000)
  45 Fe     7.219016    1.727107    5.418462    ( 0.0000,  0.0000,  2.0000)
  46 Ni     8.845283   -0.069549    5.287208    ( 0.0000,  0.0000,  1.5000)
  47 Co     8.789660    1.905150    3.591796    ( 0.0000,  0.0000,  2.1000)
  48 Cr    -0.031820    3.161479    3.548656    ( 0.0000,  0.0000,  0.0000)
  49 Ni    -0.043590    5.345711    5.417827    ( 0.0000,  0.0000,  1.5000)
  50 Fe     1.916400    3.664933    5.305894    ( 0.0000,  0.0000,  2.0000)
  51 Co     1.829600    5.485321    3.644496    ( 0.0000,  0.0000,  2.1000)
  52 Co     3.700431    3.532673    3.384980    ( 0.0000,  0.0000,  2.1000)
  53 Fe     3.554435    5.464644    5.421509    ( 0.0000,  0.0000,  2.0000)
  54 Fe     5.410677    3.548601    5.230186    ( 0.0000,  0.0000,  2.0000)
  55 Ni     5.128984    5.383170    3.558809    ( 0.0000,  0.0000,  1.5000)
  56 Ni     6.954819    3.674179    3.592387    ( 0.0000,  0.0000,  1.5000)
  57 Fe     7.011874    5.311944    5.458766    ( 0.0000,  0.0000,  2.0000)
  58 Co     8.683587    3.679096    5.391522    ( 0.0000,  0.0000,  2.1000)
  59 Ni     8.871523    5.364346    3.825460    ( 0.0000,  0.0000,  1.5000)
  60 Ni    -0.051665    7.132268    3.407898    ( 0.0000,  0.0000,  1.5000)
  61 Fe    10.501095    8.582647    5.327734    ( 0.0000,  0.0000,  2.0000)
  62 Fe     1.542318    7.049294    5.336181    ( 0.0000,  0.0000,  2.0000)
  63 Ni     1.448254    9.016813    3.434713    ( 0.0000,  0.0000,  1.5000)
  64 Fe     3.586186    7.158632    3.555313    ( 0.0000,  0.0000,  2.0000)
  65 Ni     3.390604    8.705895    5.329293    ( 0.0000,  0.0000,  1.5000)
  66 Co     5.420639    7.085761    5.429244    ( 0.0000,  0.0000,  2.1000)
  67 Ni     5.500326    8.988030    3.869430    ( 0.0000,  0.0000,  1.5000)
  68 Fe     7.195177    7.042168    3.629299    ( 0.0000,  0.0000,  2.0000)
  69 Co     7.206540    8.922948    5.429577    ( 0.0000,  0.0000,  2.1000)
  70 Cr     8.753829    7.184405    5.376772    ( 0.0000,  0.0000,  0.0000)
  71 Ni     8.904218    8.900082    3.272787    ( 0.0000,  0.0000,  1.5000)
  72 Co    10.479157   10.553077    7.073714    ( 0.0000,  0.0000,  2.1000)
  73 Co     0.036241    1.666758    8.627544    ( 0.0000,  0.0000,  2.1000)
  74 Fe     1.919711   -0.110633    8.896689    ( 0.0000,  0.0000,  2.0000)
  75 Cr     1.693043    1.620067    7.034627    ( 0.0000,  0.0000,  0.0000)
  76 Cr     3.298699    0.028842    6.923734    ( 0.0000,  0.0000,  0.0000)
  77 Co     3.503076    1.926567    8.692632    ( 0.0000,  0.0000,  2.1000)
  78 Fe     5.348929   10.551305    8.716823    ( 0.0000,  0.0000,  2.0000)
  79 Cr     5.214016    1.997601    7.041997    ( 0.0000,  0.0000,  0.0000)
  80 Ni     6.942061    0.051911    7.095057    ( 0.0000,  0.0000,  1.5000)
  81 Fe     7.200029    1.569875    8.735734    ( 0.0000,  0.0000,  2.0000)
  82 Co     8.772255   -0.131884    8.797267    ( 0.0000,  0.0000,  2.1000)
  83 Ni     8.818747    1.678440    7.072090    ( 0.0000,  0.0000,  1.5000)
  84 Cr    10.623707    3.472056    6.856142    ( 0.0000,  0.0000,  0.0000)
  85 Co     0.193484    5.101458    9.027209    ( 0.0000,  0.0000,  2.1000)
  86 Cr     1.604251    3.588761    8.694794    ( 0.0000,  0.0000,  0.0000)
  87 Ni     1.673169    5.312104    7.086654    ( 0.0000,  0.0000,  1.5000)
  88 Cr     3.314876    3.653069    6.927380    ( 0.0000,  0.0000,  0.0000)
  89 Fe     3.383582    5.183885    8.887085    ( 0.0000,  0.0000,  2.0000)
  90 Ni     5.053621    3.600199    8.771338    ( 0.0000,  0.0000,  1.5000)
  91 Co     5.236033    5.460583    7.157508    ( 0.0000,  0.0000,  2.1000)
  92 Ni     7.006374    3.505031    7.387300    ( 0.0000,  0.0000,  1.5000)
  93 Ni     7.272124    5.348593    8.827887    ( 0.0000,  0.0000,  1.5000)
  94 Ni     8.961662    3.524792    8.727810    ( 0.0000,  0.0000,  1.5000)
  95 Cr     8.951256    5.288297    7.152622    ( 0.0000,  0.0000,  0.0000)
  96 Ni     0.002696    7.052628    7.364265    ( 0.0000,  0.0000,  1.5000)
  97 Co     0.151721    8.626974    8.923189    ( 0.0000,  0.0000,  2.1000)
  98 Fe     1.820878    7.066541    9.022092    ( 0.0000,  0.0000,  2.0000)
  99 Cr     1.712088    8.880410    7.175821    ( 0.0000,  0.0000,  0.0000)
 100 Co     3.482197    7.038890    7.302005    ( 0.0000,  0.0000,  2.1000)
 101 Cr     3.401898    8.874169    8.904660    ( 0.0000,  0.0000,  0.0000)
 102 Fe     5.387881    7.123468    8.861859    ( 0.0000,  0.0000,  2.0000)
 103 Co     5.072173    8.820665    7.102687    ( 0.0000,  0.0000,  2.1000)
 104 Ni     7.104744    7.107345    7.073255    ( 0.0000,  0.0000,  1.5000)
 105 Co     7.234830    8.748270    8.770338    ( 0.0000,  0.0000,  2.1000)
 106 Cr     8.988089    7.038056    8.607143    ( 0.0000,  0.0000,  0.0000)
 107 Cr     8.936862    8.743047    6.935150    ( 0.0000,  0.0000,  0.0000)

Unit cell:
           periodic     x           y           z      points  spacing
  1. axis:    yes   10.614300    0.000000    0.000000    48     0.2211
  2. axis:    yes    0.000000   10.614300    0.000000    48     0.2211
  3. axis:    yes    0.000000    0.000000   10.614300    48     0.2211

  Lengths:  10.614300  10.614300  10.614300
  Angles:   90.000000  90.000000  90.000000

Effective grid spacing dv^(1/3) = 0.2211

     iter     time        total  log10-change:  magmom
                         energy  eigst   dens
iter:   1 23:56:15 -1063.893449                  +151.4734
iter:   2 23:58:15  -934.383461  -0.30  -1.21    +86.4737
iter:   3 00:00:15  -924.725544  -0.96  -1.25    +71.8397
iter:   4 00:02:15  -920.361716  -1.22  -1.31    +67.3738
iter:   5 00:04:15  -896.397524  -1.59  -1.28    +61.7660
iter:   6 00:06:15  -893.342298  -1.35  -1.39    +61.5861
iter:   7 00:08:15  -898.186010  -1.21  -1.48    +60.4040
iter:   8 00:10:15  -876.031324  -1.56  -1.52    +58.9760
iter:   9 00:12:15  -873.791904  -2.23  -1.80    +60.0667
iter:  10 00:14:16  -874.755931  -2.33  -1.85    +62.2943
iter:  11 00:16:16  -874.778490  -2.56  -1.87    +63.6384
iter:  12 00:18:16  -874.516645  -2.61  -1.89    +65.0078
iter:  13 00:20:16  -876.933050  -2.41  -1.96    +66.5481
iter:  14 00:22:15  -876.097763  -2.39  -1.96    +66.9638
iter:  15 00:24:15  -875.227750  -2.63  -2.05    +67.5842
iter:  16 00:26:15  -874.910602  -2.82  -2.16    +67.9149
iter:  17 00:28:15  -874.868182  -3.09  -2.27    +68.7006
iter:  18 00:30:15  -874.863328c -3.33  -2.30    +69.2030
iter:  19 00:32:15  -875.001172  -3.47  -2.39    +69.4424
iter:  20 00:34:15  -874.952926  -3.32  -2.37    +69.8325
iter:  21 00:36:15  -874.946791c -3.36  -2.47    +70.0008
iter:  22 00:38:15  -874.838791  -3.45  -2.53    +70.2305
iter:  23 00:40:15  -874.838195  -3.88  -2.66    +70.5455
iter:  24 00:42:16  -874.898810c -3.78  -2.73    +70.7913
iter:  25 00:44:16  -874.858421c -4.00  -2.69    +70.9053
iter:  26 00:46:16  -874.874906c -3.98  -2.80    +71.1111
iter:  27 00:48:16  -874.871266c -4.23  -2.83    +71.2199
iter:  28 00:50:16  -874.888626c -4.37  -2.89    +71.3233
iter:  29 00:52:16  -874.888916c -4.45  -2.91    +71.3771
iter:  30 00:54:16  -874.896006c -4.59  -2.94    +71.3689
iter:  31 00:56:16  -874.902645c -4.54  -2.98    +71.4169
iter:  32 00:58:16  -874.901720c -4.83  -3.03    +71.4114
iter:  33 01:00:16  -874.912460c -4.77  -3.09    +71.3892
iter:  34 01:02:16  -874.917874c -4.88  -3.11    +71.3589
iter:  35 01:04:16  -874.921254c -4.88  -3.14    +71.3649
iter:  36 01:06:16  -874.925543c -4.85  -3.18    +71.3039
iter:  37 01:08:17  -874.930334c -4.99  -3.23    +71.3173
iter:  38 01:10:17  -874.931562c -5.05  -3.26    +71.2863
iter:  39 01:12:17  -874.937961c -5.09  -3.33    +71.2618
iter:  40 01:14:17  -874.940161c -5.17  -3.34    +71.2270
iter:  41 01:16:17  -874.942459c -5.25  -3.38    +71.2132
iter:  42 01:18:18  -874.944275c -5.27  -3.40    +71.1683
iter:  43 01:20:18  -874.947521c -5.46  -3.48    +71.1565
iter:  44 01:22:18  -874.947767c -5.50  -3.49    +71.1271
iter:  45 01:24:19  -874.950427c -5.53  -3.54    +71.1038
iter:  46 01:26:19  -874.952620c -5.47  -3.57    +71.0746
iter:  47 01:28:19  -874.953190c -5.68  -3.57    +71.0645
iter:  48 01:30:19  -874.954514c -5.66  -3.63    +71.0333
iter:  49 01:32:20  -874.957367c -5.60  -3.64    +71.0142
iter:  50 01:34:20  -874.956330c -5.86  -3.66    +70.9997
iter:  51 01:36:20  -874.957574c -5.88  -3.70    +70.9807
iter:  52 01:38:21  -874.958286c -5.94  -3.74    +70.9611
iter:  53 01:40:21  -874.959649c -5.81  -3.75    +70.9403
iter:  54 01:42:21  -874.961456c -5.72  -3.78    +70.9002
iter:  55 01:44:21  -874.963423c -5.50  -3.80    +70.8523
iter:  56 01:46:21  -874.963822c -5.78  -3.83    +70.8145
iter:  57 01:48:21  -874.964379c -6.09  -3.82    +70.8018
iter:  58 01:50:22  -874.967561c -5.08  -3.81    +70.7214
iter:  59 01:52:22  -874.968593c -5.42  -3.72    +70.6933
iter:  60 01:54:22  -874.968701c -6.00  -3.71    +70.6912
iter:  61 01:56:22  -874.968781c -6.22  -3.68    +70.6847
iter:  62 01:58:23  -874.969333c -6.14  -3.72    +70.6837
iter:  63 02:00:23  -874.968932c -5.87  -3.69    +70.6774
iter:  64 02:02:24  -874.968515c -6.25  -3.65    +70.6586
iter:  65 02:04:24  -874.968912c -6.01  -3.74    +70.6329
iter:  66 02:06:24  -874.969768c -5.86  -3.71    +70.6313
iter:  67 02:08:25  -874.968004c -5.78  -3.72    +70.6242
iter:  68 02:10:25  -874.968443c -6.03  -3.78    +70.6316
iter:  69 02:12:25  -874.968381c -6.40  -3.89    +70.6215
iter:  70 02:14:25  -874.968080c -6.67  -3.97    +70.6174
iter:  71 02:16:25  -874.968258c -6.80  -4.00c   +70.6166
iter:  72 02:18:25  -874.968065c -6.75  -4.00c   +70.6140
iter:  73 02:20:26  -874.968845c -6.54  -4.01c   +70.6111
iter:  74 02:22:26  -874.968290c -6.24  -3.99    +70.6072
iter:  75 02:24:26  -874.968063c -6.44  -3.93    +70.6100
iter:  76 02:26:26  -874.968432c -6.58  -4.07c   +70.6104
iter:  77 02:28:27  -874.968115c -6.72  -4.07c   +70.6059
iter:  78 02:30:27  -874.968157c -7.14  -4.14c   +70.6048
iter:  79 02:32:27  -874.967979c -7.57c -4.26c   +70.6037

Converged after 79 iterations.

Dipole moment: (-3.042969, 2.629011, 23.304971) |e|*Ang

Total magnetic moment: (0.000000, 0.000000, 70.603729)
Local magnetic moments:
   0 Co ( 0.000000,  0.000000,  1.514885)
   1 Co ( 0.000000,  0.000000,  0.957383)
   2 Fe ( 0.000000,  0.000000,  2.050409)
   3 Fe ( 0.000000,  0.000000,  1.864912)
   4 Cr ( 0.000000,  0.000000,  0.066259)
   5 Cr ( 0.000000,  0.000000, -0.665783)
   6 Co ( 0.000000,  0.000000,  0.862592)
   7 Cr ( 0.000000,  0.000000, -1.142261)
   8 Fe ( 0.000000,  0.000000,  2.426976)
   9 Ni ( 0.000000,  0.000000,  0.440388)
  10 Ni ( 0.000000,  0.000000,  0.625082)
  11 Co ( 0.000000,  0.000000,  1.547240)
  12 Cr ( 0.000000,  0.000000, -0.527105)
  13 Fe ( 0.000000,  0.000000,  1.629811)
  14 Cr ( 0.000000,  0.000000, -0.938466)
  15 Fe ( 0.000000,  0.000000,  1.438036)
  16 Ni ( 0.000000,  0.000000,  0.182743)
  17 Co ( 0.000000,  0.000000,  1.105289)
  18 Ni ( 0.000000,  0.000000,  0.296215)
  19 Cr ( 0.000000,  0.000000, -1.555859)
  20 Co ( 0.000000,  0.000000,  1.001638)
  21 Ni ( 0.000000,  0.000000,  0.122329)
  22 Co ( 0.000000,  0.000000,  1.230559)
  23 Cr ( 0.000000,  0.000000, -1.157004)
  24 Fe ( 0.000000,  0.000000,  1.579991)
  25 Co ( 0.000000,  0.000000,  1.337104)
  26 Cr ( 0.000000,  0.000000, -1.071861)
  27 Cr ( 0.000000,  0.000000, -0.106210)
  28 Fe ( 0.000000,  0.000000,  1.871843)
  29 Cr ( 0.000000,  0.000000, -0.834815)
  30 Co ( 0.000000,  0.000000,  1.250265)
  31 Co ( 0.000000,  0.000000,  0.777753)
  32 Cr ( 0.000000,  0.000000,  0.927691)
  33 Ni ( 0.000000,  0.000000,  0.446227)
  34 Ni ( 0.000000,  0.000000,  0.401824)
  35 Cr ( 0.000000,  0.000000, -1.546326)
  36 Fe ( 0.000000,  0.000000,  2.444400)
  37 Ni ( 0.000000,  0.000000,  0.156779)
  38 Cr ( 0.000000,  0.000000, -0.819659)
  39 Fe ( 0.000000,  0.000000,  1.733579)
  40 Fe ( 0.000000,  0.000000,  2.278623)
  41 Co ( 0.000000,  0.000000,  0.577869)
  42 Cr ( 0.000000,  0.000000, -1.099081)
  43 Fe ( 0.000000,  0.000000,  2.253098)
  44 Fe ( 0.000000,  0.000000,  2.513603)
  45 Fe ( 0.000000,  0.000000,  2.385769)
  46 Ni ( 0.000000,  0.000000,  0.495118)
  47 Co ( 0.000000,  0.000000,  1.235829)
  48 Cr ( 0.000000,  0.000000, -1.576012)
  49 Ni ( 0.000000,  0.000000,  0.201902)
  50 Fe ( 0.000000,  0.000000,  1.492003)
  51 Co ( 0.000000,  0.000000,  1.280155)
  52 Co ( 0.000000,  0.000000,  0.990952)
  53 Fe ( 0.000000,  0.000000,  2.300449)
  54 Fe ( 0.000000,  0.000000,  2.288469)
  55 Ni ( 0.000000,  0.000000,  0.561394)
  56 Ni ( 0.000000,  0.000000,  0.466456)
  57 Fe ( 0.000000,  0.000000,  2.232304)
  58 Co ( 0.000000,  0.000000,  1.175188)
  59 Ni ( 0.000000,  0.000000,  0.427693)
  60 Ni ( 0.000000,  0.000000,  0.316956)
  61 Fe ( 0.000000,  0.000000,  1.206179)
  62 Fe ( 0.000000,  0.000000,  2.371152)
  63 Ni ( 0.000000,  0.000000,  0.274047)
  64 Fe ( 0.000000,  0.000000,  2.250020)
  65 Ni ( 0.000000,  0.000000,  0.396291)
  66 Co ( 0.000000,  0.000000,  1.490139)
  67 Ni ( 0.000000,  0.000000,  0.379152)
  68 Fe ( 0.000000,  0.000000,  2.519821)
  69 Co ( 0.000000,  0.000000,  1.021047)
  70 Cr ( 0.000000,  0.000000, -0.429723)
  71 Ni ( 0.000000,  0.000000,  0.576129)
  72 Co ( 0.000000,  0.000000,  1.057756)
  73 Co ( 0.000000,  0.000000,  0.931572)
  74 Fe ( 0.000000,  0.000000,  0.724634)
  75 Cr ( 0.000000,  0.000000,  0.005586)
  76 Cr ( 0.000000,  0.000000,  0.462058)
  77 Co ( 0.000000,  0.000000,  0.193515)
  78 Fe ( 0.000000,  0.000000,  2.253089)
  79 Cr ( 0.000000,  0.000000, -0.909600)
  80 Ni ( 0.000000,  0.000000,  0.372835)
  81 Fe ( 0.000000,  0.000000,  2.070244)
  82 Co ( 0.000000,  0.000000,  1.161344)
  83 Ni ( 0.000000,  0.000000,  0.488337)
  84 Cr ( 0.000000,  0.000000, -0.608841)
  85 Co ( 0.000000,  0.000000,  0.153360)
  86 Cr ( 0.000000,  0.000000, -0.044642)
  87 Ni ( 0.000000,  0.000000,  0.188490)
  88 Cr ( 0.000000,  0.000000, -0.996306)
  89 Fe ( 0.000000,  0.000000,  1.657504)
  90 Ni ( 0.000000,  0.000000,  0.148448)
  91 Co ( 0.000000,  0.000000,  1.332246)
  92 Ni ( 0.000000,  0.000000,  0.338647)
  93 Ni ( 0.000000,  0.000000,  0.140511)
  94 Ni ( 0.000000,  0.000000,  0.124660)
  95 Cr ( 0.000000,  0.000000, -0.827786)
  96 Ni ( 0.000000,  0.000000,  0.176949)
  97 Co ( 0.000000,  0.000000,  0.569719)
  98 Fe ( 0.000000,  0.000000,  1.517169)
  99 Cr ( 0.000000,  0.000000, -0.752212)
 100 Co ( 0.000000,  0.000000,  1.186430)
 101 Cr ( 0.000000,  0.000000, -0.637021)
 102 Fe ( 0.000000,  0.000000,  2.016425)
 103 Co ( 0.000000,  0.000000,  1.351556)
 104 Ni ( 0.000000,  0.000000,  0.258981)
 105 Co ( 0.000000,  0.000000,  0.780965)
 106 Cr ( 0.000000,  0.000000,  0.651769)
 107 Cr ( 0.000000,  0.000000, -0.505758)

Energy contributions relative to reference atoms: (reference = -3846758.590871)

Kinetic:       +339.190831
Potential:     -363.468156
External:        +0.000000
XC:            -888.044613
Entropy (-ST):   -4.721588
Local:          +39.714752
--------------------------
Free energy:   -877.328773
Extrapolated:  -874.967979

Spin contamination: 23.101734 electrons
Showing only first 2 kpts
                      Up                     Down
 Kpt  Band  Eigenvalues  Occupancy  Eigenvalues  Occupancy
  0   524      9.85050    0.99537     10.77569    0.02021
  0   525      9.86049    0.99489     10.78075    0.01923
  0   526      9.86997    0.99438     10.79256    0.01712
  0   527      9.88211    0.99366     10.81616    0.01357

  1   524      9.84758    0.99550     10.78067    0.01924
  1   525      9.85277    0.99526     10.78976    0.01760
  1   526      9.86292    0.99476     10.80622    0.01497
  1   527      9.86676    0.99456     10.81112    0.01426


Fermi level: 10.38755

No gap

Forces in eV/Ang:
  0 Co    0.04846   -0.15844    0.03985
  1 Co    0.94500    1.04135    0.21470
  2 Fe    0.84204    1.74478   -0.82611
  3 Fe   -0.20145   -0.42468   -0.23211
  4 Cr    0.57718    0.44841   -0.09972
  5 Cr   -0.29009   -0.74656    0.58334
  6 Co    1.23026    0.14761   -0.74162
  7 Cr   -0.95380   -0.28470    0.24090
  8 Fe    0.27807   -0.32453    0.27411
  9 Ni   -0.24494   -1.03621   -0.08328
 10 Ni    0.48714   -2.75600   -1.81643
 11 Co    1.37143   -0.94076   -0.64742
 12 Cr   -0.61811   -0.49970    0.24205
 13 Fe   -1.12021   -0.79527    0.54204
 14 Cr   -0.37001   -0.13191   -0.64133
 15 Fe   -0.49685    0.27613    0.47853
 16 Ni    1.19272   -0.90905    1.42566
 17 Co    0.23946   -0.11670    0.94579
 18 Ni   -1.80897    1.21231   -1.43655
 19 Cr   -0.25779    0.68316    0.27028
 20 Co    0.24924   -0.08507    0.25230
 21 Ni   -0.14097   -0.27667    2.43115
 22 Co    1.33982    0.95894    0.31311
 23 Cr    0.48575    0.49145   -0.20599
 24 Fe   -1.00060    1.08602   -0.54364
 25 Co   -0.29309   -0.85276   -0.34977
 26 Cr    0.05636   -0.96666   -0.45846
 27 Cr   -1.68424   -0.20419   -0.05882
 28 Fe   -1.36467    0.60196    0.00860
 29 Cr    0.49711    0.51526    0.52926
 30 Co    0.16396   -1.01628    0.17949
 31 Co   -0.93444    0.11009   -0.58674
 32 Cr    0.25152    0.55200   -0.40517
 33 Ni    0.53669    0.50892    0.74050
 34 Ni   -2.46868   -0.59398   -3.16967
 35 Cr   -0.28272    0.35085    1.43707
 36 Fe    0.28784   -0.25120    0.37738
 37 Ni    0.25625    0.40838    0.11270
 38 Cr    0.03655    0.44763    0.42904
 39 Fe   -0.92058   -0.04820   -0.82327
 40 Fe    0.84008   -0.33184    0.21307
 41 Co    0.78519   -1.24270   -0.03862
 42 Cr   -0.28783   -0.04108   -0.13206
 43 Fe   -1.82128    0.43718    0.98533
 44 Fe   -1.37749   -0.31710    0.11705
 45 Fe   -0.93283    0.96069   -0.55728
 46 Ni    0.49373    0.25929    0.09585
 47 Co   -0.96789    0.39112    0.11892
 48 Cr    0.25931    2.35927   -0.09624
 49 Ni    0.26840   -0.09717   -1.06879
 50 Fe   -1.72143   -0.10084   -1.11113
 51 Co    0.12640   -1.05693   -0.60067
 52 Co   -0.45189   -0.20650    0.84660
 53 Fe    0.30794    0.15030   -0.49962
 54 Fe   -1.17861   -0.14343    1.38680
 55 Ni    1.40078    0.37307   -0.01400
 56 Ni    1.86911    0.07339   -0.17223
 57 Fe   -0.00592   -0.02914   -0.07565
 58 Co    0.50629   -1.26776    0.37748
 59 Ni    0.02060   -0.80276   -2.06199
 60 Ni    1.74191   -0.29451    2.05847
 61 Fe    0.75422    1.65277   -0.36321
 62 Fe    1.44794    0.61880    0.17615
 63 Ni    1.40062   -1.54627    1.02946
 64 Fe   -0.10162    0.31010   -0.14303
 65 Ni    0.24594    0.20447   -0.18582
 66 Co   -0.80165    0.33858   -0.63723
 67 Ni   -1.36345   -0.67299   -1.71820
 68 Fe   -1.05222    0.42054   -0.71999
 69 Co   -1.08313   -0.49814   -0.37159
 70 Cr    0.82935   -1.01236   -0.45183
 71 Ni   -0.09547    0.27664    1.72821
 72 Co    1.26023   -0.66839    0.28904
 73 Co   -0.26584    0.35694    1.43077
 74 Fe   -1.51112    1.43677    0.03105
 75 Cr    0.13939    0.41365   -0.31895
 76 Cr    1.20038    0.31792    0.23640
 77 Co   -0.53180   -1.85774    0.33153
 78 Fe   -1.19806    0.20391    0.81614
 79 Cr   -0.00448   -1.45115   -0.03661
 80 Ni    0.76614   -1.46141   -0.82403
 81 Fe   -0.57040    1.57949    1.25714
 82 Co    0.97794    0.31000    0.34990
 83 Ni    0.53128    0.51863   -0.18022
 84 Cr    0.30123    0.01015    0.67688
 85 Co   -1.68007    2.06766   -1.18229
 86 Cr    1.09592   -2.11597    0.85822
 87 Ni   -0.02785    0.86041   -0.08116
 88 Cr    1.32546   -0.40437    0.78156
 89 Fe    0.43871    1.68222   -1.02720
 90 Ni    1.72616    0.12140    0.15834
 91 Co    0.51714   -1.20246    0.12713
 92 Ni    0.23003    0.37506   -1.77014
 93 Ni   -1.18898    0.24138    0.26504
 94 Ni    0.27005   -0.30931    0.90463
 95 Cr   -0.49439   -0.36112   -0.38819
 96 Ni    2.71289   -1.16220   -3.50376
 97 Co   -0.20386    2.46489    1.24874
 98 Fe    0.28967   -0.44487   -0.40064
 99 Cr   -0.34328   -0.48812   -0.89538
100 Co   -0.26258    0.43200   -0.74649
101 Cr    1.92544   -0.40744   -0.13626
102 Fe   -0.08839   -0.06483   -0.38490
103 Co    1.29467    0.13609   -0.48277
104 Ni   -0.33502   -0.16916    0.54186
105 Co   -1.38301    0.52562   -0.04155
106 Cr   -2.47793   -0.19629    3.15855
107 Cr   -0.41733    1.37845    1.88216

Timing:                              incl.     excl.
-----------------------------------------------------------
Forces:                             21.905    21.905   0.2% |
Hamiltonian:                         0.809     0.004   0.0% |
 Atomic:                             0.357     0.092   0.0% |
  XC Correction:                     0.265     0.265   0.0% |
 Calculate atomic Hamiltonians:      0.342     0.342   0.0% |
 Communicate:                        0.010     0.010   0.0% |
 Initialize Hamiltonian:             0.000     0.000   0.0% |
 Poisson:                            0.001     0.001   0.0% |
 XC 3D grid:                         0.095     0.095   0.0% |
LCAO initialization:               178.157     0.853   0.0% |
 LCAO eigensolver:                  19.154     0.018   0.0% |
  Calculate projections:             0.300     0.300   0.0% |
  DenseAtomicCorrection:             0.395     0.395   0.0% |
  Distribute overlap matrix:         2.294     2.294   0.0% |
  Orbital Layouts:                   8.776     8.776   0.1% |
  Potential matrix:                  5.759     5.759   0.1% |
  Sum over cells:                    1.612     1.612   0.0% |
 LCAO to grid:                     155.576   155.576   1.6% ||
 Set positions (LCAO WFS):           2.574     1.732   0.0% |
  Basic WFS set positions:           0.003     0.003   0.0% |
  Basis functions set positions:     0.001     0.001   0.0% |
  P tci:                             0.354     0.354   0.0% |
  ST tci:                            0.212     0.212   0.0% |
  mktci:                             0.272     0.272   0.0% |
PWDescriptor:                        0.288     0.288   0.0% |
SCF-cycle:                        9500.660     0.877   0.0% |
 Davidson:                        9339.819  2106.990  21.7% |--------|
  Apply H:                          86.292    83.784   0.9% |
   HMM T:                            2.508     2.508   0.0% |
  Subspace diag:                   827.502     0.066   0.0% |
   calc_h_matrix:                  297.726   198.626   2.0% ||
    Apply H:                        99.100    97.014   1.0% |
     HMM T:                          2.086     2.086   0.0% |
   diagonalize:                    163.754   163.754   1.7% ||
   rotate_psi:                     365.956   365.956   3.8% |-|
  calc. matrices:                 1706.666  1568.552  16.2% |-----|
   Apply H:                        138.114   133.764   1.4% ||
    HMM T:                           4.350     4.350   0.0% |
  diagonalize:                    3811.176  3811.176  39.3% |---------------|
  rotate_psi:                      801.193   801.193   8.3% |--|
 Density:                           83.458     0.002   0.0% |
  Atomic density matrices:           1.977     1.977   0.0% |
  Mix:                              30.892    30.892   0.3% |
  Multipole moments:                 0.035     0.035   0.0% |
  Pseudo density:                   50.552    50.549   0.5% |
   Symmetrize density:               0.003     0.003   0.0% |
 Hamiltonian:                       65.197     0.429   0.0% |
  Atomic:                           28.692     7.827   0.1% |
   XC Correction:                   20.866    20.866   0.2% |
  Calculate atomic Hamiltonians:    27.389    27.389   0.3% |
  Communicate:                       0.648     0.648   0.0% |
  Poisson:                           0.046     0.046   0.0% |
  XC 3D grid:                        7.993     7.993   0.1% |
 Orthonormalize:                    11.308     0.001   0.0% |
  calc_s_matrix:                     1.472     1.472   0.0% |
  inverse-cholesky:                  0.981     0.981   0.0% |
  projections:                       6.479     6.479   0.1% |
  rotate_psi_s:                      2.375     2.375   0.0% |
Set symmetry:                        0.001     0.001   0.0% |
Other:                               3.327     3.327   0.0% |
-----------------------------------------------------------
Total:                                      9705.147 100.0%

Date: Fri Apr 14 02:32:51 2023
