
  ___ ___ ___ _ _ _  
 |   |   |_  | | | | 
 | | | | | . | | | | 
 |__ |  _|___|_____|  22.8.0
 |___|_|             

User:   c.zeng@d0120
Date:   Thu Apr 20 00:53:59 2023
Arch:   x86_64
Pid:    17168
CWD:    /home/c.zeng/projects/hea-corrosion/hea-mlp/data-curation/surface-mcmc/dft-jobs/249
Python: 3.8.1
gpaw:   /home/c.zeng/usr/installs/gpaw/source/gpaw-22.8.0/gpaw
_gpaw:  /home/c.zeng/usr/installs/gpaw/source/gpaw-22.8.0/
        _gpaw.cpython-38-x86_64-linux-gnu.so
ase:    /home/c.zeng/.local/lib/python3.8/site-packages/ase-3.22.1-py3.8.egg/ase (version 3.22.1)
numpy:  /home/c.zeng/.local/lib/python3.8/site-packages/numpy (version 1.24.2)
scipy:  /home/c.zeng/.local/lib/python3.8/site-packages/scipy (version 1.10.1)
libxc:  4.2.3
units:  Angstrom and eV
cores: 30
OpenMP: False
OMP_NUM_THREADS: 1

Input parameters:
  convergence: {energy: 0.0001}
  kpts: [2 2 1]
  maxiter: 666
  mode: {ecut: 350.0,
         name: pw}
  occupations: {fixmagmom: False,
                name: fermi-dirac,
                width: 0.1}
  poissonsolver: {dipolelayer: xy}
  spinpol: True
  symmetry: {point_group: False}
  xc: PBE

System changes: positions, numbers, cell, pbc, initial_charges, initial_magmoms 

Initialize ...

species:
  Co:
    name: Cobalt
    id: 339d20d5b0b93d2de9531a1bee871d91
    Z: 27.0
    valence: 9
    core: 18
    charge: 0.0
    file: /home/c.zeng/usr/data/gpaw-setups-0.9.20000/Co.PBE.gz
    compensation charges: {type: gauss,
                           rc: 0.32,
                           lmax: 2}
    cutoffs: {filter: 1.87,
              core: 2.55}
    valence states:
      #              energy  rcut
      - 4s(2.00)    -5.469   1.005
      - 4p(0.00)    -1.277   1.058
      - 3d(7.00)    -8.205   1.005
      -  s          21.742   1.005
      -  p          25.934   1.058
      -  d          19.007   1.005
  
    # Using partial waves for Co as LCAO basis

  Al:
    name: Aluminium
    id: 0292cae29f5d6237e50f6abdd43a7bdd
    Z: 13.0
    valence: 3
    core: 10
    charge: 0.0
    file: /home/c.zeng/usr/data/gpaw-setups-0.9.20000/Al.PBE.gz
    compensation charges: {type: gauss,
                           rc: 0.34,
                           lmax: 2}
    cutoffs: {filter: 1.91,
              core: 2.36}
    valence states:
      #              energy  rcut
      - 3s(2.00)    -7.753   1.085
      - 3p(1.00)    -2.712   1.085
      -  s          19.459   1.085
      -  p          24.499   1.085
      -  d           0.000   1.085
  
    # Using partial waves for Al as LCAO basis

  Cr:
    name: Chromium
    id: 33f258bda2ca9f93018e70263a35547b
    Z: 24.0
    valence: 6
    core: 18
    charge: 0.0
    file: /home/c.zeng/usr/data/gpaw-setups-0.9.20000/Cr.PBE.gz
    compensation charges: {type: gauss,
                           rc: 0.35,
                           lmax: 2}
    cutoffs: {filter: 2.14,
              core: 3.04}
    valence states:
      #              energy  rcut
      - 4s(1.00)    -4.007   1.164
      - 4p(0.00)    -0.989   1.217
      - 3d(5.00)    -2.913   1.111
      -  s          23.205   1.164
      -  p          26.223   1.217
      -  d          24.299   1.111
  
    # Using partial waves for Cr as LCAO basis

  Ni:
    name: Nickel
    id: 0d9f38a9d6e76a2886f07bb4381f212b
    Z: 28.0
    valence: 16
    core: 12
    charge: 0.0
    file: /home/c.zeng/usr/data/gpaw-setups-0.9.20000/Ni.PBE.gz
    compensation charges: {type: gauss,
                           rc: 0.36,
                           lmax: 2}
    cutoffs: {filter: 2.14,
              core: 1.98}
    valence states:
      #              energy  rcut
      - 4s(2.00)    -5.642   1.164
      - 3p(6.00)   -71.394   1.207
      - 4p(0.00)    -1.226   1.207
      - 3d(8.00)    -8.875   1.138
      -  s          21.570   1.164
      -  d          18.337   1.138
  
    # Using partial waves for Ni as LCAO basis

  Fe:
    name: Iron
    id: 37abbd8d6c3c35915a9b583b742da910
    Z: 26.0
    valence: 8
    core: 18
    charge: 0.0
    file: /home/c.zeng/usr/data/gpaw-setups-0.9.20000/Fe.PBE.gz
    compensation charges: {type: gauss,
                           rc: 0.33,
                           lmax: 2}
    cutoffs: {filter: 2.06,
              core: 2.67}
    valence states:
      #              energy  rcut
      - 4s(2.00)    -5.291   1.164
      - 4p(0.00)    -1.326   1.058
      - 3d(6.00)    -7.505   1.058
      -  s          21.920   1.164
      -  p          25.885   1.058
      -  d          19.706   1.058
  
    # Using partial waves for Fe as LCAO basis

Reference energy: -3726899.091688  # eV

Spin-polarized calculation.
Magnetic moment: 140.000000

Convergence criteria:
 Maximum [total energy] change in last 3 cyles: 0.0001 eV / electron
 Maximum integral of absolute [dens]ity change: 0.0001 electrons / valence electron
 Maximum integral of absolute [eigenst]ate change: 4e-08 eV^2 / valence electron
 Maximum number of scf [iter]ations: 666
 (Square brackets indicate name in SCF output, whereas a 'c' in
 the SCF output indicates the quantity has converged.)

Symmetries present (total): 1

  ( 1  0  0)
  ( 0  1  0)
  ( 0  0  1)

4 k-points: 2 x 2 x 1 Monkhorst-Pack grid
2 k-points in the irreducible part of the Brillouin zone
       k-points in crystal coordinates                weights
   0:     0.25000000   -0.25000000    0.00000000          2/4
   1:     0.25000000    0.25000000    0.00000000          2/4

Wave functions: Plane wave expansion
  Cutoff energy: 350.000 eV
  Number of coefficients (min, max): 60935, 60955
  Pulay-stress correction: 0.000000 eV/Ang^3 (de/decut=0.000000)
  Using FFTW library
  ScaLapack parameters: grid=1x1, blocksize=None
  Wavefunction extrapolation:
    Improved wavefunction reuse through dual PAW basis 

Occupation numbers: Fermi-Dirac:
  width: 0.1000  # eV
 

Eigensolver
   Davidson(niter=2) 

Densities:
  Coarse grid: 56*56*128 grid
  Fine grid: 112*112*256 grid
  Total Charge: 0.000000 

Density mixing:
  Method: difference
  Backend: pulay
  Linear mixing parameter: 0.05
  old densities: 5
  Damping of long wavelength oscillations: 50 

Hamiltonian:
  XC and Coulomb potentials evaluated on a 112*112*256 grid
  Using the PBE Exchange-Correlation functional
  External potential:
    NoExternalPotential
 

XC parameters: PBE with 2 nearest neighbor stencil

Memory estimate:
  Process memory now: 379.34 MiB
  Calculator: 2131.41 MiB
    Density: 19.02 MiB
      Arrays: 7.39 MiB
      Localized functions: 8.68 MiB
      Mixer: 2.95 MiB
    Hamiltonian: 5.75 MiB
      Arrays: 5.49 MiB
      XC: 0.00 MiB
      Poisson: 0.00 MiB
      vbar: 0.26 MiB
    Wavefunctions: 2106.64 MiB
      Arrays psit_nG: 1335.62 MiB
      Eigensolver: 751.15 MiB
      Projections: 3.10 MiB
      Projectors: 1.18 MiB
      PW-descriptor: 15.59 MiB

Total number of cores used: 30
Parallelization over k-points: 2
Domain decomposition: 1 x 3 x 5

Number of atoms: 125
Number of atomic orbitals: 1075
Number of bands in calculation: 718
Number of valence electrons: 1050
Bands to converge: occupied

... initialized

Initializing position-dependent things.

Density initialized from atomic densities
Creating initial wave functions:
  718 bands from LCAO basis set

                                                                  
                                                                  
                                                                  
                                                                  
                          Fe    Al           Cr    Fe             
                                  Cr                              
                      Cr    Ni          Cr    Cr                  
                       Ni    NAl   CFe   AAl    Fe    Ni          
                   Al   ACr   CrAl   CNi   NFe   Ni               
        Al                 Fe    Co                               
               Ni   CCo  ANi   CCr    NCr   FNi   Cr              
                Fe   NAl   CCr   CFe     Cr   Al                  
           Ni    Co     Al    AlCo  Ni  Cr               Co       
                 Ni   CFe   FAl   ACo   CFe    Co                 
            Co   CFe    Fe    CCo   NAl                           
        Ni    Al    Ni    Cr Fe Co Ni    CCr    Co    Al          
             Al    Ni   FNi    Cr    FFe   Fe    Fe               
               Fe   AAl   CNi   FFe    Ni    Co                   
                 Fe          Ni        Cr                         
                Cr    CAl   Co    Al    Co                        
           Al    Cr     Cr    Ni    Co                            
                                                                  
                                                                  
                                                                  
                                                                  
                                                                  

Positions:
   0 Co    12.697578    1.490688   10.582791    ( 0.0000,  0.0000,  2.1000)
   1 Al     2.542164    1.500437   10.627261    ( 0.0000,  0.0000,  2.0000)
   2 Cr     5.051596    1.499469   10.598054    ( 0.0000,  0.0000,  2.1000)
   3 Cr     7.634905    1.492702   10.546246    ( 0.0000,  0.0000,  2.0000)
   4 Ni    10.187798    1.493538   10.639090    ( 0.0000,  0.0000,  2.1000)
   5 Co    13.968644    3.696637   10.562654    ( 0.0000,  0.0000,  2.0000)
   6 Cr     3.815030    3.662669   10.568965    ( 0.0000,  0.0000,  2.1000)
   7 Cr     6.371550    3.676864   10.379256    ( 0.0000,  0.0000,  0.0000)
   8 Co     8.929883    3.680660   10.627114    ( 0.0000,  0.0000,  2.1000)
   9 Al    11.419281    3.649344   10.658345    ( 0.0000,  0.0000,  2.1000)
  10 Co    15.274513    5.897370   10.548477    ( 0.0000,  0.0000,  2.0000)
  11 Al     5.059810    5.865944   10.632192    ( 0.0000,  0.0000,  2.0000)
  12 Co     7.645770    5.857944   10.631253    ( 0.0000,  0.0000,  2.1000)
  13 Fe    10.112359    5.849582   10.633748    ( 0.0000,  0.0000,  2.1000)
  14 Cr    12.664006    5.872612   10.350226    ( 0.0000,  0.0000,  0.0000)
  15 Fe    16.518089    8.029617   10.573985    ( 0.0000,  0.0000,  2.0000)
  16 Fe     6.372474    8.042931   10.433618    ( 0.0000,  0.0000,  0.0000)
  17 Co     8.899359    8.058149   10.655528    ( 0.0000,  0.0000,  2.1000)
  18 Fe    11.347730    8.053396   10.581235    ( 0.0000,  0.0000,  0.0000)
  19 Fe    13.974474    8.072476   10.508234    ( 0.0000,  0.0000,  1.5000)
  20 Al    17.786763   10.267487   10.540522    ( 0.0000,  0.0000,  1.5000)
  21 Fe     7.620185   10.288537   10.551618    ( 0.0000,  0.0000,  1.5000)
  22 Ni    10.097013   10.262150   10.527196    ( 0.0000,  0.0000,  0.0000)
  23 Co    12.628341   10.288140   10.200907    ( 0.0000,  0.0000,  0.0000)
  24 Co    15.305799   10.302687   10.215701    ( 0.0000,  0.0000,  0.0000)
  25 Co    18.929799   10.964438   12.614348    ( 0.0000,  0.0000,  0.0000)
  26 Co     8.907314   10.932825   12.633339    ( 0.0000,  0.0000,  0.0000)
  27 Fe     5.161938    0.027744   12.591364    ( 0.0000,  0.0000,  0.0000)
  28 Al     7.639849   -0.017272   12.455019    ( 0.0000,  0.0000,  2.0000)
  29 Ni    10.112151   -0.034156   12.574340    ( 0.0000,  0.0000,  0.0000)
  30 Ni    13.898459    2.274577   12.629494    ( 0.0000,  0.0000,  0.0000)
  31 Fe     3.834283    2.207500   12.641705    ( 0.0000,  0.0000,  1.5000)
  32 Al     6.373751    2.258204   12.578625    ( 0.0000,  0.0000,  1.5000)
  33 Ni     8.903971    2.228935   12.670354    ( 0.0000,  0.0000,  0.0000)
  34 Fe    11.398903    2.240324   12.667418    ( 0.0000,  0.0000,  2.1000)
  35 Al     2.693918    4.433332   12.569320    ( 0.0000,  0.0000,  0.0000)
  36 Ni     5.180997    4.392564   12.579271    ( 0.0000,  0.0000,  2.0000)
  37 Ni     7.640404    4.433761   12.623682    ( 0.0000,  0.0000,  1.5000)
  38 Cr    10.149737    4.418753   12.659728    ( 0.0000,  0.0000,  2.1000)
  39 Fe    12.642941    4.469149   12.588547    ( 0.0000,  0.0000,  0.0000)
  40 Co     3.879740    6.581821   12.636392    ( 0.0000,  0.0000,  2.0000)
  41 Al     6.395207    6.593022   12.619455    ( 0.0000,  0.0000,  0.0000)
  42 Cr     8.882544    6.578464   12.632987    ( 0.0000,  0.0000,  2.0000)
  43 Ni    11.378039    6.588192   12.568968    ( 0.0000,  0.0000,  1.5000)
  44 Cr    13.955999    6.597324   12.503922    ( 0.0000,  0.0000,  0.0000)
  45 Co     5.115939    8.711196   12.577128    ( 0.0000,  0.0000,  2.0000)
  46 Fe     7.617963    8.744371   12.628555    ( 0.0000,  0.0000,  1.5000)
  47 Al    10.162962    8.726392   12.644406    ( 0.0000,  0.0000,  1.5000)
  48 Cr    12.676321    8.832597   12.504509    ( 0.0000,  0.0000,  1.5000)
  49 Co    15.240247    8.741951   12.606188    ( 0.0000,  0.0000,  0.0000)
  50 Ni     1.269616    0.713733   14.695512    ( 0.0000,  0.0000,  2.1000)
  51 Al     3.799097    0.728240   14.717292    ( 0.0000,  0.0000,  0.0000)
  52 Ni     6.399959    0.810401   14.610329    ( 0.0000,  0.0000,  2.1000)
  53 Cr     8.880072    0.764388   14.691902    ( 0.0000,  0.0000,  1.5000)
  54 Co    11.370392    0.737436   14.704406    ( 0.0000,  0.0000,  1.5000)
  55 Co     2.596190    2.870472   14.732086    ( 0.0000,  0.0000,  0.0000)
  56 Fe     5.091424    2.954792   14.649428    ( 0.0000,  0.0000,  0.0000)
  57 Fe     7.608212    2.991224   14.707811    ( 0.0000,  0.0000,  2.1000)
  58 Co    10.154418    2.949686   14.778640    ( 0.0000,  0.0000,  2.1000)
  59 Al    12.643335    2.944834   14.730413    ( 0.0000,  0.0000,  0.0000)
  60 Ni     3.883223    5.134376   14.743182    ( 0.0000,  0.0000,  0.0000)
  61 Fe     6.365651    5.154303   14.674026    ( 0.0000,  0.0000,  2.1000)
  62 Al     8.874207    5.127400   14.687176    ( 0.0000,  0.0000,  2.1000)
  63 Co    11.381160    5.128401   14.701764    ( 0.0000,  0.0000,  1.5000)
  64 Fe    13.994437    5.150045   14.709073    ( 0.0000,  0.0000,  0.0000)
  65 Ni     5.105303    7.314819   14.691491    ( 0.0000,  0.0000,  0.0000)
  66 Co     7.621049    7.313641   14.679104    ( 0.0000,  0.0000,  2.0000)
  67 Co    10.101824    7.296971   14.657206    ( 0.0000,  0.0000,  0.0000)
  68 Cr    12.701036    7.418890   14.544344    ( 0.0000,  0.0000,  0.0000)
  69 Al    15.272539    7.347367   14.706285    ( 0.0000,  0.0000,  2.0000)
  70 Al     6.372338    9.509071   14.708838    ( 0.0000,  0.0000,  0.0000)
  71 Co     8.874214    9.489484   14.713828    ( 0.0000,  0.0000,  1.5000)
  72 Ni    11.385336    9.581859   14.631493    ( 0.0000,  0.0000,  2.1000)
  73 Fe    13.954574    9.609885   14.606455    ( 0.0000,  0.0000,  2.1000)
  74 Cr    16.558825    9.502579   14.642677    ( 0.0000,  0.0000,  0.0000)
  75 Ni    12.678535    1.403816   16.741746    ( 0.0000,  0.0000,  0.0000)
  76 Ni     2.534863    1.419242   16.733997    ( 0.0000,  0.0000,  2.1000)
  77 Co     5.032024    1.508844   16.664371    ( 0.0000,  0.0000,  1.5000)
  78 Al     7.624501    1.526769   16.714506    ( 0.0000,  0.0000,  2.0000)
  79 Al    10.140089    1.502748   16.858366    ( 0.0000,  0.0000,  2.0000)
  80 Cr    14.024748    3.670735   16.858777    ( 0.0000,  0.0000,  0.0000)
  81 Cr     3.842392    3.667775   16.756276    ( 0.0000,  0.0000,  0.0000)
  82 Al     6.334927    3.681056   16.705378    ( 0.0000,  0.0000,  0.0000)
  83 Cr     8.882482    3.670933   16.761471    ( 0.0000,  0.0000,  2.1000)
  84 Fe    11.419526    3.695856   16.803945    ( 0.0000,  0.0000,  2.0000)
  85 Ni    15.257368    5.911564   16.801303    ( 0.0000,  0.0000,  1.5000)
  86 Cr     5.087177    5.870422   16.771246    ( 0.0000,  0.0000,  0.0000)
  87 Ni     7.609371    5.857537   16.712716    ( 0.0000,  0.0000,  2.0000)
  88 Cr    10.109019    5.830149   16.764730    ( 0.0000,  0.0000,  1.5000)
  89 Cr    12.675452    5.872392   16.756129    ( 0.0000,  0.0000,  2.1000)
  90 Ni    16.524277    8.015940   16.738312    ( 0.0000,  0.0000,  2.1000)
  91 Al     6.365933    8.035031   16.712716    ( 0.0000,  0.0000,  2.1000)
  92 Cr     8.835843    8.056003   16.741658    ( 0.0000,  0.0000,  2.0000)
  93 Co    11.351160    8.059051   16.752372    ( 0.0000,  0.0000,  0.0000)
  94 Ni    13.956058    8.042161   16.704057    ( 0.0000,  0.0000,  1.5000)
  95 Ni    17.805404   10.218279   16.745210    ( 0.0000,  0.0000,  0.0000)
  96 Ni     7.627525   10.221888   16.720318    ( 0.0000,  0.0000,  2.1000)
  97 Co    10.100033   10.295513   16.718880    ( 0.0000,  0.0000,  1.5000)
  98 Al    12.667792   10.363481   16.695163    ( 0.0000,  0.0000,  0.0000)
  99 Fe    15.313358   10.247516   16.718322    ( 0.0000,  0.0000,  0.0000)
 100 Fe     6.385878   10.951211   18.797109    ( 0.0000,  0.0000,  0.0000)
 101 Al     8.871549   10.998570   18.734029    ( 0.0000,  0.0000,  0.0000)
 102 Fe     5.012222    0.026603   18.714245    ( 0.0000,  0.0000,  2.0000)
 103 Cr    13.906085   10.955272   18.815278    ( 0.0000,  0.0000,  0.0000)
 104 Fe    16.555065   10.890208   19.190793    ( 0.0000,  0.0000,  0.0000)
 105 Al     1.301962    2.175788   18.880296    ( 0.0000,  0.0000,  0.0000)
 106 Ni     3.763381    2.154408   18.701741    ( 0.0000,  0.0000,  2.0000)
 107 Co     6.282513    2.143955   18.673151    ( 0.0000,  0.0000,  1.5000)
 108 Fe     8.786510    2.178935   18.943933    ( 0.0000,  0.0000,  0.0000)
 109 Co    11.486117    2.202240   18.868055    ( 0.0000,  0.0000,  0.0000)
 110 Fe    15.251278    4.387183   18.855257    ( 0.0000,  0.0000,  1.5000)
 111 Al     5.107352    4.303073   18.990839    ( 0.0000,  0.0000,  0.0000)
 112 Cr     7.597350    4.408838   18.714597    ( 0.0000,  0.0000,  2.0000)
 113 Al    10.211555    4.416706   18.931135    ( 0.0000,  0.0000,  0.0000)
 114 Ni    12.733768    4.452313   18.836295    ( 0.0000,  0.0000,  1.5000)
 115 Fe    16.467351    6.659351   18.958316    ( 0.0000,  0.0000,  0.0000)
 116 Ni     6.329237    6.609791   18.727483    ( 0.0000,  0.0000,  1.5000)
 117 Al     8.815790    6.680885   18.889219    ( 0.0000,  0.0000,  0.0000)
 118 Fe    11.427553    6.639820   18.779556    ( 0.0000,  0.0000,  2.0000)
 119 Al    13.906938    6.631006   18.740193    ( 0.0000,  0.0000,  0.0000)
 120 Cr     5.095653    8.774950   18.707200    ( 0.0000,  0.0000,  2.0000)
 121 Ni     7.571098    8.829550   18.729127    ( 0.0000,  0.0000,  1.5000)
 122 Cr    10.146396    8.866884   18.778117    ( 0.0000,  0.0000,  1.5000)
 123 Cr    12.685104    8.811284   18.742072    ( 0.0000,  0.0000,  2.0000)
 124 Cr    15.188299    8.776017   18.730565    ( 0.0000,  0.0000,  2.0000)

Unit cell:
           periodic     x           y           z      points  spacing
  1. axis:    yes   12.688900    0.000000    0.000000    56     0.1962
  2. axis:    yes    6.352870   11.003500    0.000000    56     0.1965
  3. axis:    no     0.000000    0.000000   29.353100   128     0.2293

  Lengths:  12.688900  12.705746  29.353100
  Angles:   90.000000  90.000000  60.000014

Effective grid spacing dv^(1/3) = 0.2169

     iter     time        total  log10-change:  magmom
                         energy  eigst   dens
iter:   1 01:00:00 -1022.897252                  +139.2256
iter:   2 01:02:01 -1834.409338  +0.48  -1.14    +99.7211
iter:   3 01:04:02 -1424.832185  +0.69  -0.79    +71.9076
iter:   4 01:06:03 -1006.112557  -0.60  -0.90    +50.8756
iter:   5 01:08:04  -930.929735  -1.28  -1.18    +42.0059
iter:   6 01:10:05  -923.356485  -1.77  -1.27    +35.8037
iter:   7 01:12:06  -914.125068  -1.69  -1.29    +34.4026
iter:   8 01:14:07 -1184.920299  -0.75  -1.31    +35.5539
iter:   9 01:16:08  -973.752701  -0.87  -0.96    +33.0787
iter:  10 01:18:09  -900.302005  -1.62  -1.16    +30.2260
iter:  11 01:20:10  -893.278183  -1.79  -1.39    +32.2037
iter:  12 01:22:11  -917.052174  -1.50  -1.47    +33.6088
iter:  13 01:24:12  -901.456120  -1.55  -1.37    +34.5654
iter:  14 01:26:13  -906.849930  -1.37  -1.46    +35.0992
iter:  15 01:28:14  -898.336099  -1.75  -1.52    +33.6556
iter:  16 01:30:15  -890.541474  -2.07  -1.55    +35.5474
iter:  17 01:32:17  -890.363126  -2.22  -1.69    +37.6558
iter:  18 01:34:18  -889.387091  -2.51  -1.73    +39.2350
iter:  19 01:36:19  -904.254740  -2.17  -1.80    +41.2034
iter:  20 01:38:20  -896.127674  -2.07  -1.56    +43.0651
iter:  21 01:40:21  -890.297568  -2.50  -1.68    +43.4824
iter:  22 01:42:22  -890.592227  -2.79  -1.90    +44.1992
iter:  23 01:44:23  -891.918258  -2.52  -1.91    +46.2129
iter:  24 01:46:24  -890.955774  -2.66  -1.93    +47.7044
iter:  25 01:48:25  -891.304460  -2.76  -1.99    +49.1278
iter:  26 01:50:26  -972.931964  -1.64  -2.05    +51.0593
iter:  27 01:52:27  -891.635091  -2.00  -1.22    +51.1630
iter:  28 01:54:28  -892.155869  -2.52  -2.14    +53.9727
iter:  29 01:56:30  -892.759028  -2.84  -2.17    +54.9113
iter:  30 01:58:31  -893.138581  -2.73  -2.17    +57.6271
iter:  31 02:00:32  -893.223107  -3.18  -2.21    +58.8523
iter:  32 02:02:33  -895.846053  -2.77  -2.29    +61.1976
iter:  33 02:04:34  -893.858986  -3.35  -1.98    +60.7487
iter:  34 02:06:36  -894.290025  -3.32  -2.29    +62.3581
iter:  35 02:08:37  -895.607979  -2.73  -2.28    +64.9958
iter:  36 02:10:38  -895.601978  -3.70  -2.14    +64.7174
iter:  37 02:12:39  -896.295050  -2.83  -2.14    +67.1973
iter:  38 02:14:40  -895.803692  -3.03  -2.08    +67.4346
iter:  39 02:16:42  -897.261693  -2.88  -2.17    +67.4722
iter:  40 02:18:44  -896.077236  -2.43  -1.99    +67.8775
iter:  41 02:20:45  -895.606975  -2.73  -2.15    +67.8240
iter:  42 02:22:47  -895.270079  -3.19  -2.27    +67.6544
iter:  43 02:24:48  -895.210384  -3.62  -2.38    +67.2632
iter:  44 02:26:49  -895.637360  -3.22  -2.45    +66.9199
iter:  45 02:28:51  -895.379575  -3.50  -2.29    +67.3111
iter:  46 02:30:52  -895.254300  -3.71  -2.40    +67.3640
iter:  47 02:32:54  -895.292557  -3.82  -2.56    +67.5258
iter:  48 02:34:56  -895.482915  -3.37  -2.56    +67.6089
iter:  49 02:36:57  -895.311804  -3.68  -2.47    +67.8266
iter:  50 02:38:59  -895.388208  -3.87  -2.67    +68.2634
iter:  51 02:41:00  -895.976613  -3.38  -2.63    +68.1709
iter:  52 02:43:02  -895.375419  -3.71  -2.27    +68.5082
iter:  53 02:45:03  -895.399083  -4.04  -2.76    +68.8636
iter:  54 02:47:04  -895.466335c -4.14  -2.85    +69.3655
iter:  55 02:49:05  -895.475778c -4.58  -2.78    +69.6535
iter:  56 02:51:07  -895.544849c -4.24  -2.82    +70.1071
iter:  57 02:53:08  -895.541780c -4.80  -2.74    +70.1102
iter:  58 02:55:09  -895.624256c -4.28  -2.75    +70.4577
iter:  59 02:57:10  -895.988724  -3.70  -2.66    +70.6548
iter:  60 02:59:11  -895.587576  -3.90  -2.35    +70.6616
iter:  61 03:01:13  -895.667097  -3.83  -2.76    +70.9463
iter:  62 03:03:14  -895.714887  -3.68  -2.64    +71.0931
iter:  63 03:05:15  -895.958481  -3.42  -2.58    +70.8910
iter:  64 03:07:16  -895.593493  -3.67  -2.37    +71.0766
iter:  65 03:09:17  -895.702595  -4.00  -2.76    +71.2698
iter:  66 03:11:18  -895.565515  -4.32  -2.58    +71.1088
iter:  67 03:13:19  -895.582881  -4.27  -2.89    +71.3432
iter:  68 03:15:21  -895.566010c -4.59  -2.88    +71.5122
iter:  69 03:17:22  -895.578806c -4.71  -2.95    +71.5785
iter:  70 03:19:23  -895.625312c -4.17  -2.94    +71.6451
iter:  71 03:21:24  -895.641823c -4.19  -2.78    +71.7464
iter:  72 03:23:25  -895.679972c -3.92  -2.73    +72.1749
iter:  73 03:25:26  -895.585555c -4.37  -2.65    +71.9312
iter:  74 03:27:28  -895.591456c -4.32  -3.03    +71.9051
iter:  75 03:29:29  -895.574686c -4.69  -3.07    +72.0020
iter:  76 03:31:30  -895.581072c -4.97  -3.21    +72.1378
iter:  77 03:33:31  -895.582104c -5.17  -3.17    +72.1075
iter:  78 03:35:32  -895.596798c -4.82  -3.19    +72.1110
iter:  79 03:37:33  -895.580170c -5.30  -2.97    +72.1913
iter:  80 03:39:35  -895.580142c -5.31  -3.24    +72.3072
iter:  81 03:41:36  -895.582765c -5.13  -3.34    +72.4199
iter:  82 03:43:37  -895.586345c -5.10  -3.46    +72.4504
iter:  83 03:45:38  -895.582871c -5.35  -3.22    +72.5169
iter:  84 03:47:39  -895.627363c -4.65  -3.41    +72.5866
iter:  85 03:49:41  -895.582991c -5.03  -2.86    +72.5470
iter:  86 03:51:42  -895.582177c -5.70  -3.59    +72.5648
iter:  87 03:53:43  -895.581957c -6.06  -3.60    +72.6061
iter:  88 03:55:44  -895.582221c -6.32  -3.60    +72.6290
iter:  89 03:57:46  -895.582352c -6.57  -3.70    +72.6406
iter:  90 03:59:47  -895.582144c -6.19  -3.70    +72.6519
iter:  91 04:01:48  -895.582413c -6.42  -3.85    +72.6405
iter:  92 04:03:49  -895.583222c -5.96  -3.81    +72.6409
iter:  93 04:05:50  -895.582397c -6.18  -3.86    +72.6406
iter:  94 04:07:52  -895.583447c -6.08  -3.88    +72.6476
iter:  95 04:09:53  -895.582488c -6.45  -3.72    +72.6544
iter:  96 04:11:54  -895.582711c -6.95  -4.04c   +72.6687
iter:  97 04:13:55  -895.582606c -7.28  -4.14c   +72.6647
iter:  98 04:15:56  -895.582998c -6.80  -4.18c   +72.6607
iter:  99 04:17:57  -895.582645c -7.27  -4.12c   +72.6623
iter: 100 04:19:58  -895.582776c -6.95  -4.21c   +72.6647
iter: 101 04:21:59  -895.583115c -6.73  -4.19c   +72.6620
iter: 102 04:24:00  -895.583144c -6.62  -3.98    +72.6680
iter: 103 04:26:02  -895.582865c -6.94  -4.12c   +72.6648
iter: 104 04:28:03  -895.582712c -6.94  -4.33c   +72.6525
iter: 105 04:30:04  -895.582889c -7.39  -4.32c   +72.6635
iter: 106 04:32:05  -895.582935c -7.59c -4.41c   +72.6631

Converged after 106 iterations.

Dipole moment: (60.891122, 50.227497, 0.070930) |e|*Ang

Total magnetic moment: (0.000000, 0.000000, 72.663079)
Local magnetic moments:
   0 Co ( 0.000000,  0.000000,  1.534176)
   1 Al ( 0.000000,  0.000000, -0.038176)
   2 Cr ( 0.000000,  0.000000, -2.245933)
   3 Cr ( 0.000000,  0.000000,  2.412378)
   4 Ni ( 0.000000,  0.000000,  0.460477)
   5 Co ( 0.000000,  0.000000,  1.185330)
   6 Cr ( 0.000000,  0.000000,  2.033871)
   7 Cr ( 0.000000,  0.000000, -2.672858)
   8 Co ( 0.000000,  0.000000,  1.237045)
   9 Al ( 0.000000,  0.000000, -0.041313)
  10 Co ( 0.000000,  0.000000,  1.090831)
  11 Al ( 0.000000,  0.000000, -0.043679)
  12 Co ( 0.000000,  0.000000,  1.017237)
  13 Fe ( 0.000000,  0.000000,  2.298944)
  14 Cr ( 0.000000,  0.000000, -2.844294)
  15 Fe ( 0.000000,  0.000000,  2.530454)
  16 Fe ( 0.000000,  0.000000,  2.604549)
  17 Co ( 0.000000,  0.000000,  1.296722)
  18 Fe ( 0.000000,  0.000000,  2.429519)
  19 Fe ( 0.000000,  0.000000,  2.537323)
  20 Al ( 0.000000,  0.000000, -0.059962)
  21 Fe ( 0.000000,  0.000000,  2.634698)
  22 Ni ( 0.000000,  0.000000,  0.355706)
  23 Co ( 0.000000,  0.000000,  1.544560)
  24 Co ( 0.000000,  0.000000,  1.613575)
  25 Co ( 0.000000,  0.000000,  1.545827)
  26 Co ( 0.000000,  0.000000,  1.424369)
  27 Fe ( 0.000000,  0.000000,  2.258930)
  28 Al ( 0.000000,  0.000000, -0.034467)
  29 Ni ( 0.000000,  0.000000,  0.345579)
  30 Ni ( 0.000000,  0.000000,  0.386907)
  31 Fe ( 0.000000,  0.000000,  1.925877)
  32 Al ( 0.000000,  0.000000, -0.018464)
  33 Ni ( 0.000000,  0.000000,  0.280265)
  34 Fe ( 0.000000,  0.000000,  2.390230)
  35 Al ( 0.000000,  0.000000, -0.042255)
  36 Ni ( 0.000000,  0.000000,  0.190136)
  37 Ni ( 0.000000,  0.000000,  0.294694)
  38 Cr ( 0.000000,  0.000000, -1.657561)
  39 Fe ( 0.000000,  0.000000,  1.997243)
  40 Co ( 0.000000,  0.000000,  1.023736)
  41 Al ( 0.000000,  0.000000, -0.045289)
  42 Cr ( 0.000000,  0.000000,  1.198572)
  43 Ni ( 0.000000,  0.000000,  0.249170)
  44 Cr ( 0.000000,  0.000000,  1.409304)
  45 Co ( 0.000000,  0.000000,  1.308523)
  46 Fe ( 0.000000,  0.000000,  2.344145)
  47 Al ( 0.000000,  0.000000, -0.036423)
  48 Cr ( 0.000000,  0.000000, -1.546776)
  49 Co ( 0.000000,  0.000000,  1.010066)
  50 Ni ( 0.000000,  0.000000,  0.377714)
  51 Al ( 0.000000,  0.000000, -0.040518)
  52 Ni ( 0.000000,  0.000000,  0.264133)
  53 Cr ( 0.000000,  0.000000,  1.483469)
  54 Co ( 0.000000,  0.000000,  1.140371)
  55 Co ( 0.000000,  0.000000,  1.067111)
  56 Fe ( 0.000000,  0.000000,  1.981908)
  57 Fe ( 0.000000,  0.000000,  1.598047)
  58 Co ( 0.000000,  0.000000,  0.774307)
  59 Al ( 0.000000,  0.000000, -0.037400)
  60 Ni ( 0.000000,  0.000000,  0.312643)
  61 Fe ( 0.000000,  0.000000,  2.235344)
  62 Al ( 0.000000,  0.000000, -0.012586)
  63 Co ( 0.000000,  0.000000,  0.853431)
  64 Fe ( 0.000000,  0.000000,  2.228510)
  65 Ni ( 0.000000,  0.000000,  0.135215)
  66 Co ( 0.000000,  0.000000,  0.768048)
  67 Co ( 0.000000,  0.000000,  0.791587)
  68 Cr ( 0.000000,  0.000000, -1.214520)
  69 Al ( 0.000000,  0.000000, -0.018321)
  70 Al ( 0.000000,  0.000000, -0.027754)
  71 Co ( 0.000000,  0.000000,  1.230317)
  72 Ni ( 0.000000,  0.000000,  0.245470)
  73 Fe ( 0.000000,  0.000000,  1.970073)
  74 Cr ( 0.000000,  0.000000, -1.803050)
  75 Ni ( 0.000000,  0.000000,  0.324288)
  76 Ni ( 0.000000,  0.000000,  0.215841)
  77 Co ( 0.000000,  0.000000,  0.974921)
  78 Al ( 0.000000,  0.000000,  0.001809)
  79 Al ( 0.000000,  0.000000, -0.009351)
  80 Cr ( 0.000000,  0.000000, -1.938583)
  81 Cr ( 0.000000,  0.000000,  1.196972)
  82 Al ( 0.000000,  0.000000, -0.037470)
  83 Cr ( 0.000000,  0.000000, -1.184864)
  84 Fe ( 0.000000,  0.000000,  1.928196)
  85 Ni ( 0.000000,  0.000000,  0.193410)
  86 Cr ( 0.000000,  0.000000, -1.771699)
  87 Ni ( 0.000000,  0.000000,  0.069597)
  88 Cr ( 0.000000,  0.000000,  0.987822)
  89 Cr ( 0.000000,  0.000000,  0.991933)
  90 Ni ( 0.000000,  0.000000,  0.185531)
  91 Al ( 0.000000,  0.000000,  0.001724)
  92 Cr ( 0.000000,  0.000000, -1.709397)
  93 Co ( 0.000000,  0.000000,  0.464503)
  94 Ni ( 0.000000,  0.000000,  0.058967)
  95 Ni ( 0.000000,  0.000000,  0.128081)
  96 Ni ( 0.000000,  0.000000,  0.237476)
  97 Co ( 0.000000,  0.000000,  1.095116)
  98 Al ( 0.000000,  0.000000, -0.022880)
  99 Fe ( 0.000000,  0.000000,  2.042149)
 100 Fe ( 0.000000,  0.000000,  2.486147)
 101 Al ( 0.000000,  0.000000, -0.036289)
 102 Fe ( 0.000000,  0.000000,  2.094141)
 103 Cr ( 0.000000,  0.000000, -1.922858)
 104 Fe ( 0.000000,  0.000000, -2.703846)
 105 Al ( 0.000000,  0.000000, -0.029769)
 106 Ni ( 0.000000,  0.000000,  0.198053)
 107 Co ( 0.000000,  0.000000,  0.741178)
 108 Fe ( 0.000000,  0.000000, -2.243700)
 109 Co ( 0.000000,  0.000000,  1.110226)
 110 Fe ( 0.000000,  0.000000,  2.417374)
 111 Al ( 0.000000,  0.000000, -0.035138)
 112 Cr ( 0.000000,  0.000000,  2.341246)
 113 Al ( 0.000000,  0.000000, -0.022178)
 114 Ni ( 0.000000,  0.000000,  0.182221)
 115 Fe ( 0.000000,  0.000000,  2.494726)
 116 Ni ( 0.000000,  0.000000,  0.105203)
 117 Al ( 0.000000,  0.000000, -0.016575)
 118 Fe ( 0.000000,  0.000000,  1.830190)
 119 Al ( 0.000000,  0.000000, -0.028357)
 120 Cr ( 0.000000,  0.000000,  2.307053)
 121 Ni ( 0.000000,  0.000000,  0.183138)
 122 Cr ( 0.000000,  0.000000,  1.806271)
 123 Cr ( 0.000000,  0.000000,  1.969742)
 124 Cr ( 0.000000,  0.000000, -1.980318)

Energy contributions relative to reference atoms: (reference = -3726899.091688)

Kinetic:       +445.087621
Potential:     -404.055519
External:        +0.000000
XC:            -969.377304
Entropy (-ST):   -4.989900
Local:          +35.257216
--------------------------
Free energy:   -898.077885
Extrapolated:  -895.582935

Dipole-layer corrected work functions: 4.848792, 4.756867 eV

Spin contamination: 36.334928 electrons
Showing all kpts
                      Up                     Down
 Kpt  Band  Eigenvalues  Occupancy  Eigenvalues  Occupancy
  0   523     -0.08688    0.99582      0.84773    0.02039
  0   524     -0.07685    0.99538      0.85374    0.01922
  0   525     -0.06736    0.99493      0.85921    0.01822
  0   526     -0.04406    0.99360      0.87763    0.01520

  1   523     -0.08600    0.99579      0.82303    0.02595
  1   524     -0.08091    0.99557      0.84549    0.02084
  1   525     -0.06296    0.99470      0.85996    0.01808
  1   526     -0.04788    0.99384      0.87086    0.01625


Fermi level: 0.46051

Gap: 0.001 eV
Transition (v -> c):
  (s=0, k=1, n=561, [0.25, 0.25, 0.00]) -> (s=0, k=0, n=562, [0.25, -0.25, 0.00])

Forces in eV/Ang:
  0 Co    0.20982   -0.16111    0.44648
  1 Al   -1.07292   -0.45769   -0.64949
  2 Cr   -0.06491   -0.90238   -0.76145
  3 Cr    0.10250    0.32982   -1.29045
  4 Ni   -0.13394   -0.10066   -0.21196
  5 Co   -0.20924    0.20636    0.50888
  6 Cr    0.60639   -0.26555   -1.23276
  7 Cr    0.68052    0.36330    0.06630
  8 Co   -0.05965    0.22776    0.20900
  9 Al    0.02739   -0.64160   -1.93478
 10 Co   -0.51136   -0.05834    0.05076
 11 Al   -0.11166    0.24742   -1.66964
 12 Co    0.06006    0.17725   -0.12704
 13 Fe   -0.32505   -0.24047   -0.58850
 14 Cr    0.41686    0.58376    0.53102
 15 Fe   -0.53225    0.39836    0.18923
 16 Fe    0.47813    0.03285    0.30127
 17 Co   -0.31432    0.00880   -0.18306
 18 Fe    0.48133    0.58460   -0.51823
 19 Fe   -0.12138    0.67142   -0.19855
 20 Al   -0.32179    0.19346   -0.60290
 21 Fe    0.26901   -0.06457    0.38577
 22 Ni    0.34893    0.00555    0.34104
 23 Co    0.25989   -0.25536    1.17039
 24 Co   -0.56569   -0.41766    1.08267
 25 Co    0.94551    0.29770    0.35135
 26 Co   -0.44972    0.38157    0.00595
 27 Fe   -0.56638   -0.49797   -0.76625
 28 Al    0.94021   -0.72644    0.09123
 29 Ni    0.06577    0.00433    0.28656
 30 Ni    0.39482   -0.52756    0.37360
 31 Fe   -0.18188   -0.43735    0.47902
 32 Al    0.34692    0.79095    0.95311
 33 Ni   -0.20203   -0.16136   -0.11994
 34 Fe   -0.16667   -0.99485    0.24300
 35 Al   -0.97933   -0.25824    1.16856
 36 Ni   -0.38351   -0.01805    0.40080
 37 Ni    0.21778   -0.46942   -0.31333
 38 Cr   -0.04825    0.00397   -0.05301
 39 Fe    0.60831   -0.14903    0.30809
 40 Co   -0.45772    0.56607    0.09363
 41 Al   -0.48795   -0.00861    0.68535
 42 Cr    0.45703   -0.49638   -0.37228
 43 Ni    0.61755    0.02576    0.50685
 44 Cr   -0.05890    0.65382    0.07487
 45 Co   -0.31085    0.71799    0.06426
 46 Fe   -0.18529    0.99167   -0.23385
 47 Al   -0.22312    1.11042    0.38181
 48 Cr    0.48885   -0.77421   -0.35315
 49 Co    0.04310    0.22905   -0.19738
 50 Ni   -0.10037    0.07032   -0.36789
 51 Al   -0.09481   -0.30612   -0.42739
 52 Ni   -0.33942   -0.39712    0.09769
 53 Cr    0.73135    0.11405   -0.69458
 54 Co   -0.11719   -0.28461   -0.34062
 55 Co   -0.34683    0.75136   -0.27149
 56 Fe   -0.32101    0.18772    0.03898
 57 Fe    0.40789   -0.12708   -0.16729
 58 Co   -0.34965   -0.22744   -0.35789
 59 Al    0.56081   -0.21719   -0.15052
 60 Ni   -0.25462   -0.16810   -0.32792
 61 Fe   -0.39936   -0.08740    0.15998
 62 Al   -0.19005    0.33670    0.15605
 63 Co    0.42820    0.63221    0.09063
 64 Fe   -0.18002   -0.45663   -0.05671
 65 Ni   -0.04680    0.05881   -0.04338
 66 Co    0.27032    0.15517   -0.09653
 67 Co    0.61272    0.04023    0.46344
 68 Cr   -1.00776   -0.52109    0.54242
 69 Al    0.11064   -0.70906   -0.07192
 70 Al    0.51188    0.79679   -0.97660
 71 Co    0.06610   -0.10390   -0.38375
 72 Ni    0.24462   -0.48325    0.34359
 73 Fe    0.28165   -0.55213   -0.09679
 74 Cr   -0.89311    1.06295   -0.11749
 75 Ni    0.15622    0.31862    0.20529
 76 Ni   -0.31341    0.40296   -0.24866
 77 Co    0.04284    0.09432    0.44161
 78 Al   -0.52880   -0.61160    0.47672
 79 Al    1.55877   -0.97509    0.47545
 80 Cr    0.18302    0.62732   -0.56251
 81 Cr   -0.77090    0.19029   -0.35860
 82 Al   -0.37525   -0.02220   -0.26054
 83 Cr    0.42902    0.70633    0.63783
 84 Fe    0.31253   -0.17020    0.17338
 85 Ni    0.02851   -0.46016   -0.10254
 86 Cr   -0.94398   -0.43990    0.29776
 87 Ni   -0.02812    0.17924    0.09104
 88 Cr    0.82895    0.59684   -0.06803
 89 Cr   -0.77530    0.16690   -1.00094
 90 Ni   -0.01717    0.46618    0.01777
 91 Al   -0.34692   -0.24095    0.08635
 92 Cr    1.78229    0.38776   -0.91087
 93 Co    0.32399   -0.04301   -0.28476
 94 Ni   -0.35109    0.63272   -0.44304
 95 Ni   -0.32212    0.18215    0.07762
 96 Ni   -0.16268    0.30201   -0.13317
 97 Co    0.37337   -0.62185    0.15426
 98 Al   -0.52761   -1.33918   -1.04780
 99 Fe   -0.36723   -0.28976    0.39132
100 Fe   -0.55086    0.78325   -0.23120
101 Al    0.19701   -0.31920    0.79166
102 Fe    0.23173    0.39919   -0.13264
103 Cr    0.33334    0.37341    0.58507
104 Fe   -0.25535    0.63562   -0.84051
105 Al   -0.81270    0.43798    0.69974
106 Ni    0.22531    0.30680    0.34029
107 Co    0.18148   -0.11813    0.01716
108 Fe    0.52310    0.08145   -0.23828
109 Co   -0.38344   -0.29102   -0.43036
110 Fe   -0.09324    0.43607   -0.31873
111 Al   -0.63867    0.23521    0.70806
112 Cr    0.84291   -0.76272    0.43973
113 Al    0.49271   -0.72099    0.69707
114 Ni   -0.12530   -0.34973    0.15449
115 Fe    0.23729   -0.60552   -0.65567
116 Ni   -0.32050   -0.01214    0.38893
117 Al   -0.23962    0.07900    0.72603
118 Fe   -0.51939   -0.14947   -0.36462
119 Al    0.60001   -0.95940    1.33208
120 Cr   -0.89661    0.45099    1.41216
121 Ni    0.02221   -0.22791    0.43000
122 Cr    0.53142   -0.52375   -0.29150
123 Cr    0.03247    0.13557    0.19025
124 Cr    0.58990    0.36408    0.16942

Timing:                              incl.     excl.
-----------------------------------------------------------
Forces:                             35.079    35.079   0.3% |
Hamiltonian:                         1.609     0.010   0.0% |
 Atomic:                             0.384     0.001   0.0% |
  XC Correction:                     0.383     0.383   0.0% |
 Calculate atomic Hamiltonians:      0.648     0.648   0.0% |
 Communicate:                        0.152     0.152   0.0% |
 Initialize Hamiltonian:             0.000     0.000   0.0% |
 Poisson:                            0.086     0.086   0.0% |
 XC 3D grid:                         0.328     0.328   0.0% |
LCAO initialization:               223.256     0.564   0.0% |
 LCAO eigensolver:                  11.491     0.012   0.0% |
  Calculate projections:             0.000     0.000   0.0% |
  DenseAtomicCorrection:             0.000     0.000   0.0% |
  Distribute overlap matrix:         7.647     7.647   0.1% |
  Orbital Layouts:                   3.804     3.804   0.0% |
  Potential matrix:                  0.003     0.003   0.0% |
  Sum over cells:                    0.025     0.025   0.0% |
 LCAO to grid:                     209.204   209.204   1.6% ||
 Set positions (LCAO WFS):           1.996     1.720   0.0% |
  Basic WFS set positions:           0.003     0.003   0.0% |
  Basis functions set positions:     0.001     0.001   0.0% |
  P tci:                             0.000     0.000   0.0% |
  ST tci:                            0.111     0.111   0.0% |
  mktci:                             0.161     0.161   0.0% |
PWDescriptor:                        0.087     0.087   0.0% |
SCF-cycle:                       12857.874     1.254   0.0% |
 Davidson:                       12433.709  4332.762  33.0% |------------|
  Apply H:                         231.251   227.194   1.7% ||
   HMM T:                            4.057     4.057   0.0% |
  Subspace diag:                  1357.485     0.033   0.0% |
   calc_h_matrix:                  558.582   359.376   2.7% ||
    Apply H:                       199.206   194.621   1.5% ||
     HMM T:                          4.585     4.585   0.0% |
   diagonalize:                    115.431   115.431   0.9% |
   rotate_psi:                     683.438   683.438   5.2% |-|
  calc. matrices:                 3182.624  2798.796  21.3% |--------|
   Apply H:                        383.828   375.632   2.9% ||
    HMM T:                           8.195     8.195   0.1% |
  diagonalize:                    1876.458  1876.458  14.3% |-----|
  rotate_psi:                     1453.128  1453.128  11.1% |---|
 Density:                          226.416     0.003   0.0% |
  Atomic density matrices:           2.493     2.493   0.0% |
  Mix:                             105.619   105.619   0.8% |
  Multipole moments:                 0.067     0.067   0.0% |
  Pseudo density:                  118.234   118.229   0.9% |
   Symmetrize density:               0.005     0.005   0.0% |
 Hamiltonian:                      180.808     1.174   0.0% |
  Atomic:                           40.288     0.132   0.0% |
   XC Correction:                   40.156    40.156   0.3% |
  Calculate atomic Hamiltonians:    88.122    88.122   0.7% |
  Communicate:                      13.523    13.523   0.1% |
  Poisson:                           3.823     3.823   0.0% |
  XC 3D grid:                       33.878    33.878   0.3% |
 Orthonormalize:                    15.686     0.000   0.0% |
  calc_s_matrix:                     1.848     1.848   0.0% |
  inverse-cholesky:                  0.664     0.664   0.0% |
  projections:                       9.929     9.929   0.1% |
  rotate_psi_s:                      3.245     3.245   0.0% |
Set symmetry:                        0.001     0.001   0.0% |
Other:                               7.161     7.161   0.1% |
-----------------------------------------------------------
Total:                                     13125.067 100.0%

Date: Thu Apr 20 04:32:44 2023
