
  ___ ___ ___ _ _ _  
 |   |   |_  | | | | 
 | | | | | . | | | | 
 |__ |  _|___|_____|  22.8.0
 |___|_|             

User:   c.zeng@d0106
Date:   Mon Apr 17 20:38:29 2023
Arch:   x86_64
Pid:    111852
CWD:    /home/c.zeng/projects/hea-corrosion/hea-mlp/data-curation/surface-md/dft-jobs/81
Python: 3.8.1
gpaw:   /home/c.zeng/usr/installs/gpaw/source/gpaw-22.8.0/gpaw
_gpaw:  /home/c.zeng/usr/installs/gpaw/source/gpaw-22.8.0/
        _gpaw.cpython-38-x86_64-linux-gnu.so
ase:    /home/c.zeng/.local/lib/python3.8/site-packages/ase-3.22.1-py3.8.egg/ase (version 3.22.1)
numpy:  /home/c.zeng/.local/lib/python3.8/site-packages/numpy (version 1.24.2)
scipy:  /home/c.zeng/.local/lib/python3.8/site-packages/scipy (version 1.10.1)
libxc:  4.2.3
units:  Angstrom and eV
cores: 30
OpenMP: False
OMP_NUM_THREADS: 1

Input parameters:
  convergence: {energy: 0.0001}
  kpts: [2 2 1]
  maxiter: 666
  mode: {ecut: 350.0,
         name: pw}
  occupations: {fixmagmom: False,
                name: fermi-dirac,
                width: 0.1}
  poissonsolver: {dipolelayer: xy}
  spinpol: True
  symmetry: {point_group: False}
  xc: PBE

System changes: positions, numbers, cell, pbc, initial_charges, initial_magmoms 

Initialize ...

species:
  Co:
    name: Cobalt
    id: 339d20d5b0b93d2de9531a1bee871d91
    Z: 27.0
    valence: 9
    core: 18
    charge: 0.0
    file: /home/c.zeng/usr/data/gpaw-setups-0.9.20000/Co.PBE.gz
    compensation charges: {type: gauss,
                           rc: 0.32,
                           lmax: 2}
    cutoffs: {filter: 1.87,
              core: 2.55}
    valence states:
      #              energy  rcut
      - 4s(2.00)    -5.469   1.005
      - 4p(0.00)    -1.277   1.058
      - 3d(7.00)    -8.205   1.005
      -  s          21.742   1.005
      -  p          25.934   1.058
      -  d          19.007   1.005
  
    # Using partial waves for Co as LCAO basis

  Fe:
    name: Iron
    id: 37abbd8d6c3c35915a9b583b742da910
    Z: 26.0
    valence: 8
    core: 18
    charge: 0.0
    file: /home/c.zeng/usr/data/gpaw-setups-0.9.20000/Fe.PBE.gz
    compensation charges: {type: gauss,
                           rc: 0.33,
                           lmax: 2}
    cutoffs: {filter: 2.06,
              core: 2.67}
    valence states:
      #              energy  rcut
      - 4s(2.00)    -5.291   1.164
      - 4p(0.00)    -1.326   1.058
      - 3d(6.00)    -7.505   1.058
      -  s          21.920   1.164
      -  p          25.885   1.058
      -  d          19.706   1.058
  
    # Using partial waves for Fe as LCAO basis

  Al:
    name: Aluminium
    id: 0292cae29f5d6237e50f6abdd43a7bdd
    Z: 13.0
    valence: 3
    core: 10
    charge: 0.0
    file: /home/c.zeng/usr/data/gpaw-setups-0.9.20000/Al.PBE.gz
    compensation charges: {type: gauss,
                           rc: 0.34,
                           lmax: 2}
    cutoffs: {filter: 1.91,
              core: 2.36}
    valence states:
      #              energy  rcut
      - 3s(2.00)    -7.753   1.085
      - 3p(1.00)    -2.712   1.085
      -  s          19.459   1.085
      -  p          24.499   1.085
      -  d           0.000   1.085
  
    # Using partial waves for Al as LCAO basis

  Cr:
    name: Chromium
    id: 33f258bda2ca9f93018e70263a35547b
    Z: 24.0
    valence: 6
    core: 18
    charge: 0.0
    file: /home/c.zeng/usr/data/gpaw-setups-0.9.20000/Cr.PBE.gz
    compensation charges: {type: gauss,
                           rc: 0.35,
                           lmax: 2}
    cutoffs: {filter: 2.14,
              core: 3.04}
    valence states:
      #              energy  rcut
      - 4s(1.00)    -4.007   1.164
      - 4p(0.00)    -0.989   1.217
      - 3d(5.00)    -2.913   1.111
      -  s          23.205   1.164
      -  p          26.223   1.217
      -  d          24.299   1.111
  
    # Using partial waves for Cr as LCAO basis

  Ni:
    name: Nickel
    id: 0d9f38a9d6e76a2886f07bb4381f212b
    Z: 28.0
    valence: 16
    core: 12
    charge: 0.0
    file: /home/c.zeng/usr/data/gpaw-setups-0.9.20000/Ni.PBE.gz
    compensation charges: {type: gauss,
                           rc: 0.36,
                           lmax: 2}
    cutoffs: {filter: 2.14,
              core: 1.98}
    valence states:
      #              energy  rcut
      - 4s(2.00)    -5.642   1.164
      - 3p(6.00)   -71.394   1.207
      - 4p(0.00)    -1.226   1.207
      - 3d(8.00)    -8.875   1.138
      -  s          21.570   1.164
      -  d          18.337   1.138
  
    # Using partial waves for Ni as LCAO basis

Reference energy: -3726899.091688  # eV

Spin-polarized calculation.
Magnetic moment: 140.000000

Convergence criteria:
 Maximum [total energy] change in last 3 cyles: 0.0001 eV / electron
 Maximum integral of absolute [dens]ity change: 0.0001 electrons / valence electron
 Maximum integral of absolute [eigenst]ate change: 4e-08 eV^2 / valence electron
 Maximum number of scf [iter]ations: 666
 (Square brackets indicate name in SCF output, whereas a 'c' in
 the SCF output indicates the quantity has converged.)

Symmetries present (total): 1

  ( 1  0  0)
  ( 0  1  0)
  ( 0  0  1)

4 k-points: 2 x 2 x 1 Monkhorst-Pack grid
2 k-points in the irreducible part of the Brillouin zone
       k-points in crystal coordinates                weights
   0:     0.25000000   -0.25000000    0.00000000          2/4
   1:     0.25000000    0.25000000    0.00000000          2/4

Wave functions: Plane wave expansion
  Cutoff energy: 350.000 eV
  Number of coefficients (min, max): 60935, 60955
  Pulay-stress correction: 0.000000 eV/Ang^3 (de/decut=0.000000)
  Using FFTW library
  ScaLapack parameters: grid=1x1, blocksize=None
  Wavefunction extrapolation:
    Improved wavefunction reuse through dual PAW basis 

Occupation numbers: Fermi-Dirac:
  width: 0.1000  # eV
 

Eigensolver
   Davidson(niter=2) 

Densities:
  Coarse grid: 56*56*128 grid
  Fine grid: 112*112*256 grid
  Total Charge: 0.000000 

Density mixing:
  Method: difference
  Backend: pulay
  Linear mixing parameter: 0.05
  old densities: 5
  Damping of long wavelength oscillations: 50 

Hamiltonian:
  XC and Coulomb potentials evaluated on a 112*112*256 grid
  Using the PBE Exchange-Correlation functional
  External potential:
    NoExternalPotential
 

XC parameters: PBE with 2 nearest neighbor stencil

Memory estimate:
  Process memory now: 377.76 MiB
  Calculator: 2131.41 MiB
    Density: 19.02 MiB
      Arrays: 7.39 MiB
      Localized functions: 8.68 MiB
      Mixer: 2.95 MiB
    Hamiltonian: 5.75 MiB
      Arrays: 5.49 MiB
      XC: 0.00 MiB
      Poisson: 0.00 MiB
      vbar: 0.26 MiB
    Wavefunctions: 2106.64 MiB
      Arrays psit_nG: 1335.62 MiB
      Eigensolver: 751.15 MiB
      Projections: 3.10 MiB
      Projectors: 1.18 MiB
      PW-descriptor: 15.59 MiB

Total number of cores used: 30
Parallelization over k-points: 2
Domain decomposition: 1 x 3 x 5

Number of atoms: 125
Number of atomic orbitals: 1075
Number of bands in calculation: 718
Number of valence electrons: 1050
Bands to converge: occupied

... initialized

Initializing position-dependent things.

Density initialized from atomic densities
Creating initial wave functions:
  718 bands from LCAO basis set

                                                                  
                                                                  
                                                                  
                                                                  
                                             Cr    Al             
                           Cr    Cr                               
                      Fe    Ni     Ni    Fe    Fe                 
                              Al    Fe    Cr     Al               
                   Al  Ni Fe  CoAl  NiNi  AlNi  Al    Cr          
                         CoAl  Fe    Al    Ni     Co              
        Cr     Fe   CNi   Fe     NCr   Co    Ni                   
                 Fe      Cr     NiFe  Co Al  Co    Cr             
                Cr   CCr   FCo  ACr     Al     Fe        Al       
           Co    CNi  CoFe   CFe   NiAl   Al                      
                   Cr Fe Co Ni Co Ni Cr Ni     Al                 
            Cr    Fe    Cr   Fe    CNi                Ni          
        Co    Cr   FCo   NiNi  CoNi   Cr AlCr   Al                
             Al      Ni Al     CoCo  CrAl  Ni    Fe               
              Ni    Fe    CAl   Co    Al      Fe                  
                Al    Fe    CCr   Co     Fe                       
           Fe  Co     Al      Co    Co                            
                 Co    Fe                                         
                                                                  
                                                                  
                                                                  
                                                                  
                                                                  

Positions:
   0 Co    12.680255    1.563317   10.615275    ( 0.0000,  0.0000,  2.1000)
   1 Fe     2.339793    1.599138   10.668129    ( 0.0000,  0.0000,  2.0000)
   2 Co     5.005140    1.348790   10.475044    ( 0.0000,  0.0000,  2.1000)
   3 Fe     7.448112    1.448138   10.596998    ( 0.0000,  0.0000,  2.0000)
   4 Co    10.112507    1.423545   10.827471    ( 0.0000,  0.0000,  2.1000)
   5 Fe    13.878381    3.827408   10.415396    ( 0.0000,  0.0000,  2.0000)
   6 Co     3.763336    3.583058   10.419926    ( 0.0000,  0.0000,  2.1000)
   7 Al     6.310371    3.521810   10.409762    ( 0.0000,  0.0000,  0.0000)
   8 Co     8.708720    3.582232   10.621901    ( 0.0000,  0.0000,  2.1000)
   9 Co    11.221964    3.644801   10.606194    ( 0.0000,  0.0000,  2.1000)
  10 Fe    15.397164    5.748636   10.318618    ( 0.0000,  0.0000,  2.0000)
  11 Fe     5.174337    5.750621   10.571882    ( 0.0000,  0.0000,  2.0000)
  12 Co     7.546639    5.918420   10.619263    ( 0.0000,  0.0000,  2.1000)
  13 Co     9.884756    5.802616   10.608904    ( 0.0000,  0.0000,  2.1000)
  14 Al    12.491935    5.904483   10.483261    ( 0.0000,  0.0000,  0.0000)
  15 Fe    16.370430    7.928646   10.593047    ( 0.0000,  0.0000,  2.0000)
  16 Al     6.213665    8.100636   10.523958    ( 0.0000,  0.0000,  0.0000)
  17 Co     8.761978    8.201267   10.485704    ( 0.0000,  0.0000,  2.1000)
  18 Cr    11.200777    8.154536   10.268776    ( 0.0000,  0.0000,  0.0000)
  19 Ni    14.012871    7.961097    9.967074    ( 0.0000,  0.0000,  1.5000)
  20 Ni    17.763198   10.326892   10.569654    ( 0.0000,  0.0000,  1.5000)
  21 Ni     7.425488   10.440546   10.439281    ( 0.0000,  0.0000,  1.5000)
  22 Cr     9.968130   10.369324   10.468107    ( 0.0000,  0.0000,  0.0000)
  23 Al    12.540831   10.228520    9.980717    ( 0.0000,  0.0000,  0.0000)
  24 Al    15.191456   10.317509   10.137053    ( 0.0000,  0.0000,  0.0000)
  25 Al    18.709956   11.051753   12.819986    ( 0.0000,  0.0000,  0.0000)
  26 Al     8.703036   10.926617   12.594301    ( 0.0000,  0.0000,  0.0000)
  27 Al     4.835145    0.210909   12.656224    ( 0.0000,  0.0000,  0.0000)
  28 Fe     7.309124    0.034994   12.593358    ( 0.0000,  0.0000,  2.0000)
  29 Cr    10.016119   -0.205685   12.815569    ( 0.0000,  0.0000,  0.0000)
  30 Al    13.589461    2.416903   12.595121    ( 0.0000,  0.0000,  0.0000)
  31 Ni     3.573574    2.274565   12.561381    ( 0.0000,  0.0000,  1.5000)
  32 Ni     6.309424    2.295954   12.786485    ( 0.0000,  0.0000,  1.5000)
  33 Al     8.713415    2.199237   12.609555    ( 0.0000,  0.0000,  0.0000)
  34 Co    11.128426    2.257875   12.950948    ( 0.0000,  0.0000,  2.1000)
  35 Al     2.671528    4.466335   12.398304    ( 0.0000,  0.0000,  0.0000)
  36 Fe     5.124262    4.418964   12.726463    ( 0.0000,  0.0000,  2.0000)
  37 Ni     7.591703    4.360100   12.649729    ( 0.0000,  0.0000,  1.5000)
  38 Co    10.037380    4.438116   12.574886    ( 0.0000,  0.0000,  2.1000)
  39 Cr    12.630493    4.521652   12.550606    ( 0.0000,  0.0000,  0.0000)
  40 Fe     3.959021    6.598311   12.647704    ( 0.0000,  0.0000,  2.0000)
  41 Cr     6.389498    6.641209   12.710332    ( 0.0000,  0.0000,  0.0000)
  42 Fe     8.726848    6.597603   12.554213    ( 0.0000,  0.0000,  2.0000)
  43 Ni    11.340522    6.622460   12.504784    ( 0.0000,  0.0000,  1.5000)
  44 Cr    14.086983    6.682044   12.099945    ( 0.0000,  0.0000,  0.0000)
  45 Fe     5.030649    8.832874   12.490390    ( 0.0000,  0.0000,  2.0000)
  46 Ni     7.561339    8.633553   12.503885    ( 0.0000,  0.0000,  1.5000)
  47 Ni    10.022085    8.639696   12.366677    ( 0.0000,  0.0000,  1.5000)
  48 Ni    12.549727    8.891924   12.191972    ( 0.0000,  0.0000,  1.5000)
  49 Al    15.278889    8.822897   12.565325    ( 0.0000,  0.0000,  0.0000)
  50 Co     1.336359    0.918819   14.626649    ( 0.0000,  0.0000,  2.1000)
  51 Cr     3.955967    0.832072   14.771234    ( 0.0000,  0.0000,  0.0000)
  52 Co     6.426609    0.723061   14.819751    ( 0.0000,  0.0000,  2.1000)
  53 Ni     8.927634    0.837831   14.596486    ( 0.0000,  0.0000,  1.5000)
  54 Ni    11.391743    0.869301   14.886275    ( 0.0000,  0.0000,  1.5000)
  55 Cr     2.704905    3.008942   14.457145    ( 0.0000,  0.0000,  0.0000)
  56 Cr     5.214918    2.952374   14.840009    ( 0.0000,  0.0000,  0.0000)
  57 Co     7.708620    3.135002   14.803229    ( 0.0000,  0.0000,  2.1000)
  58 Co    10.128424    3.015298   14.984888    ( 0.0000,  0.0000,  2.1000)
  59 Cr    12.668446    3.005676   14.895183    ( 0.0000,  0.0000,  0.0000)
  60 Cr     3.882932    5.200578   14.641652    ( 0.0000,  0.0000,  0.0000)
  61 Co     6.213055    5.155422   14.645374    ( 0.0000,  0.0000,  2.1000)
  62 Co     8.941110    5.198710   14.630980    ( 0.0000,  0.0000,  2.1000)
  63 Ni    11.452763    5.216783   14.527635    ( 0.0000,  0.0000,  1.5000)
  64 Al    14.017336    5.187814   14.729641    ( 0.0000,  0.0000,  0.0000)
  65 Cr     5.220138    7.414938   14.594929    ( 0.0000,  0.0000,  0.0000)
  66 Fe     7.589353    7.230272   14.623888    ( 0.0000,  0.0000,  2.0000)
  67 Cr    10.016979    7.287262   14.420752    ( 0.0000,  0.0000,  0.0000)
  68 Al    12.861581    7.469179   14.217602    ( 0.0000,  0.0000,  0.0000)
  69 Fe    15.498113    7.492009   14.757386    ( 0.0000,  0.0000,  2.0000)
  70 Cr     6.298691    9.502651   14.655217    ( 0.0000,  0.0000,  0.0000)
  71 Ni     8.953641    9.456749   14.418226    ( 0.0000,  0.0000,  1.5000)
  72 Co    11.464795    9.582418   14.419170    ( 0.0000,  0.0000,  2.1000)
  73 Co    14.064046    9.660211   14.707797    ( 0.0000,  0.0000,  2.1000)
  74 Cr    16.574197    9.455742   14.778516    ( 0.0000,  0.0000,  0.0000)
  75 Al    12.829763    1.415145   16.628109    ( 0.0000,  0.0000,  0.0000)
  76 Co     2.608198    1.612760   16.795637    ( 0.0000,  0.0000,  2.1000)
  77 Ni     5.155963    1.664676   16.830406    ( 0.0000,  0.0000,  1.5000)
  78 Fe     7.717056    1.455084   16.656046    ( 0.0000,  0.0000,  2.0000)
  79 Fe    10.174523    1.453801   16.879255    ( 0.0000,  0.0000,  2.0000)
  80 Al    13.976409    3.744569   16.980316    ( 0.0000,  0.0000,  0.0000)
  81 Cr     3.793948    3.627343   16.637116    ( 0.0000,  0.0000,  0.0000)
  82 Cr     6.228276    3.701367   16.737801    ( 0.0000,  0.0000,  0.0000)
  83 Co     8.927631    3.536897   16.815911    ( 0.0000,  0.0000,  2.1000)
  84 Fe    11.364378    3.544518   16.947424    ( 0.0000,  0.0000,  2.0000)
  85 Ni    15.339033    5.723976   17.276417    ( 0.0000,  0.0000,  1.5000)
  86 Cr     5.075050    5.746966   16.732873    ( 0.0000,  0.0000,  0.0000)
  87 Fe     7.597043    5.605308   16.696710    ( 0.0000,  0.0000,  2.0000)
  88 Ni    10.235150    5.756878   16.884402    ( 0.0000,  0.0000,  1.5000)
  89 Co    12.820088    5.784805   16.915005    ( 0.0000,  0.0000,  2.1000)
  90 Co    16.673205    8.051422   16.786347    ( 0.0000,  0.0000,  2.1000)
  91 Co     6.460690    8.014125   16.573162    ( 0.0000,  0.0000,  2.1000)
  92 Fe     8.900626    7.914733   16.592555    ( 0.0000,  0.0000,  2.0000)
  93 Al    11.286022    7.970515   16.635674    ( 0.0000,  0.0000,  0.0000)
  94 Ni    13.898559    8.065669   16.839839    ( 0.0000,  0.0000,  1.5000)
  95 Cr    17.817475   10.326376   16.824458    ( 0.0000,  0.0000,  0.0000)
  96 Co     7.905090   10.186235   16.611660    ( 0.0000,  0.0000,  2.1000)
  97 Ni    10.345557   10.402615   16.641829    ( 0.0000,  0.0000,  1.5000)
  98 Al    12.828594   10.165050   16.801694    ( 0.0000,  0.0000,  0.0000)
  99 Al    15.303827   10.221357   16.815943    ( 0.0000,  0.0000,  0.0000)
 100 Cr     6.541912   10.781523   18.658147    ( 0.0000,  0.0000,  0.0000)
 101 Cr     8.939601   10.921762   18.624501    ( 0.0000,  0.0000,  0.0000)
 102 Fe     5.174539    0.076177   18.750292    ( 0.0000,  0.0000,  2.0000)
 103 Cr    13.976087   11.029859   19.100315    ( 0.0000,  0.0000,  0.0000)
 104 Al    16.615483   10.727057   19.530913    ( 0.0000,  0.0000,  0.0000)
 105 Cr     1.330478    1.960910   19.026130    ( 0.0000,  0.0000,  0.0000)
 106 Fe     3.817293    2.093476   18.762866    ( 0.0000,  0.0000,  2.0000)
 107 Ni     6.455416    2.216693   18.709341    ( 0.0000,  0.0000,  1.5000)
 108 Al     8.835150    2.243034   19.510038    ( 0.0000,  0.0000,  0.0000)
 109 Cr    11.490806    1.908644   18.877337    ( 0.0000,  0.0000,  0.0000)
 110 Ni    15.221270    4.407524   19.252417    ( 0.0000,  0.0000,  1.5000)
 111 Al     5.061365    4.320327   18.903027    ( 0.0000,  0.0000,  0.0000)
 112 Fe     7.731533    4.422981   18.857977    ( 0.0000,  0.0000,  2.0000)
 113 Al    10.216583    4.398673   19.056539    ( 0.0000,  0.0000,  0.0000)
 114 Ni    12.819133    4.366244   18.874390    ( 0.0000,  0.0000,  1.5000)
 115 Al    16.605321    6.675232   19.272284    ( 0.0000,  0.0000,  0.0000)
 116 Ni     6.290085    6.662118   18.427357    ( 0.0000,  0.0000,  1.5000)
 117 Al     8.794179    6.651691   18.835318    ( 0.0000,  0.0000,  0.0000)
 118 Fe    11.462215    6.557861   18.782706    ( 0.0000,  0.0000,  2.0000)
 119 Cr    13.711530    6.576344   19.106919    ( 0.0000,  0.0000,  0.0000)
 120 Fe     5.192307    8.732080   18.852294    ( 0.0000,  0.0000,  2.0000)
 121 Ni     7.748076    8.725287   18.624822    ( 0.0000,  0.0000,  1.5000)
 122 Ni    10.218396    8.917019   18.680704    ( 0.0000,  0.0000,  1.5000)
 123 Fe    12.850052    8.795876   18.855529    ( 0.0000,  0.0000,  2.0000)
 124 Fe    15.337821    8.640345   18.884737    ( 0.0000,  0.0000,  2.0000)

Unit cell:
           periodic     x           y           z      points  spacing
  1. axis:    yes   12.688900    0.000000    0.000000    56     0.1962
  2. axis:    yes    6.352870   11.003500    0.000000    56     0.1965
  3. axis:    no     0.000000    0.000000   29.353100   128     0.2293

  Lengths:  12.688900  12.705746  29.353100
  Angles:   90.000000  90.000000  60.000014

Effective grid spacing dv^(1/3) = 0.2169

     iter     time        total  log10-change:  magmom
                         energy  eigst   dens
iter:   1 20:45:06 -1081.887409                  +140.3334
iter:   2 20:47:18  -972.873529  -0.10  -1.11    +75.6727
iter:   3 20:49:31 -1356.452782  -0.23  -1.11    +70.7841
iter:   4 20:51:45 -1124.690061  -0.14  -0.88    +61.4986
iter:   5 20:53:58  -961.242924  -1.01  -0.99    +47.3086
iter:   6 20:56:11  -924.835136  -1.53  -1.19    +43.1146
iter:   7 20:58:24  -915.055670  -1.68  -1.25    +42.9966
iter:   8 21:00:38  -914.337000  -1.41  -1.29    +45.7478
iter:   9 21:02:51  -897.802489  -1.10  -1.32    +45.6966
iter:  10 21:05:04 -1026.944260  -1.02  -1.41    +47.9456
iter:  11 21:07:17  -914.371386  -1.30  -1.12    +46.8740
iter:  12 21:09:31  -894.273584  -1.69  -1.35    +46.0098
iter:  13 21:11:44  -927.520190  -1.44  -1.54    +48.6598
iter:  14 21:13:57  -893.138558  -1.81  -1.34    +46.6162
iter:  15 21:16:11  -888.746792  -2.06  -1.55    +50.8075
iter:  16 21:18:24  -888.313907  -2.14  -1.64    +51.9195
iter:  17 21:20:37  -888.871394  -2.13  -1.70    +53.0275
iter:  18 21:22:50  -891.303521  -2.31  -1.68    +54.8669
iter:  19 21:25:03  -887.149411  -2.15  -1.70    +55.9927
iter:  20 21:27:16  -887.768137  -2.31  -1.88    +57.6993
iter:  21 21:29:30  -886.775241  -2.56  -1.96    +57.6180
iter:  22 21:31:43  -887.870011  -2.83  -2.01    +59.8905
iter:  23 21:33:56  -887.224228  -3.04  -1.96    +60.6468
iter:  24 21:36:09  -889.100164  -2.53  -2.08    +62.5055
iter:  25 21:38:22  -890.548373  -2.68  -1.99    +63.1692
iter:  26 21:40:35  -888.323273  -2.97  -1.89    +63.9689
iter:  27 21:42:48  -889.041478  -2.94  -2.12    +64.1855
iter:  28 21:45:02  -889.000400  -2.81  -2.10    +64.5078
iter:  29 21:47:15  -890.104036  -2.94  -2.16    +65.5807
iter:  30 21:49:28  -888.757922  -2.85  -2.02    +65.7354
iter:  31 21:51:40  -889.703792  -2.80  -2.28    +65.5657
iter:  32 21:53:53  -889.429632  -3.10  -2.12    +65.6900
iter:  33 21:56:06  -888.932680  -3.24  -2.17    +65.4277
iter:  34 21:58:20  -888.918659  -3.54  -2.33    +65.6731
iter:  35 22:00:33  -889.318531  -3.32  -2.38    +65.5308
iter:  36 22:02:46  -889.113525  -3.59  -2.27    +65.4490
iter:  37 22:04:59  -889.300011  -3.46  -2.38    +65.5484
iter:  38 22:07:12  -889.595898  -3.36  -2.34    +65.4079
iter:  39 22:09:26  -889.183565  -3.50  -2.24    +65.3281
iter:  40 22:11:39  -889.210430  -3.76  -2.44    +64.9664
iter:  41 22:13:52  -889.320467  -3.80  -2.46    +65.1133
iter:  42 22:16:05  -889.232312  -3.97  -2.44    +64.9921
iter:  43 22:18:19  -889.265871c -4.31  -2.49    +64.8511
iter:  44 22:20:32  -889.790156  -3.51  -2.52    +64.7523
iter:  45 22:22:45  -889.384646  -3.60  -2.30    +64.6711
iter:  46 22:24:58  -889.463229  -3.45  -2.53    +64.6784
iter:  47 22:27:12  -889.461070c -3.55  -2.54    +64.4802
iter:  48 22:29:25  -889.704175  -3.50  -2.59    +64.3890
iter:  49 22:31:39  -889.521067  -3.68  -2.45    +64.5174
iter:  50 22:33:52  -889.492687  -3.76  -2.55    +64.1934
iter:  51 22:36:05  -889.416684c -4.38  -2.59    +64.1989
iter:  52 22:38:19  -889.445099c -4.47  -2.79    +64.0047
iter:  53 22:40:33  -889.500853c -4.02  -2.80    +63.7848
iter:  54 22:42:46  -889.600532  -3.69  -2.79    +63.5683
iter:  55 22:44:59  -889.584659c -4.30  -2.71    +63.7228
iter:  56 22:47:13  -889.704032  -3.84  -2.69    +63.6462
iter:  57 22:49:26  -889.630277  -4.57  -2.56    +63.6368
iter:  58 22:51:39  -889.667936c -4.53  -2.65    +63.7360
iter:  59 22:53:53  -889.709724c -3.87  -2.62    +63.6789
iter:  60 22:56:06  -889.637169c -3.91  -2.57    +63.5793
iter:  61 22:58:19  -889.920973  -3.51  -2.71    +63.4106
iter:  62 23:00:33  -889.624936  -3.87  -2.42    +63.4926
iter:  63 23:02:46  -889.671387  -4.16  -2.77    +63.4774
iter:  64 23:05:00  -889.635391c -4.14  -2.68    +63.4073
iter:  65 23:07:13  -889.613126c -4.37  -2.74    +63.1683
iter:  66 23:09:25  -889.616420c -4.60  -2.85    +63.2555
iter:  67 23:11:38  -889.670064c -4.32  -2.88    +63.2143
iter:  68 23:13:51  -889.622751c -4.39  -2.72    +63.1900
iter:  69 23:16:05  -889.641789c -4.66  -2.85    +63.1124
iter:  70 23:18:18  -889.636162c -4.39  -2.82    +63.1317
iter:  71 23:20:31  -889.622756c -4.45  -2.87    +63.1534
iter:  72 23:22:44  -889.624107c -4.48  -2.92    +62.9978
iter:  73 23:25:00  -889.668678c -4.39  -2.93    +62.9688
iter:  74 23:27:17  -889.668410c -4.15  -2.77    +62.9908
iter:  75 23:29:34  -889.646582c -4.68  -2.77    +63.0432
iter:  76 23:31:50  -889.615037c -4.54  -2.86    +62.8959
iter:  77 23:34:07  -889.616000c -4.84  -3.05    +62.9190
iter:  78 23:36:23  -889.617342c -5.12  -3.09    +63.0025
iter:  79 23:38:39  -889.628184c -5.15  -3.10    +63.0297
iter:  80 23:40:56  -889.663713c -4.35  -3.01    +63.0239
iter:  81 23:43:12  -889.627469c -4.73  -2.79    +63.0066
iter:  82 23:45:29  -889.620858c -4.66  -3.01    +63.2047
iter:  83 23:47:46  -889.614899c -4.88  -3.15    +63.1719
iter:  84 23:50:02  -889.612716c -5.08  -3.21    +63.1083
iter:  85 23:52:19  -889.613067c -5.60  -3.25    +63.0807
iter:  86 23:54:35  -889.617066c -5.22  -3.26    +63.0936
iter:  87 23:56:52  -889.613102c -5.65  -3.20    +63.1020
iter:  88 23:59:08  -889.611731c -5.47  -3.31    +63.0513
iter:  89 00:01:25  -889.613728c -5.44  -3.32    +63.0630
iter:  90 00:03:42  -889.614863c -5.20  -3.36    +63.1007
iter:  91 00:05:59  -889.616278c -5.26  -3.34    +63.1174
iter:  92 00:08:15  -889.618189c -5.13  -3.27    +63.0924
iter:  93 00:10:32  -889.612728c -5.37  -3.19    +63.0674
iter:  94 00:12:49  -889.612887c -5.52  -3.38    +63.1149
iter:  95 00:15:05  -889.612046c -6.21  -3.45    +63.1154
iter:  96 00:17:22  -889.612306c -5.99  -3.49    +63.0872
iter:  97 00:19:38  -889.612705c -5.61  -3.52    +63.0880
iter:  98 00:21:55  -889.618793c -5.49  -3.49    +63.0980
iter:  99 00:24:11  -889.613908c -5.46  -3.28    +63.1214
iter: 100 00:26:28  -889.618918c -5.11  -3.53    +63.0904
iter: 101 00:28:45  -889.613551c -5.45  -3.18    +63.0873
iter: 102 00:31:02  -889.612030c -5.73  -3.53    +63.1495
iter: 103 00:33:18  -889.611450c -5.88  -3.73    +63.1541
iter: 104 00:35:35  -889.611317c -6.71  -3.77    +63.1459
iter: 105 00:37:51  -889.611558c -6.38  -3.83    +63.1324
iter: 106 00:40:08  -889.615005c -5.88  -3.87    +63.1336
iter: 107 00:42:25  -889.611456c -6.14  -3.49    +63.1358
iter: 108 00:44:41  -889.611846c -6.62  -4.01c   +63.1267
iter: 109 00:46:58  -889.612275c -6.11  -4.06c   +63.1244
iter: 110 00:49:14  -889.611804c -6.44  -3.85    +63.1296
iter: 111 00:51:31  -889.611650c -6.91  -4.09c   +63.1337
iter: 112 00:53:47  -889.611457c -6.87  -4.29c   +63.1270
iter: 113 00:56:04  -889.611745c -7.09  -4.04c   +63.1280
iter: 114 00:58:21  -889.611693c -7.95c -4.34c   +63.1285

Converged after 114 iterations.

Dipole moment: (59.295009, 63.742186, 0.111511) |e|*Ang

Total magnetic moment: (0.000000, 0.000000, 63.128506)
Local magnetic moments:
   0 Co ( 0.000000,  0.000000,  1.358754)
   1 Fe ( 0.000000,  0.000000,  2.427994)
   2 Co ( 0.000000,  0.000000,  1.077033)
   3 Fe ( 0.000000,  0.000000,  2.324911)
   4 Co ( 0.000000,  0.000000,  1.437640)
   5 Fe ( 0.000000,  0.000000,  2.467051)
   6 Co ( 0.000000,  0.000000,  1.433361)
   7 Al ( 0.000000,  0.000000, -0.071763)
   8 Co ( 0.000000,  0.000000,  1.455372)
   9 Co ( 0.000000,  0.000000,  1.613216)
  10 Fe ( 0.000000,  0.000000,  2.360672)
  11 Fe ( 0.000000,  0.000000,  2.395060)
  12 Co ( 0.000000,  0.000000,  1.441305)
  13 Co ( 0.000000,  0.000000,  1.545855)
  14 Al ( 0.000000,  0.000000, -0.034884)
  15 Fe ( 0.000000,  0.000000,  2.380994)
  16 Al ( 0.000000,  0.000000, -0.042800)
  17 Co ( 0.000000,  0.000000,  1.165813)
  18 Cr ( 0.000000,  0.000000, -2.704255)
  19 Ni ( 0.000000,  0.000000, -0.006600)
  20 Ni ( 0.000000,  0.000000,  0.360161)
  21 Ni ( 0.000000,  0.000000,  0.294288)
  22 Cr ( 0.000000,  0.000000, -2.509295)
  23 Al ( 0.000000,  0.000000, -0.001117)
  24 Al ( 0.000000,  0.000000, -0.044570)
  25 Al ( 0.000000,  0.000000, -0.015665)
  26 Al ( 0.000000,  0.000000, -0.005090)
  27 Al ( 0.000000,  0.000000, -0.012015)
  28 Fe ( 0.000000,  0.000000,  2.386665)
  29 Cr ( 0.000000,  0.000000,  1.195910)
  30 Al ( 0.000000,  0.000000, -0.027890)
  31 Ni ( 0.000000,  0.000000,  0.332150)
  32 Ni ( 0.000000,  0.000000,  0.346520)
  33 Al ( 0.000000,  0.000000, -0.053916)
  34 Co ( 0.000000,  0.000000,  1.164077)
  35 Al ( 0.000000,  0.000000, -0.031716)
  36 Fe ( 0.000000,  0.000000,  2.037095)
  37 Ni ( 0.000000,  0.000000,  0.463624)
  38 Co ( 0.000000,  0.000000,  1.533114)
  39 Cr ( 0.000000,  0.000000,  1.611304)
  40 Fe ( 0.000000,  0.000000,  1.525516)
  41 Cr ( 0.000000,  0.000000, -0.815192)
  42 Fe ( 0.000000,  0.000000,  2.037949)
  43 Ni ( 0.000000,  0.000000,  0.106132)
  44 Cr ( 0.000000,  0.000000, -2.072089)
  45 Fe ( 0.000000,  0.000000,  1.497274)
  46 Ni ( 0.000000,  0.000000,  0.255311)
  47 Ni ( 0.000000,  0.000000,  0.105450)
  48 Ni ( 0.000000,  0.000000,  0.101133)
  49 Al ( 0.000000,  0.000000, -0.030496)
  50 Co ( 0.000000,  0.000000, -0.301430)
  51 Cr ( 0.000000,  0.000000,  0.903528)
  52 Co ( 0.000000,  0.000000,  1.225632)
  53 Ni ( 0.000000,  0.000000,  0.310326)
  54 Ni ( 0.000000,  0.000000,  0.117049)
  55 Cr ( 0.000000,  0.000000,  0.407338)
  56 Cr ( 0.000000,  0.000000, -0.139092)
  57 Co ( 0.000000,  0.000000,  1.417525)
  58 Co ( 0.000000,  0.000000,  1.389398)
  59 Cr ( 0.000000,  0.000000, -1.770584)
  60 Cr ( 0.000000,  0.000000, -0.822551)
  61 Co ( 0.000000,  0.000000,  0.414809)
  62 Co ( 0.000000,  0.000000,  1.513649)
  63 Ni ( 0.000000,  0.000000,  0.170253)
  64 Al ( 0.000000,  0.000000,  0.005173)
  65 Cr ( 0.000000,  0.000000, -0.558850)
  66 Fe ( 0.000000,  0.000000,  1.576188)
  67 Cr ( 0.000000,  0.000000, -1.766215)
  68 Al ( 0.000000,  0.000000, -0.014376)
  69 Fe ( 0.000000,  0.000000,  1.619795)
  70 Cr ( 0.000000,  0.000000,  0.843998)
  71 Ni ( 0.000000,  0.000000,  0.234988)
  72 Co ( 0.000000,  0.000000,  0.923100)
  73 Co ( 0.000000,  0.000000,  1.157564)
  74 Cr ( 0.000000,  0.000000, -0.197646)
  75 Al ( 0.000000,  0.000000, -0.003367)
  76 Co ( 0.000000,  0.000000,  0.167006)
  77 Ni ( 0.000000,  0.000000,  0.217207)
  78 Fe ( 0.000000,  0.000000,  2.330562)
  79 Fe ( 0.000000,  0.000000,  1.951060)
  80 Al ( 0.000000,  0.000000, -0.009449)
  81 Cr ( 0.000000,  0.000000, -0.559285)
  82 Cr ( 0.000000,  0.000000, -0.230629)
  83 Co ( 0.000000,  0.000000,  1.436193)
  84 Fe ( 0.000000,  0.000000,  1.946940)
  85 Ni ( 0.000000,  0.000000,  0.143771)
  86 Cr ( 0.000000,  0.000000,  0.604259)
  87 Fe ( 0.000000,  0.000000,  2.206938)
  88 Ni ( 0.000000,  0.000000,  0.368858)
  89 Co ( 0.000000,  0.000000,  1.085743)
  90 Co ( 0.000000,  0.000000,  1.085576)
  91 Co ( 0.000000,  0.000000,  1.000890)
  92 Fe ( 0.000000,  0.000000,  2.362013)
  93 Al ( 0.000000,  0.000000, -0.026957)
  94 Ni ( 0.000000,  0.000000,  0.373760)
  95 Cr ( 0.000000,  0.000000, -1.627339)
  96 Co ( 0.000000,  0.000000,  1.140765)
  97 Ni ( 0.000000,  0.000000,  0.231476)
  98 Al ( 0.000000,  0.000000, -0.035722)
  99 Al ( 0.000000,  0.000000, -0.008489)
 100 Cr ( 0.000000,  0.000000,  1.580426)
 101 Cr ( 0.000000,  0.000000, -1.862151)
 102 Fe ( 0.000000,  0.000000,  2.469886)
 103 Cr ( 0.000000,  0.000000, -2.912717)
 104 Al ( 0.000000,  0.000000, -0.026168)
 105 Cr ( 0.000000,  0.000000, -2.460566)
 106 Fe ( 0.000000,  0.000000,  2.289725)
 107 Ni ( 0.000000,  0.000000,  0.234715)
 108 Al ( 0.000000,  0.000000, -0.002084)
 109 Cr ( 0.000000,  0.000000, -2.565622)
 110 Ni ( 0.000000,  0.000000,  0.201717)
 111 Al ( 0.000000,  0.000000, -0.020590)
 112 Fe ( 0.000000,  0.000000,  2.392286)
 113 Al ( 0.000000,  0.000000, -0.023629)
 114 Ni ( 0.000000,  0.000000,  0.189368)
 115 Al ( 0.000000,  0.000000, -0.028547)
 116 Ni ( 0.000000,  0.000000,  0.254834)
 117 Al ( 0.000000,  0.000000, -0.042350)
 118 Fe ( 0.000000,  0.000000,  2.341379)
 119 Cr ( 0.000000,  0.000000, -2.545713)
 120 Fe ( 0.000000,  0.000000,  2.219486)
 121 Ni ( 0.000000,  0.000000,  0.298627)
 122 Ni ( 0.000000,  0.000000,  0.300966)
 123 Fe ( 0.000000,  0.000000,  2.468511)
 124 Fe ( 0.000000,  0.000000,  2.247188)

Energy contributions relative to reference atoms: (reference = -3726899.091688)

Kinetic:       +425.317592
Potential:     -394.337238
External:        +0.000000
XC:            -953.926095
Entropy (-ST):   -4.729475
Local:          +35.698786
--------------------------
Free energy:   -891.976430
Extrapolated:  -889.611693

Dipole-layer corrected work functions: 4.828940, 4.684421 eV

Spin contamination: 36.148382 electrons
Showing all kpts
                      Up                     Down
 Kpt  Band  Eigenvalues  Occupancy  Eigenvalues  Occupancy
  0   523     -0.04790    0.99598      0.83508    0.03497
  0   524     -0.03999    0.99565      0.84713    0.03112
  0   525     -0.02111    0.99475      0.85640    0.02845
  0   526      0.00361    0.99329      0.86740    0.02556

  1   523     -0.05804    0.99637      0.82823    0.03736
  1   524     -0.04908    0.99603      0.83580    0.03473
  1   525     -0.03259    0.99532      0.84882    0.03062
  1   526     -0.01824    0.99460      0.86909    0.02514


Fermi level: 0.50331

No gap

Forces in eV/Ang:
  0 Co   -1.01609    0.01701    0.13552
  1 Fe    0.44013   -0.16006   -1.05173
  2 Co   -0.16360    0.60153    0.65288
  3 Fe    0.37397   -1.03698   -0.28703
  4 Co    0.27517    0.12282   -0.35431
  5 Fe   -0.15992   -0.83975    0.01566
  6 Co    0.57389   -0.11971    0.21281
  7 Al   -0.54728    0.76239    0.02324
  8 Co    0.81053    0.44462   -0.13220
  9 Co    0.24020   -0.29601    0.69024
 10 Fe   -0.61451    0.70376   -0.47837
 11 Fe   -0.73502    0.10372    0.17649
 12 Co   -0.21259   -0.55754   -0.30729
 13 Co    0.42227    0.18378   -0.23413
 14 Al   -0.67002   -0.16766   -2.02125
 15 Fe    0.56310    0.14638   -0.34532
 16 Al    0.65399    0.13642   -1.29391
 17 Co   -0.16581   -0.72314   -0.35346
 18 Cr   -0.15852   -1.43799    0.19662
 19 Ni   -0.60930    0.36614    0.90791
 20 Ni   -0.90255    0.21194    0.05108
 21 Ni    0.61736   -0.44419    0.90833
 22 Cr   -0.29659    0.44639   -0.97396
 23 Al    0.60318    0.50345    0.12448
 24 Al    0.50221   -0.21614    0.39341
 25 Al    1.43138    0.78865   -1.45189
 26 Al   -0.81622    0.15887    0.27798
 27 Al    1.65895   -0.71671   -1.18375
 28 Fe    1.08407   -0.69924   -0.05524
 29 Cr   -0.48404    2.08147   -0.72303
 30 Al    1.12812   -1.49471    0.25315
 31 Ni    1.22171   -0.83610   -0.55699
 32 Ni   -0.45808   -0.53292   -0.48576
 33 Al    0.16713    0.14657    0.86016
 34 Co    0.51697    0.22824   -1.37204
 35 Al   -0.47023    0.34150    0.10291
 36 Fe   -0.19146   -0.37690   -1.06815
 37 Ni   -0.34674    0.85268   -0.11168
 38 Co    0.38822   -0.04623    0.14285
 39 Cr   -0.69980    1.03468    0.48103
 40 Fe   -0.83655    0.45442   -0.15280
 41 Cr   -0.86706   -1.27857   -0.25334
 42 Fe    1.09260   -0.47417   -0.33265
 43 Ni    0.35108   -0.09238   -0.64779
 44 Cr    0.35588   -0.30694    0.50836
 45 Fe    0.22196   -0.57060    0.80088
 46 Ni   -0.20561    1.67396    0.24207
 47 Ni    0.54931    1.43523    0.48967
 48 Ni    0.49620   -0.14051    0.14913
 49 Al   -2.16265   -0.96638    0.32868
 50 Co    0.01817   -0.58237   -0.35110
 51 Cr   -1.46196    0.33748    1.15552
 52 Co   -0.12635    0.58121   -0.84563
 53 Ni   -0.17669    0.02732    0.66878
 54 Ni   -0.24833   -0.57026   -0.58673
 55 Cr   -0.73993    0.20687    2.41668
 56 Cr   -0.13915   -0.15322   -0.88554
 57 Co   -0.61572   -0.67098   -0.17616
 58 Co    0.69098    0.27512   -1.18111
 59 Cr   -0.39599    0.78417   -1.52107
 60 Cr   -0.26234    0.29125    0.32153
 61 Co    1.22024    0.13049    0.30828
 62 Co   -0.10514   -0.52618    0.58021
 63 Ni   -0.14444   -0.02280    1.15958
 64 Al    0.23317    0.60306    0.15716
 65 Cr   -0.46880   -0.14599    0.32866
 66 Fe    0.52916    0.47352    0.38165
 67 Cr    0.49235    0.34749    0.72792
 68 Al   -0.37614    0.50733    1.07985
 69 Fe   -1.52155   -1.23885    0.00849
 70 Cr    0.43765   -0.26759    0.86416
 71 Ni   -0.13338    0.46676    1.51857
 72 Co    0.02070   -0.26172    0.58540
 73 Co    0.16764   -0.34873   -0.57779
 74 Cr    0.37106    1.04583   -0.48118
 75 Al    0.69145   -0.97113    1.61851
 76 Co   -0.10193   -0.74399   -0.48572
 77 Ni   -0.44057   -2.12989   -0.36577
 78 Fe   -0.37502    0.40641    1.11599
 79 Fe   -0.18290   -0.45824    0.68831
 80 Al    0.69428   -0.62739    0.13882
 81 Cr    0.18894    0.32163    0.23612
 82 Cr    1.12293    0.18406   -0.08530
 83 Co   -0.72867    0.90971    1.26493
 84 Fe    0.71630    0.44895   -0.50160
 85 Ni    0.17912    1.15493   -1.15521
 86 Cr   -0.46183    0.65993   -0.91921
 87 Fe    1.02181    0.68646   -0.46131
 88 Ni   -0.34111   -0.23067   -0.87710
 89 Co   -1.07648    0.69265   -0.63669
 90 Co   -0.34654   -0.38998    0.63029
 91 Co    0.16774    0.87833    0.23605
 92 Fe   -0.65734    0.68416   -0.21478
 93 Al    1.25520    0.10357   -0.19824
 94 Ni    0.69626   -0.92568   -0.52337
 95 Cr    0.52477   -1.10513    0.31895
 96 Co   -0.65704    0.06122   -0.47006
 97 Ni   -0.10803   -0.62216   -0.25251
 98 Al   -1.52397    0.87131   -0.85060
 99 Al    0.27695   -0.11452    0.34061
100 Cr   -0.76571    0.60559    0.47031
101 Cr    0.77693   -0.22382   -0.15646
102 Fe   -0.33829   -0.39494    0.37145
103 Cr   -0.05169   -0.65200   -0.45066
104 Al   -0.06032    0.18100   -0.30244
105 Cr    0.32847    1.17102    0.20758
106 Fe   -0.16163    0.35574    0.49101
107 Ni    0.22809    0.43772    0.77453
108 Al    0.04057   -0.08248   -0.58045
109 Cr   -0.18448    0.61885   -0.19992
110 Ni    0.43551   -0.46000   -0.42652
111 Al   -0.02862   -0.01570    0.91254
112 Fe   -0.79722   -0.33426   -0.62407
113 Al    0.53827   -0.20062    0.19131
114 Ni   -1.09122   -0.80504    0.82007
115 Al   -0.18619   -0.90949   -0.10521
116 Ni    0.09883   -0.78168    2.19238
117 Al    0.43126    0.20303    0.22595
118 Fe   -0.15433    0.49295    0.16208
119 Cr    1.10447    0.21426   -0.28691
120 Fe    0.26377    0.02813   -0.56748
121 Ni   -0.54410    0.17573   -0.09531
122 Ni    0.55131   -0.88296   -0.08744
123 Fe   -0.90845    0.13288    0.36406
124 Fe   -0.27793    0.67144   -0.43709

Timing:                              incl.     excl.
-----------------------------------------------------------
Forces:                             41.574    41.574   0.3% |
Hamiltonian:                         2.148     0.010   0.0% |
 Atomic:                             0.408     0.001   0.0% |
  XC Correction:                     0.407     0.407   0.0% |
 Calculate atomic Hamiltonians:      1.088     1.088   0.0% |
 Communicate:                        0.192     0.192   0.0% |
 Initialize Hamiltonian:             0.000     0.000   0.0% |
 Poisson:                            0.099     0.099   0.0% |
 XC 3D grid:                         0.350     0.350   0.0% |
LCAO initialization:               244.582     0.567   0.0% |
 LCAO eigensolver:                  12.477     0.011   0.0% |
  Calculate projections:             0.000     0.000   0.0% |
  DenseAtomicCorrection:             0.000     0.000   0.0% |
  Distribute overlap matrix:         8.340     8.340   0.1% |
  Orbital Layouts:                   4.093     4.093   0.0% |
  Potential matrix:                  0.003     0.003   0.0% |
  Sum over cells:                    0.028     0.028   0.0% |
 LCAO to grid:                     229.420   229.420   1.5% ||
 Set positions (LCAO WFS):           2.119     1.840   0.0% |
  Basic WFS set positions:           0.004     0.004   0.0% |
  Basis functions set positions:     0.001     0.001   0.0% |
  P tci:                             0.000     0.000   0.0% |
  ST tci:                            0.105     0.105   0.0% |
  mktci:                             0.170     0.170   0.0% |
PWDescriptor:                        0.096     0.096   0.0% |
SCF-cycle:                       15341.273     1.133   0.0% |
 Davidson:                       14795.748  5235.362  33.5% |------------|
  Apply H:                         288.720   283.886   1.8% ||
   HMM T:                            4.834     4.834   0.0% |
  Subspace diag:                  1613.941     0.040   0.0% |
   calc_h_matrix:                  680.406   415.691   2.7% ||
    Apply H:                       264.715   260.005   1.7% ||
     HMM T:                          4.710     4.710   0.0% |
   diagonalize:                    128.364   128.364   0.8% |
   rotate_psi:                     805.130   805.130   5.1% |-|
  calc. matrices:                 3743.581  3268.784  20.9% |-------|
   Apply H:                        474.796   465.509   3.0% ||
    HMM T:                           9.287     9.287   0.1% |
  diagonalize:                    2225.969  2225.969  14.2% |-----|
  rotate_psi:                     1688.176  1688.176  10.8% |---|
 Density:                          291.572     0.004   0.0% |
  Atomic density matrices:           2.685     2.685   0.0% |
  Mix:                             145.837   145.837   0.9% |
  Multipole moments:                 0.081     0.081   0.0% |
  Pseudo density:                  142.966   142.962   0.9% |
   Symmetrize density:               0.005     0.005   0.0% |
 Hamiltonian:                      235.631     1.312   0.0% |
  Atomic:                           46.275     0.146   0.0% |
   XC Correction:                   46.129    46.129   0.3% |
  Calculate atomic Hamiltonians:   126.564   126.564   0.8% |
  Communicate:                      15.390    15.390   0.1% |
  Poisson:                           4.712     4.712   0.0% |
  XC 3D grid:                       41.379    41.379   0.3% |
 Orthonormalize:                    17.188     0.001   0.0% |
  calc_s_matrix:                     1.990     1.990   0.0% |
  inverse-cholesky:                  0.695     0.695   0.0% |
  projections:                      11.081    11.081   0.1% |
  rotate_psi_s:                      3.422     3.422   0.0% |
Set symmetry:                        0.001     0.001   0.0% |
Other:                               8.300     8.300   0.1% |
-----------------------------------------------------------
Total:                                     15637.974 100.0%

Date: Tue Apr 18 00:59:07 2023
