
  ___ ___ ___ _ _ _  
 |   |   |_  | | | | 
 | | | | | . | | | | 
 |__ |  _|___|_____|  22.8.0
 |___|_|             

User:   c.zeng@d0050
Date:   Thu Apr 20 01:03:11 2023
Arch:   x86_64
Pid:    194198
CWD:    /home/c.zeng/projects/hea-corrosion/hea-mlp/data-curation/surface-mcmc/dft-jobs/32
Python: 3.8.1
gpaw:   /home/c.zeng/usr/installs/gpaw/source/gpaw-22.8.0/gpaw
_gpaw:  /home/c.zeng/usr/installs/gpaw/source/gpaw-22.8.0/
        _gpaw.cpython-38-x86_64-linux-gnu.so
ase:    /home/c.zeng/.local/lib/python3.8/site-packages/ase-3.22.1-py3.8.egg/ase (version 3.22.1)
numpy:  /home/c.zeng/.local/lib/python3.8/site-packages/numpy (version 1.24.2)
scipy:  /home/c.zeng/.local/lib/python3.8/site-packages/scipy (version 1.10.1)
libxc:  4.2.3
units:  Angstrom and eV
cores: 30
OpenMP: False
OMP_NUM_THREADS: 1

Input parameters:
  convergence: {energy: 0.0001}
  kpts: [2 2 1]
  maxiter: 666
  mode: {ecut: 350.0,
         name: pw}
  occupations: {fixmagmom: False,
                name: fermi-dirac,
                width: 0.1}
  poissonsolver: {dipolelayer: xy}
  spinpol: True
  symmetry: {point_group: False}
  xc: PBE

System changes: positions, numbers, cell, pbc, initial_charges, initial_magmoms 

Initialize ...

species:
  Cr:
    name: Chromium
    id: 33f258bda2ca9f93018e70263a35547b
    Z: 24.0
    valence: 6
    core: 18
    charge: 0.0
    file: /home/c.zeng/usr/data/gpaw-setups-0.9.20000/Cr.PBE.gz
    compensation charges: {type: gauss,
                           rc: 0.35,
                           lmax: 2}
    cutoffs: {filter: 2.14,
              core: 3.04}
    valence states:
      #              energy  rcut
      - 4s(1.00)    -4.007   1.164
      - 4p(0.00)    -0.989   1.217
      - 3d(5.00)    -2.913   1.111
      -  s          23.205   1.164
      -  p          26.223   1.217
      -  d          24.299   1.111
  
    # Using partial waves for Cr as LCAO basis

  Fe:
    name: Iron
    id: 37abbd8d6c3c35915a9b583b742da910
    Z: 26.0
    valence: 8
    core: 18
    charge: 0.0
    file: /home/c.zeng/usr/data/gpaw-setups-0.9.20000/Fe.PBE.gz
    compensation charges: {type: gauss,
                           rc: 0.33,
                           lmax: 2}
    cutoffs: {filter: 2.06,
              core: 2.67}
    valence states:
      #              energy  rcut
      - 4s(2.00)    -5.291   1.164
      - 4p(0.00)    -1.326   1.058
      - 3d(6.00)    -7.505   1.058
      -  s          21.920   1.164
      -  p          25.885   1.058
      -  d          19.706   1.058
  
    # Using partial waves for Fe as LCAO basis

  Co:
    name: Cobalt
    id: 339d20d5b0b93d2de9531a1bee871d91
    Z: 27.0
    valence: 9
    core: 18
    charge: 0.0
    file: /home/c.zeng/usr/data/gpaw-setups-0.9.20000/Co.PBE.gz
    compensation charges: {type: gauss,
                           rc: 0.32,
                           lmax: 2}
    cutoffs: {filter: 1.87,
              core: 2.55}
    valence states:
      #              energy  rcut
      - 4s(2.00)    -5.469   1.005
      - 4p(0.00)    -1.277   1.058
      - 3d(7.00)    -8.205   1.005
      -  s          21.742   1.005
      -  p          25.934   1.058
      -  d          19.007   1.005
  
    # Using partial waves for Co as LCAO basis

  Ni:
    name: Nickel
    id: 0d9f38a9d6e76a2886f07bb4381f212b
    Z: 28.0
    valence: 16
    core: 12
    charge: 0.0
    file: /home/c.zeng/usr/data/gpaw-setups-0.9.20000/Ni.PBE.gz
    compensation charges: {type: gauss,
                           rc: 0.36,
                           lmax: 2}
    cutoffs: {filter: 2.14,
              core: 1.98}
    valence states:
      #              energy  rcut
      - 4s(2.00)    -5.642   1.164
      - 3p(6.00)   -71.394   1.207
      - 4p(0.00)    -1.226   1.207
      - 3d(8.00)    -8.875   1.138
      -  s          21.570   1.164
      -  d          18.337   1.138
  
    # Using partial waves for Ni as LCAO basis

Reference energy: -4451268.207082  # eV

Spin-polarized calculation.
Magnetic moment: 175.600000

Convergence criteria:
 Maximum [total energy] change in last 3 cyles: 0.0001 eV / electron
 Maximum integral of absolute [dens]ity change: 0.0001 electrons / valence electron
 Maximum integral of absolute [eigenst]ate change: 4e-08 eV^2 / valence electron
 Maximum number of scf [iter]ations: 666
 (Square brackets indicate name in SCF output, whereas a 'c' in
 the SCF output indicates the quantity has converged.)

Symmetries present (total): 1

  ( 1  0  0)
  ( 0  1  0)
  ( 0  0  1)

4 k-points: 2 x 2 x 1 Monkhorst-Pack grid
2 k-points in the irreducible part of the Brillouin zone
       k-points in crystal coordinates                weights
   0:     0.25000000   -0.25000000    0.00000000          2/4
   1:     0.25000000    0.25000000    0.00000000          2/4

Wave functions: Plane wave expansion
  Cutoff energy: 350.000 eV
  Number of coefficients (min, max): 58495, 58567
  Pulay-stress correction: 0.000000 eV/Ang^3 (de/decut=0.000000)
  Using FFTW library
  ScaLapack parameters: grid=1x1, blocksize=None
  Wavefunction extrapolation:
    Improved wavefunction reuse through dual PAW basis 

Occupation numbers: Fermi-Dirac:
  width: 0.1000  # eV
 

Eigensolver
   Davidson(niter=2) 

Densities:
  Coarse grid: 54*54*128 grid
  Fine grid: 108*108*256 grid
  Total Charge: 0.000000 

Density mixing:
  Method: difference
  Backend: pulay
  Linear mixing parameter: 0.05
  old densities: 5
  Damping of long wavelength oscillations: 50 

Hamiltonian:
  XC and Coulomb potentials evaluated on a 108*108*256 grid
  Using the PBE Exchange-Correlation functional
  External potential:
    NoExternalPotential
 

XC parameters: PBE with 2 nearest neighbor stencil

Memory estimate:
  Process memory now: 360.00 MiB
  Calculator: 2405.48 MiB
    Density: 16.73 MiB
      Arrays: 6.75 MiB
      Localized functions: 7.29 MiB
      Mixer: 2.70 MiB
    Hamiltonian: 5.22 MiB
      Arrays: 5.01 MiB
      XC: 0.00 MiB
      Poisson: 0.00 MiB
      vbar: 0.21 MiB
    Wavefunctions: 2383.52 MiB
      Arrays psit_nG: 1501.35 MiB
      Eigensolver: 862.84 MiB
      Projections: 3.85 MiB
      Projectors: 0.98 MiB
      PW-descriptor: 14.51 MiB

Total number of cores used: 30
Parallelization over k-points: 2
Domain decomposition: 1 x 3 x 5

Number of atoms: 125
Number of atomic orbitals: 1218
Number of bands in calculation: 840
Number of valence electrons: 1217
Bands to converge: occupied

... initialized

Initializing position-dependent things.

Density initialized from atomic densities
Creating initial wave functions:
  840 bands from LCAO basis set

                                                                  
                                                                  
                                                                  
                                                                  
                                   Fe    Co           Ni          
                         Ni    Ni    Co    Co    Cr               
                    Co    Cr     Cr    Ni    Co                   
                                Co    Ni    Ni    Cr    Fe        
                Cr    Ni   NCr   FCo    NFe   Fe    Fe            
            Co    Ni   FCo   NCo   FNi   Fe     Ni                
       Ni                 CoCr    Cr     Cr    Co    Fe           
                   Fe   FCo   FFe   CNi   CFe   Cr    Cr          
              Ni   CFe    CNi   FFe   CFe   Ni                    
                               Ni    Ni    Cr    Fe    Cr         
               Cr   CFe   FCr   NFNi  CFNi  CFe   Co    Cr        
           Cr   CNi   FCo  CNCr   NFe   CCo         Co            
            Fe    Fe          Co    Cr        Ni                  
                       CNi   Co    Cr    Ni     Cr                
             Co    Cr    CFe   Co    FCo   Ni                     
              Fe    Co    Cr     Ni    Cr                         
                                                                  
                                                                  
                                                                  
                                                                  
                                                                  

Positions:
   0 Cr    12.462288    1.423821   10.629080    ( 0.0000,  0.0000,  0.0000)
   1 Fe     2.499576    1.440301   10.626527    ( 0.0000,  0.0000,  2.0000)
   2 Co     4.968611    1.438835   10.615079    ( 0.0000,  0.0000,  1.5000)
   3 Cr     7.462726    1.421460   10.639178    ( 0.0000,  0.0000,  2.1000)
   4 Ni     9.958813    1.440808   10.614286    ( 0.0000,  0.0000,  1.5000)
   5 Ni    13.701699    3.595687   10.631928    ( 0.0000,  0.0000,  0.0000)
   6 Co     3.731720    3.588498   10.658463    ( 0.0000,  0.0000,  2.0000)
   7 Cr     6.206181    3.578862   10.616048    ( 0.0000,  0.0000,  0.0000)
   8 Co     8.708678    3.588487   10.610441    ( 0.0000,  0.0000,  0.0000)
   9 Fe    11.213254    3.596560   10.610265    ( 0.0000,  0.0000,  0.0000)
  10 Cr    14.928341    5.748260   10.633307    ( 0.0000,  0.0000,  1.5000)
  11 Co     4.975718    5.742741   10.620568    ( 0.0000,  0.0000,  0.0000)
  12 Co     7.478433    5.755029   10.612261    ( 0.0000,  0.0000,  0.0000)
  13 Cr     9.958968    5.766540   10.606596    ( 0.0000,  0.0000,  0.0000)
  14 Ni    12.428955    5.759114   10.623679    ( 0.0000,  0.0000,  2.0000)
  15 Co    16.172575    7.907763   10.614962    ( 0.0000,  0.0000,  0.0000)
  16 Co     6.230875    7.897556   10.631399    ( 0.0000,  0.0000,  1.5000)
  17 Co     8.712063    7.918800   10.624912    ( 0.0000,  0.0000,  1.5000)
  18 Cr    11.196407    7.900649   10.627583    ( 0.0000,  0.0000,  2.0000)
  19 Ni    13.685743    7.894915   10.608768    ( 0.0000,  0.0000,  0.0000)
  20 Cr    17.413095   10.061737   10.609531    ( 0.0000,  0.0000,  0.0000)
  21 Ni     7.473454   10.060875   10.626761    ( 0.0000,  0.0000,  1.5000)
  22 Co     9.959304   10.058201   10.606068    ( 0.0000,  0.0000,  0.0000)
  23 Co    12.452485   10.052985   10.619834    ( 0.0000,  0.0000,  1.5000)
  24 Co    14.933506   10.061047   10.614433    ( 0.0000,  0.0000,  2.0000)
  25 Co    12.449050   -0.000629   12.627234    ( 0.0000,  0.0000,  2.1000)
  26 Co     2.492433    0.000558   12.634954    ( 0.0000,  0.0000,  2.1000)
  27 Cr     4.974333    0.000141   12.611941    ( 0.0000,  0.0000,  2.1000)
  28 Fe     7.468637   -0.006559   12.638564    ( 0.0000,  0.0000,  0.0000)
  29 Cr    16.167928   10.788301   12.619514    ( 0.0000,  0.0000,  2.0000)
  30 Fe     1.266555    2.151225   12.633662    ( 0.0000,  0.0000,  2.0000)
  31 Fe     3.735748    2.148121   12.651127    ( 0.0000,  0.0000,  2.1000)
  32 Ni     6.204229    2.151322   12.625297    ( 0.0000,  0.0000,  2.0000)
  33 Co     8.713864    2.159169   12.632341    ( 0.0000,  0.0000,  0.0000)
  34 Cr    11.209280    2.157261   12.630668    ( 0.0000,  0.0000,  2.0000)
  35 Cr     2.491537    4.311041   12.649513    ( 0.0000,  0.0000,  1.5000)
  36 Fe     4.975141    4.309004   12.661988    ( 0.0000,  0.0000,  1.5000)
  37 Ni     7.471546    4.302515   12.629612    ( 0.0000,  0.0000,  0.0000)
  38 Ni     9.959331    4.321389   12.624211    ( 0.0000,  0.0000,  2.0000)
  39 Co    12.447216    4.322736   12.648779    ( 0.0000,  0.0000,  0.0000)
  40 Cr     3.727002    6.455713   12.638564    ( 0.0000,  0.0000,  2.0000)
  41 Fe     6.230130    6.458548   12.645726    ( 0.0000,  0.0000,  1.5000)
  42 Fe     8.722502    6.475815   12.624504    ( 0.0000,  0.0000,  2.1000)
  43 Fe    11.197735    6.469758   12.643995    ( 0.0000,  0.0000,  1.5000)
  44 Fe    13.683348    6.470059   12.640003    ( 0.0000,  0.0000,  2.1000)
  45 Cr    17.413993    8.621565   12.620189    ( 0.0000,  0.0000,  0.0000)
  46 Ni     7.471608    8.621834   12.638564    ( 0.0000,  0.0000,  1.5000)
  47 Ni     9.955597    8.628593   12.628115    ( 0.0000,  0.0000,  2.1000)
  48 Cr    12.449432    8.615173   12.619279    ( 0.0000,  0.0000,  1.5000)
  49 Fe    14.929575    8.617340   12.626089    ( 0.0000,  0.0000,  2.0000)
  50 Cr     1.254097    0.717223   14.680102    ( 0.0000,  0.0000,  2.1000)
  51 Ni     3.731090    0.711950   14.670063    ( 0.0000,  0.0000,  2.0000)
  52 Co     6.214925    0.718289   14.674818    ( 0.0000,  0.0000,  0.0000)
  53 Cr     8.714063    0.718519   14.689084    ( 0.0000,  0.0000,  2.0000)
  54 Fe    11.204771    0.717512   14.682421    ( 0.0000,  0.0000,  0.0000)
  55 Cr     2.496837    2.862958   14.687264    ( 0.0000,  0.0000,  2.0000)
  56 Fe     4.979214    2.867151   14.683800    ( 0.0000,  0.0000,  2.1000)
  57 Cr     7.478991    2.885690   14.679133    ( 0.0000,  0.0000,  2.1000)
  58 Ni     9.958294    2.881486   14.688056    ( 0.0000,  0.0000,  2.1000)
  59 Ni    12.441997    2.882424   14.688409    ( 0.0000,  0.0000,  0.0000)
  60 Co     3.731806    5.017201   14.686589    ( 0.0000,  0.0000,  2.1000)
  61 Cr     6.225452    5.035536   14.687205    ( 0.0000,  0.0000,  0.0000)
  62 Fe     8.715945    5.032324   14.674525    ( 0.0000,  0.0000,  2.1000)
  63 Cr    11.195745    5.039006   14.696011    ( 0.0000,  0.0000,  2.0000)
  64 Ni    13.700079    5.031203   14.681012    ( 0.0000,  0.0000,  2.1000)
  65 Fe     4.981869    7.184260   14.692048    ( 0.0000,  0.0000,  2.0000)
  66 Fe     7.477161    7.188130   14.678135    ( 0.0000,  0.0000,  1.5000)
  67 Co     9.952805    7.179334   14.674554    ( 0.0000,  0.0000,  0.0000)
  68 Cr    12.443073    7.188992   14.681100    ( 0.0000,  0.0000,  2.0000)
  69 Cr    14.930068    7.191493   14.686618    ( 0.0000,  0.0000,  0.0000)
  70 Cr     6.231394    9.346900   14.677343    ( 0.0000,  0.0000,  0.0000)
  71 Cr     8.712453    9.336671   14.666629    ( 0.0000,  0.0000,  1.5000)
  72 Cr    11.193692    9.342761   14.657881    ( 0.0000,  0.0000,  1.5000)
  73 Co    13.688080    9.336294   14.678986    ( 0.0000,  0.0000,  2.1000)
  74 Fe    16.181709    9.338601   14.679603    ( 0.0000,  0.0000,  2.0000)
  75 Fe    12.451515    1.431333   16.739956    ( 0.0000,  0.0000,  2.0000)
  76 Ni     2.493173    1.440441   16.729476    ( 0.0000,  0.0000,  1.5000)
  77 Fe     4.973378    1.437348   16.717295    ( 0.0000,  0.0000,  1.5000)
  78 Ni     7.475017    1.438609   16.711571    ( 0.0000,  0.0000,  2.0000)
  79 Fe     9.955789    1.433845   16.723048    ( 0.0000,  0.0000,  2.1000)
  80 Fe    13.696559    3.594351   16.715270    ( 0.0000,  0.0000,  2.1000)
  81 Fe     3.730077    3.579487   16.736903    ( 0.0000,  0.0000,  2.0000)
  82 Co     6.225541    3.599416   16.704614    ( 0.0000,  0.0000,  1.5000)
  83 Fe     8.709257    3.594792   16.716150    ( 0.0000,  0.0000,  2.1000)
  84 Ni    11.199463    3.603674   16.739691    ( 0.0000,  0.0000,  2.0000)
  85 Ni    14.943900    5.737718   16.712745    ( 0.0000,  0.0000,  1.5000)
  86 Fe     4.972339    5.736543   16.726893    ( 0.0000,  0.0000,  1.5000)
  87 Ni     7.458804    5.749316   16.714624    ( 0.0000,  0.0000,  2.1000)
  88 Fe     9.954095    5.748637   16.721228    ( 0.0000,  0.0000,  2.0000)
  89 Fe    12.462014    5.747344   16.728743    ( 0.0000,  0.0000,  2.0000)
  90 Fe    16.183410    7.912818   16.742715    ( 0.0000,  0.0000,  2.0000)
  91 Ni     6.219087    7.908313   16.727040    ( 0.0000,  0.0000,  2.1000)
  92 Fe     8.705037    7.899237   16.717853    ( 0.0000,  0.0000,  1.5000)
  93 Ni    11.200247    7.900293   16.707726    ( 0.0000,  0.0000,  2.0000)
  94 Fe    13.685904    7.915049   16.733058    ( 0.0000,  0.0000,  2.0000)
  95 Fe    17.435836   10.053955   16.714183    ( 0.0000,  0.0000,  2.1000)
  96 Co     7.479895   10.064335   16.723694    ( 0.0000,  0.0000,  2.1000)
  97 Ni     9.948438   10.062297   16.717999    ( 0.0000,  0.0000,  2.0000)
  98 Ni    12.430846   10.066016   16.706229    ( 0.0000,  0.0000,  2.1000)
  99 Cr    14.931465   10.060206   16.719819    ( 0.0000,  0.0000,  2.0000)
 100 Ni     0.001393   -0.001477   18.721348    ( 0.0000,  0.0000,  2.1000)
 101 Fe     8.706806   10.779893   18.727160    ( 0.0000,  0.0000,  2.1000)
 102 Co    11.204107   10.781618   18.717855    ( 0.0000,  0.0000,  1.5000)
 103 Co     7.469960    0.013195   18.707875    ( 0.0000,  0.0000,  2.0000)
 104 Ni    16.181919   10.775754   18.709108    ( 0.0000,  0.0000,  2.1000)
 105 Co     1.248004    2.161303   18.718354    ( 0.0000,  0.0000,  2.1000)
 106 Ni     3.733315    2.155634   18.745800    ( 0.0000,  0.0000,  1.5000)
 107 Co     6.228574    2.157186   18.698042    ( 0.0000,  0.0000,  2.0000)
 108 Co     8.707430    2.146688   18.721378    ( 0.0000,  0.0000,  1.5000)
 109 Ni    11.204420    2.145825   18.737698    ( 0.0000,  0.0000,  0.0000)
 110 Cr     2.490030    4.312410   18.723374    ( 0.0000,  0.0000,  2.1000)
 111 Ni     4.985099    4.302214   18.737992    ( 0.0000,  0.0000,  1.5000)
 112 Cr     7.468273    4.307150   18.718736    ( 0.0000,  0.0000,  1.5000)
 113 Co     9.951365    4.318112   18.731387    ( 0.0000,  0.0000,  1.5000)
 114 Fe    12.445275    4.305296   18.744537    ( 0.0000,  0.0000,  0.0000)
 115 Co     3.740863    6.459076   18.741044    ( 0.0000,  0.0000,  0.0000)
 116 Cr     6.217689    6.472786   18.736054    ( 0.0000,  0.0000,  1.5000)
 117 Cr     8.709004    6.465931   18.718354    ( 0.0000,  0.0000,  0.0000)
 118 Ni    11.207929    6.465576   18.705468    ( 0.0000,  0.0000,  2.1000)
 119 Co    13.697451    6.465489   18.739900    ( 0.0000,  0.0000,  0.0000)
 120 Ni     4.983428    8.632721   18.739518    ( 0.0000,  0.0000,  1.5000)
 121 Ni     7.469224    8.629196   18.723022    ( 0.0000,  0.0000,  1.5000)
 122 Co     9.951770    8.622740   18.693815    ( 0.0000,  0.0000,  2.1000)
 123 Co    12.435945    8.632257   18.713130    ( 0.0000,  0.0000,  0.0000)
 124 Cr    14.940770    8.642831   18.751406    ( 0.0000,  0.0000,  0.0000)

Unit cell:
           periodic     x           y           z      points  spacing
  1. axis:    yes   12.446800    0.000000    0.000000    54     0.1996
  2. axis:    yes    6.223010   10.778600    0.000000    54     0.1996
  3. axis:    no     0.000000    0.000000   29.353100   128     0.2293

  Lengths:  12.446800  12.446046  29.353100
  Angles:   90.000000  90.000000  60.000070

Effective grid spacing dv^(1/3) = 0.2193

     iter     time        total  log10-change:  magmom
                         energy  eigst   dens
iter:   1 01:13:39 -1140.260114                  +175.5308
iter:   2 01:17:15 -2061.891026  +0.52  -1.18    +140.9795
iter:   3 01:20:51 -1993.826438  +0.96  -0.86    +113.7765
iter:   4 01:24:26 -1167.932310  -0.40  -0.85    +78.5270
iter:   5 01:28:02 -1043.791426  -1.26  -1.21    +60.4776
iter:   6 01:31:37 -1030.880698  -1.79  -1.33    +45.8281
iter:   7 01:35:12 -1015.962975  -1.72  -1.36    +42.2773
iter:   8 01:38:49 -1168.295547  -1.01  -1.38    +43.2612
iter:   9 01:42:24 -1136.705222  -1.01  -1.13    +41.2315
iter:  10 01:45:59 -1007.714438  -1.63  -1.15    +34.8181
iter:  11 01:49:34 -1000.121257  -1.95  -1.45    +34.9151
iter:  12 01:53:09 -1001.433517  -1.57  -1.47    +35.8362
iter:  13 01:56:44 -1011.569662  -1.60  -1.53    +37.0264
iter:  14 02:00:17  -991.895036  -1.56  -1.46    +37.5985
iter:  15 02:03:52 -1191.424834  -1.16  -1.72    +39.7908
iter:  16 02:07:28 -1032.459880  -1.34  -1.15    +37.8235
iter:  17 02:11:03  -994.099653  -1.96  -1.40    +35.7795
iter:  18 02:14:38  -989.170024  -2.40  -1.70    +37.6225
iter:  19 02:18:14  -995.170609  -2.00  -1.80    +39.1621
iter:  20 02:21:49  -990.456106  -2.33  -1.72    +41.4604
iter:  21 02:25:24 -1028.526545  -1.93  -1.76    +43.6946
iter:  22 02:29:00  -988.522871  -2.22  -1.46    +43.6510
iter:  23 02:32:35 -1024.704259  -2.13  -1.87    +45.2682
iter:  24 02:36:09  -991.151550  -2.25  -1.47    +47.1608
iter:  25 02:39:43  -990.340667  -2.77  -1.85    +48.0153
iter:  26 02:43:19  -993.471340  -2.27  -1.91    +49.2798
iter:  27 02:46:54  -989.872514  -2.58  -1.86    +51.2257
iter:  28 02:50:30  -989.666763  -2.74  -2.04    +53.0755
iter:  29 02:54:04 -1011.319716  -2.33  -2.09    +53.8000
iter:  30 02:57:40  -991.982999  -2.34  -1.60    +56.3795
iter:  31 03:01:17  -991.886179  -2.85  -2.03    +57.8903
iter:  32 03:04:52  -991.111099  -3.14  -2.04    +58.4386
iter:  33 03:08:27  -990.555362  -3.26  -2.14    +59.4289
iter:  34 03:12:03  -991.208146  -3.43  -2.25    +60.5956
iter:  35 03:15:37  -991.315446  -3.33  -2.19    +61.8571
iter:  36 03:19:11  -991.851645  -3.11  -2.27    +62.1737
iter:  37 03:22:47  -992.808697  -2.83  -2.23    +64.1798
iter:  38 03:26:23  -994.255563  -2.90  -2.17    +65.2154
iter:  39 03:29:58  -992.532483  -3.04  -2.04    +65.9072
iter:  40 03:33:33  -993.137218  -2.98  -2.25    +65.8655
iter:  41 03:37:08  -991.968309  -3.63  -2.17    +67.1175
iter:  42 03:40:43  -992.279683  -3.64  -2.45    +68.7327
iter:  43 03:44:18  -992.498916  -3.46  -2.43    +71.1253
iter:  44 03:47:51  -992.842270  -3.21  -2.43    +73.8231
iter:  45 03:51:25  -992.675945  -4.00  -2.37    +72.8810
iter:  46 03:55:01  -992.765430  -3.73  -2.43    +72.8513
iter:  47 03:58:37  -993.013410  -3.77  -2.42    +72.9332
iter:  48 04:02:12  -992.803418  -3.79  -2.37    +72.8583
iter:  49 04:05:47  -995.469521  -3.14  -2.43    +73.1887
iter:  50 04:09:23  -992.873151  -3.30  -2.05    +73.4502
iter:  51 04:12:57  -992.924726  -3.78  -2.44    +73.1617
iter:  52 04:16:33  -992.859791c -3.89  -2.44    +73.0544
iter:  53 04:20:07  -992.984800  -3.81  -2.49    +73.1935
iter:  54 04:23:40  -992.991139  -3.70  -2.45    +73.2852
iter:  55 04:27:15  -993.966716  -3.61  -2.46    +73.0935
iter:  56 04:30:50  -993.228025  -3.35  -2.23    +72.8308
iter:  57 04:34:25  -993.135903  -3.63  -2.39    +73.1189
iter:  58 04:38:00  -992.998393  -3.62  -2.46    +73.3517
iter:  59 04:41:36  -992.990890  -3.84  -2.54    +73.3628
iter:  60 04:45:12  -993.025452c -3.82  -2.56    +73.3028
iter:  61 04:48:47  -993.126374  -4.22  -2.55    +73.4498
iter:  62 04:52:20  -993.248759  -3.64  -2.51    +73.9406
iter:  63 04:55:54  -992.983709  -4.06  -2.44    +73.5502
iter:  64 04:59:29  -993.047262  -3.89  -2.64    +73.5408
iter:  65 05:03:03  -993.017325c -4.00  -2.64    +73.2558
iter:  66 05:06:39  -993.232316  -3.75  -2.68    +73.1016
iter:  67 05:10:14  -993.108878  -4.07  -2.53    +72.8948
iter:  68 05:13:49  -993.258452  -3.72  -2.62    +72.3140
iter:  69 05:17:24  -992.989491  -4.31  -2.51    +72.6783
iter:  70 05:20:59  -992.998772  -4.54  -2.82    +72.5925
iter:  71 05:24:33  -992.998802c -4.68  -2.83    +72.7000
iter:  72 05:28:08  -993.019270c -4.68  -2.86    +72.6958
iter:  73 05:31:42  -993.029612c -4.48  -2.87    +72.7298
iter:  74 05:35:17  -994.250156  -3.58  -2.86    +72.7321
iter:  75 05:38:52  -993.051108  -3.79  -2.24    +72.5855
iter:  76 05:42:28  -993.079509  -4.18  -2.88    +72.6623
iter:  77 05:46:03  -993.096426c -4.19  -2.88    +72.5923
iter:  78 05:49:37  -993.049883c -4.61  -2.80    +72.4678
iter:  79 05:53:13  -993.044605c -4.57  -3.02    +72.3500
iter:  80 05:56:48  -993.177523  -4.50  -3.03    +72.3454
iter:  81 06:00:22  -993.078810  -4.40  -2.71    +72.3672
iter:  82 06:03:58  -993.064047c -4.63  -2.94    +72.2849
iter:  83 06:07:27  -993.092297c -4.45  -3.06    +72.2108
iter:  84 06:11:04  -993.061137c -4.69  -2.98    +72.2044
iter:  85 06:14:41  -993.082561c -4.56  -3.24    +72.1561
iter:  86 06:18:18  -993.071999c -4.91  -3.08    +72.1669
iter:  87 06:21:56  -993.085041c -4.75  -3.14    +72.0110
iter:  88 06:25:34  -993.059907c -5.36  -3.02    +72.1000
iter:  89 06:29:12  -993.061139c -5.61  -3.41    +72.0806
iter:  90 06:32:54  -993.062104c -5.34  -3.45    +72.1395
iter:  91 06:36:42  -993.062557c -5.77  -3.51    +72.1396
iter:  92 06:40:39  -993.065187c -5.65  -3.60    +72.1386
iter:  93 06:44:31  -993.064019c -5.72  -3.55    +72.1337
iter:  94 06:48:25  -993.070890c -5.41  -3.71    +72.1532
iter:  95 06:52:18  -993.066099c -5.77  -3.37    +72.1185
iter:  96 06:56:10  -993.066068c -5.98  -3.83    +72.1038
iter:  97 07:00:01  -993.066756c -6.18  -3.88    +72.1099
iter:  98 07:03:55  -993.067643c -6.07  -3.96    +72.0953
iter:  99 07:07:47  -993.067749c -6.49  -3.91    +72.0908
iter: 100 07:11:40  -993.071613c -5.88  -3.92    +72.0990
iter: 101 07:15:34  -993.069500c -6.30  -3.51    +72.0862
iter: 102 07:19:44  -993.069610c -6.28  -3.92    +72.0680
iter: 103 07:23:36  -993.070415c -6.22  -3.94    +72.0683
iter: 104 07:27:29  -993.070759c -6.44  -3.95    +72.0556
iter: 105 07:31:23  -993.071188c -6.30  -3.97    +72.0438
iter: 106 07:35:16  -993.071614c -6.62  -3.93    +72.0478
iter: 107 07:39:10  -993.072893c -6.43  -3.90    +72.0422
iter: 108 07:43:04  -993.072438c -6.53  -3.67    +72.0461
iter: 109 07:46:57  -993.072982c -6.39  -3.79    +72.0118
iter: 110 07:50:50  -993.073749c -6.04  -3.80    +71.9873
iter: 111 07:54:41  -993.074992c -5.97  -3.78    +71.9595
iter: 112 07:58:51  -993.100104c -5.25  -3.75    +71.9566
iter: 113 08:02:44  -993.076356c -5.41  -3.09    +71.9454
iter: 114 08:06:36  -993.078892c -5.78  -3.57    +71.9597
iter: 115 08:10:29  -993.077473c -6.11  -3.56    +71.9184
iter: 116 08:14:23  -993.077479c -5.91  -3.65    +71.8882
iter: 117 08:18:15  -993.078604c -5.45  -3.67    +71.8938
iter: 118 08:22:20  -993.082328c -5.66  -3.51    +71.9170
iter: 119 08:26:13  -993.077662c -5.56  -3.41    +72.0065
iter: 120 08:30:06  -993.080531c -5.73  -3.57    +71.9979
iter: 121 08:33:58  -993.077527c -6.04  -3.55    +71.9656
iter: 122 08:37:51  -993.077767c -6.48  -3.83    +71.9813
iter: 123 08:41:44  -993.078285c -6.48  -3.88    +71.9897
iter: 124 08:45:37  -993.078334c -6.54  -3.82    +71.9818
iter: 125 08:49:30  -993.079260c -6.38  -3.74    +71.9880
iter: 126 08:53:22  -993.078331c -6.19  -3.84    +71.9770
iter: 127 08:57:14  -993.079794c -6.09  -3.93    +71.9998
iter: 128 09:01:06  -993.080332c -5.90  -3.85    +71.9912
iter: 129 09:05:15  -993.079596c -6.23  -3.77    +71.9884
iter: 130 09:09:08  -993.083254c -5.96  -3.95    +71.9819
iter: 131 09:13:01  -993.079323c -6.43  -3.51    +71.9842
iter: 132 09:16:54  -993.079962c -6.64  -4.08c   +72.0146
iter: 133 09:20:46  -993.080311c -6.56  -4.16c   +72.0309
iter: 134 09:24:39  -993.081121c -6.15  -4.12c   +72.0589
iter: 135 09:28:32  -993.081311c -6.46  -4.02c   +72.0676
iter: 136 09:32:38  -993.081381c -6.84  -4.15c   +72.0592
iter: 137 09:36:30  -993.082585c -6.64  -4.13c   +72.0578
iter: 138 09:40:23  -993.081528c -6.95  -3.83    +72.0610
iter: 139 09:44:16  -993.082006c -6.17  -4.10c   +72.0695
iter: 140 09:48:09  -993.082026c -6.77  -4.11c   +72.0616
iter: 141 09:52:02  -993.082070c -6.80  -4.30c   +72.0406
iter: 142 09:55:54  -993.082442c -6.71  -4.39c   +72.0377
iter: 143 09:59:46  -993.082818c -6.67  -4.29c   +72.0350
iter: 144 10:03:34  -993.082492c -6.85  -3.81    +72.0283
iter: 145 10:07:25  -993.082776c -6.84  -4.46c   +72.0246
iter: 146 10:11:17  -993.082454c -6.67  -4.39c   +72.0291
iter: 147 10:15:09  -993.083399c -5.85  -4.35c   +72.0162
iter: 148 10:18:55  -993.083661c -6.56  -4.21c   +72.0195
iter: 149 10:22:42  -993.083688c -6.77  -4.24c   +72.0130
iter: 150 10:26:27  -993.083618c -6.88  -4.20c   +72.0124
iter: 151 10:30:06  -993.083932c -6.98  -4.09c   +72.0157
iter: 152 10:33:46  -993.084541c -6.48  -4.11c   +72.0279
iter: 153 10:37:24  -993.088444c -6.00  -4.04c   +72.0259
iter: 154 10:40:57  -993.085131c -6.13  -3.48    +72.0366
iter: 155 10:44:36  -993.085040c -6.16  -4.06c   +72.0217
iter: 156 10:48:15  -993.084372c -6.61  -3.94    +72.0112
iter: 157 10:51:53  -993.085098c -6.68  -4.17c   +72.0151
iter: 158 10:55:31  -993.085078c -7.14  -4.28c   +72.0042
iter: 159 10:59:08  -993.085451c -6.81  -4.43c   +71.9981
iter: 160 11:02:42  -993.085307c -7.39  -4.08c   +71.9992
iter: 161 11:06:19  -993.085389c -7.11  -4.42c   +71.9917
iter: 162 11:09:57  -993.085159c -6.85  -4.38c   +71.9912
iter: 163 11:13:36  -993.085581c -7.08  -4.24c   +71.9939
iter: 164 11:17:14  -993.085729c -6.82  -4.31c   +71.9880
iter: 165 11:20:53  -993.085989c -6.77  -4.22c   +71.9909
iter: 166 11:24:32  -993.085795c -6.65  -3.93    +71.9880
iter: 167 11:28:14  -993.086096c -6.85  -4.14c   +71.9924
iter: 168 11:31:52  -993.086405c -6.83  -4.19c   +72.0081
iter: 169 11:35:25  -993.086116c -7.01  -4.39c   +71.9997
iter: 170 11:39:04  -993.086133c -6.95  -4.45c   +72.0047
iter: 171 11:42:44  -993.086245c -7.37  -4.34c   +72.0015
iter: 172 11:46:23  -993.086434c -7.04  -4.57c   +71.9993
iter: 173 11:50:01  -993.086300c -7.42c -4.25c   +71.9968

Converged after 173 iterations.

Dipole moment: (51.980375, 28.269656, 0.002848) |e|*Ang

Total magnetic moment: (0.000000, 0.000000, 71.996755)
Local magnetic moments:
   0 Cr ( 0.000000,  0.000000, -2.314082)
   1 Fe ( 0.000000,  0.000000,  2.507700)
   2 Co ( 0.000000,  0.000000,  1.145776)
   3 Cr ( 0.000000,  0.000000,  1.934085)
   4 Ni ( 0.000000,  0.000000,  0.038070)
   5 Ni ( 0.000000,  0.000000,  0.339376)
   6 Co ( 0.000000,  0.000000,  1.173037)
   7 Cr ( 0.000000,  0.000000, -2.343648)
   8 Co ( 0.000000,  0.000000,  1.317137)
   9 Fe ( 0.000000,  0.000000,  2.415023)
  10 Cr ( 0.000000,  0.000000, -1.956909)
  11 Co ( 0.000000,  0.000000,  1.242272)
  12 Co ( 0.000000,  0.000000,  1.482955)
  13 Cr ( 0.000000,  0.000000, -2.444525)
  14 Ni ( 0.000000,  0.000000,  0.217095)
  15 Co ( 0.000000,  0.000000,  0.585652)
  16 Co ( 0.000000,  0.000000,  1.425781)
  17 Co ( 0.000000,  0.000000,  1.397801)
  18 Cr ( 0.000000,  0.000000,  1.860944)
  19 Ni ( 0.000000,  0.000000,  0.099049)
  20 Cr ( 0.000000,  0.000000,  1.817175)
  21 Ni ( 0.000000,  0.000000,  0.396438)
  22 Co ( 0.000000,  0.000000,  1.264313)
  23 Co ( 0.000000,  0.000000, -1.033133)
  24 Co ( 0.000000,  0.000000, -1.052894)
  25 Co ( 0.000000,  0.000000,  0.517429)
  26 Co ( 0.000000,  0.000000,  1.102014)
  27 Cr ( 0.000000,  0.000000, -0.582418)
  28 Fe ( 0.000000,  0.000000, -1.754186)
  29 Cr ( 0.000000,  0.000000, -0.475345)
  30 Fe ( 0.000000,  0.000000,  1.549174)
  31 Fe ( 0.000000,  0.000000,  1.936903)
  32 Ni ( 0.000000,  0.000000,  0.186956)
  33 Co ( 0.000000,  0.000000,  0.147515)
  34 Cr ( 0.000000,  0.000000,  0.570298)
  35 Cr ( 0.000000,  0.000000, -0.288884)
  36 Fe ( 0.000000,  0.000000,  1.797551)
  37 Ni ( 0.000000,  0.000000,  0.313016)
  38 Ni ( 0.000000,  0.000000,  0.346061)
  39 Co ( 0.000000,  0.000000,  0.811934)
  40 Cr ( 0.000000,  0.000000, -0.148010)
  41 Fe ( 0.000000,  0.000000,  2.026724)
  42 Fe ( 0.000000,  0.000000,  2.268103)
  43 Fe ( 0.000000,  0.000000,  1.640487)
  44 Fe ( 0.000000,  0.000000,  1.569599)
  45 Cr ( 0.000000,  0.000000, -0.927922)
  46 Ni ( 0.000000,  0.000000,  0.291550)
  47 Ni ( 0.000000,  0.000000,  0.204918)
  48 Cr ( 0.000000,  0.000000, -0.784202)
  49 Fe ( 0.000000,  0.000000,  1.109869)
  50 Cr ( 0.000000,  0.000000,  0.283118)
  51 Ni ( 0.000000,  0.000000,  0.154412)
  52 Co ( 0.000000,  0.000000,  0.554930)
  53 Cr ( 0.000000,  0.000000,  0.417460)
  54 Fe ( 0.000000,  0.000000, -1.375861)
  55 Cr ( 0.000000,  0.000000, -1.327261)
  56 Fe ( 0.000000,  0.000000,  1.896509)
  57 Cr ( 0.000000,  0.000000, -1.188793)
  58 Ni ( 0.000000,  0.000000,  0.115696)
  59 Ni ( 0.000000,  0.000000,  0.198440)
  60 Co ( 0.000000,  0.000000,  0.877356)
  61 Cr ( 0.000000,  0.000000, -1.503904)
  62 Fe ( 0.000000,  0.000000,  1.963645)
  63 Cr ( 0.000000,  0.000000, -1.432390)
  64 Ni ( 0.000000,  0.000000,  0.137012)
  65 Fe ( 0.000000,  0.000000,  1.467396)
  66 Fe ( 0.000000,  0.000000,  1.839666)
  67 Co ( 0.000000,  0.000000,  0.547992)
  68 Cr ( 0.000000,  0.000000, -1.015344)
  69 Cr ( 0.000000,  0.000000, -0.731803)
  70 Cr ( 0.000000,  0.000000, -0.397857)
  71 Cr ( 0.000000,  0.000000, -1.181758)
  72 Cr ( 0.000000,  0.000000,  0.826847)
  73 Co ( 0.000000,  0.000000, -0.230602)
  74 Fe ( 0.000000,  0.000000, -0.216666)
  75 Fe ( 0.000000,  0.000000,  2.161834)
  76 Ni ( 0.000000,  0.000000,  0.406553)
  77 Fe ( 0.000000,  0.000000,  2.518100)
  78 Ni ( 0.000000,  0.000000,  0.393877)
  79 Fe ( 0.000000,  0.000000,  2.047634)
  80 Fe ( 0.000000,  0.000000,  2.186215)
  81 Fe ( 0.000000,  0.000000,  2.123567)
  82 Co ( 0.000000,  0.000000,  1.171655)
  83 Fe ( 0.000000,  0.000000,  2.224388)
  84 Ni ( 0.000000,  0.000000,  0.517375)
  85 Ni ( 0.000000,  0.000000,  0.368287)
  86 Fe ( 0.000000,  0.000000,  2.122795)
  87 Ni ( 0.000000,  0.000000,  0.234022)
  88 Fe ( 0.000000,  0.000000,  2.098701)
  89 Fe ( 0.000000,  0.000000,  2.112518)
  90 Fe ( 0.000000,  0.000000,  1.970372)
  91 Ni ( 0.000000,  0.000000,  0.371590)
  92 Fe ( 0.000000,  0.000000,  2.251694)
  93 Ni ( 0.000000,  0.000000,  0.442606)
  94 Fe ( 0.000000,  0.000000,  1.998552)
  95 Fe ( 0.000000,  0.000000,  2.054360)
  96 Co ( 0.000000,  0.000000,  1.165776)
  97 Ni ( 0.000000,  0.000000,  0.492364)
  98 Ni ( 0.000000,  0.000000,  0.385062)
  99 Cr ( 0.000000,  0.000000, -0.642404)
 100 Ni ( 0.000000,  0.000000,  0.606984)
 101 Fe ( 0.000000,  0.000000,  2.822520)
 102 Co ( 0.000000,  0.000000,  1.711717)
 103 Co ( 0.000000,  0.000000,  1.447613)
 104 Ni ( 0.000000,  0.000000,  0.401182)
 105 Co ( 0.000000,  0.000000,  1.540578)
 106 Ni ( 0.000000,  0.000000,  0.564481)
 107 Co ( 0.000000,  0.000000,  1.595999)
 108 Co ( 0.000000,  0.000000,  1.589186)
 109 Ni ( 0.000000,  0.000000,  0.664298)
 110 Cr ( 0.000000,  0.000000, -2.578328)
 111 Ni ( 0.000000,  0.000000,  0.415314)
 112 Cr ( 0.000000,  0.000000, -2.298824)
 113 Co ( 0.000000,  0.000000,  1.322365)
 114 Fe ( 0.000000,  0.000000,  2.681546)
 115 Co ( 0.000000,  0.000000,  1.352597)
 116 Cr ( 0.000000,  0.000000,  2.172148)
 117 Cr ( 0.000000,  0.000000, -2.421808)
 118 Ni ( 0.000000,  0.000000,  0.565045)
 119 Co ( 0.000000,  0.000000,  1.494469)
 120 Ni ( 0.000000,  0.000000,  0.405890)
 121 Ni ( 0.000000,  0.000000,  0.410848)
 122 Co ( 0.000000,  0.000000,  1.612236)
 123 Co ( 0.000000,  0.000000,  1.615648)
 124 Cr ( 0.000000,  0.000000, -2.374325)

Energy contributions relative to reference atoms: (reference = -4451268.207082)

Kinetic:       +233.956813
Potential:     -290.290485
External:        +0.000000
XC:            -979.475969
Entropy (-ST):   -5.737498
Local:          +45.592091
--------------------------
Free energy:   -995.955049
Extrapolated:  -993.086300

Dipole-layer corrected work functions: 4.953201, 4.949360 eV

Spin contamination: 43.683267 electrons
Showing all kpts
                      Up                     Down
 Kpt  Band  Eigenvalues  Occupancy  Eigenvalues  Occupancy
  0   606      0.00731    0.99266      0.82651    0.03609
  0   607      0.01433    0.99213      0.83790    0.03233
  0   608      0.02280    0.99144      0.85188    0.02823
  0   609      0.02521    0.99123      0.86131    0.02575

  1   606      0.00245    0.99300      0.83752    0.03245
  1   607      0.00738    0.99265      0.85442    0.02754
  1   608      0.03575    0.99027      0.86851    0.02401
  1   609      0.04366    0.98947      0.88016    0.02143


Fermi level: 0.49800

No gap

Forces in eV/Ang:
  0 Cr    0.01487    0.02949   -0.29686
  1 Fe    0.16485   -0.00813   -0.25024
  2 Co   -0.22764   -0.32679    0.12505
  3 Cr    0.33877   -0.46862   -0.08998
  4 Ni   -0.18682    0.09371   -0.05544
  5 Ni   -0.04535    0.19061   -0.16186
  6 Co   -0.10573    0.07478    0.10097
  7 Cr   -0.10948    0.39307   -0.23362
  8 Co    0.11975    0.14330    0.33816
  9 Fe    0.17229    0.10126   -0.08394
 10 Cr    0.14460    0.04329   -0.28484
 11 Co    0.01028    0.20496    0.39653
 12 Co   -0.25437    0.20289    0.08478
 13 Cr   -0.36265   -0.08841   -0.19525
 14 Ni    0.36415   -0.22359    0.03160
 15 Co   -0.05312   -0.03285    0.43820
 16 Co    0.02712   -0.28794   -0.02816
 17 Co   -0.41159   -0.00332   -0.01871
 18 Cr    0.21677    0.38352   -0.51536
 19 Ni    0.28750    0.16691   -0.04533
 20 Cr   -0.33119   -0.17914   -0.15967
 21 Ni    0.15723   -0.19533    0.12586
 22 Co    0.05871    0.12870    0.19363
 23 Co   -0.29042    0.10974    0.26916
 24 Co   -0.02504   -0.24201    0.33021
 25 Co   -0.13847    0.08189    0.29592
 26 Co    0.07874    0.04239   -0.02558
 27 Cr    0.09464    0.05001   -0.43912
 28 Fe    0.02939    0.34184    0.05060
 29 Cr   -0.12456    0.05168   -0.35215
 30 Fe   -0.16540    0.14846   -0.02825
 31 Fe    0.13599   -0.09606   -0.08422
 32 Ni    0.11719   -0.10621    0.39819
 33 Co    0.07654   -0.10646   -0.01499
 34 Cr   -0.07864   -0.21549    0.35360
 35 Cr    0.09718    0.13016   -0.39945
 36 Fe    0.04219    0.01661   -0.23853
 37 Ni    0.15675    0.09037   -0.21681
 38 Ni   -0.15379   -0.28530   -0.01168
 39 Co   -0.18808   -0.21518   -0.11361
 40 Cr    0.38951   -0.11894   -0.16652
 41 Fe   -0.07518    0.09130   -0.37243
 42 Fe   -0.00146   -0.01411   -0.35595
 43 Fe    0.07425   -0.18971    0.42555
 44 Fe   -0.24549    0.12708   -0.12102
 45 Cr    0.10252   -0.21708   -0.12635
 46 Ni   -0.14088   -0.08438   -0.14432
 47 Ni   -0.08255   -0.11571    0.05518
 48 Cr    0.19860    0.13690   -0.26937
 49 Fe    0.20489   -0.01531    0.10732
 50 Cr   -0.42179   -0.24759   -0.12734
 51 Ni    0.07022   -0.01081   -0.04885
 52 Co    0.07720    0.05014   -0.14647
 53 Cr   -0.07020   -0.36661   -0.38366
 54 Fe    0.05028    0.08354   -0.24520
 55 Cr   -0.01346    0.22704    0.10675
 56 Fe    0.11957   -0.10803   -0.24630
 57 Cr    0.06231   -0.36273   -0.21726
 58 Ni    0.10851   -0.19675   -0.24465
 59 Ni   -0.04146   -0.13371   -0.24361
 60 Co    0.02514    0.16919    0.03473
 61 Cr   -0.36257    0.19057   -0.12143
 62 Fe    0.01046    0.02844   -0.13516
 63 Cr    0.03007   -0.09828   -0.25388
 64 Ni   -0.05749    0.07584   -0.11577
 65 Fe   -0.15460    0.19475   -0.23770
 66 Fe   -0.13972    0.04342    0.17811
 67 Co    0.14277    0.03646   -0.16533
 68 Cr   -0.11963    0.11801    0.15690
 69 Cr    0.43863    0.23894   -0.21654
 70 Cr   -0.31308    0.17786    0.13903
 71 Cr   -0.00602   -0.01034   -0.03293
 72 Cr    0.39664   -0.09104    0.07177
 73 Co    0.09583   -0.05084   -0.16490
 74 Fe    0.07531    0.05201   -0.07852
 75 Fe    0.09441   -0.07394   -0.02102
 76 Ni   -0.11856   -0.08073   -0.04150
 77 Fe    0.19096   -0.11730    0.07319
 78 Ni   -0.09830    0.06449    0.10892
 79 Fe    0.03525    0.04258    0.13006
 80 Fe    0.00100   -0.26056    0.02241
 81 Fe    0.22004    0.13315    0.20208
 82 Co   -0.19141   -0.00016    0.27939
 83 Fe   -0.21797   -0.12018    0.31526
 84 Ni    0.05984   -0.13288   -0.12815
 85 Ni   -0.03143    0.19713    0.26248
 86 Fe   -0.10329   -0.18001   -0.23636
 87 Ni    0.02704    0.01233   -0.16927
 88 Fe    0.13781    0.07658    0.24243
 89 Fe   -0.04436    0.22478   -0.03246
 90 Fe    0.02010    0.00410    0.08765
 91 Ni    0.07468    0.01134   -0.28296
 92 Fe   -0.16075    0.25554    0.00250
 93 Ni    0.00616    0.13102    0.01698
 94 Fe   -0.06354    0.07081    0.04032
 95 Fe   -0.07613    0.00298    0.07214
 96 Co   -0.03866   -0.06814   -0.19531
 97 Ni   -0.05402   -0.04390    0.00704
 98 Ni    0.17554   -0.00987    0.09568
 99 Cr   -0.00063    0.13456   -0.26434
100 Ni   -0.05580    0.07713    0.29380
101 Fe   -0.00258   -0.00504    0.25052
102 Co    0.27125   -0.03865   -0.00449
103 Co   -0.16375   -0.03330    0.01402
104 Ni   -0.07171    0.12423    0.36355
105 Co   -0.22700   -0.09703   -0.02187
106 Ni    0.14062   -0.01069    0.19998
107 Co   -0.17925   -0.07046    0.09286
108 Co    0.17922   -0.05759   -0.02000
109 Ni   -0.01603    0.07247    0.12175
110 Cr    0.16856   -0.05551    0.35731
111 Ni   -0.08778   -0.14153    0.09933
112 Cr   -0.25878   -0.85141    0.20948
113 Co   -0.14550   -0.06796   -0.18818
114 Fe   -0.26958   -0.03514    0.34197
115 Co   -0.16641    0.15253   -0.32616
116 Cr    0.24378    0.03436    0.63563
117 Cr    0.65967    0.67079    0.48192
118 Ni    0.11049    0.01969    0.33983
119 Co   -0.14163    0.17848   -0.34614
120 Ni   -0.06095    0.12086    0.19254
121 Ni    0.04743    0.19491    0.17466
122 Co    0.09278    0.03412    0.16310
123 Co   -0.04567    0.05048   -0.02138
124 Cr    0.05494   -0.28488    0.36586

Timing:                              incl.     excl.
-----------------------------------------------------------
Forces:                             79.914    79.914   0.2% |
Hamiltonian:                         2.176     0.015   0.0% |
 Atomic:                             0.413     0.002   0.0% |
  XC Correction:                     0.411     0.411   0.0% |
 Calculate atomic Hamiltonians:      1.090     1.090   0.0% |
 Communicate:                        0.111     0.111   0.0% |
 Initialize Hamiltonian:             0.001     0.001   0.0% |
 Poisson:                            0.126     0.126   0.0% |
 XC 3D grid:                         0.420     0.420   0.0% |
LCAO initialization:               389.421     0.467   0.0% |
 LCAO eigensolver:                  23.370     0.025   0.0% |
  Calculate projections:             0.000     0.000   0.0% |
  DenseAtomicCorrection:             0.000     0.000   0.0% |
  Distribute overlap matrix:        13.403    13.403   0.0% |
  Orbital Layouts:                   9.884     9.884   0.0% |
  Potential matrix:                  0.005     0.005   0.0% |
  Sum over cells:                    0.053     0.053   0.0% |
 LCAO to grid:                     362.838   362.838   0.9% |
 Set positions (LCAO WFS):           2.746     2.389   0.0% |
  Basic WFS set positions:           0.004     0.004   0.0% |
  Basis functions set positions:     0.001     0.001   0.0% |
  P tci:                             0.000     0.000   0.0% |
  ST tci:                            0.144     0.144   0.0% |
  mktci:                             0.208     0.208   0.0% |
PWDescriptor:                        0.181     0.181   0.0% |
SCF-cycle:                       38414.673     1.690   0.0% |
 Davidson:                       37217.981 10367.799  26.7% |----------|
  Apply H:                         611.890   600.876   1.5% ||
   HMM T:                           11.014    11.014   0.0% |
  Subspace diag:                  3625.666     0.088   0.0% |
   calc_h_matrix:                 1507.423   956.358   2.5% ||
    Apply H:                       551.065   539.683   1.4% ||
     HMM T:                         11.382    11.382   0.0% |
   diagonalize:                    336.161   336.161   0.9% |
   rotate_psi:                    1781.993  1781.993   4.6% |-|
  calc. matrices:                 8451.891  7408.834  19.0% |-------|
   Apply H:                       1043.057  1019.593   2.6% ||
    HMM T:                          23.464    23.464   0.1% |
  diagonalize:                   10391.259 10391.259  26.7% |----------|
  rotate_psi:                     3769.477  3769.477   9.7% |---|
 Density:                          666.615     0.008   0.0% |
  Atomic density matrices:           5.786     5.786   0.0% |
  Mix:                             374.804   374.804   1.0% |
  Multipole moments:                 0.140     0.140   0.0% |
  Pseudo density:                  285.877   285.868   0.7% |
   Symmetrize density:               0.009     0.009   0.0% |
 Hamiltonian:                      504.908     2.791   0.0% |
  Atomic:                           72.974     0.327   0.0% |
   XC Correction:                   72.647    72.647   0.2% |
  Calculate atomic Hamiltonians:   327.435   327.435   0.8% |
  Communicate:                      21.671    21.671   0.1% |
  Poisson:                           8.901     8.901   0.0% |
  XC 3D grid:                       71.136    71.136   0.2% |
 Orthonormalize:                    23.479     0.001   0.0% |
  calc_s_matrix:                     2.942     2.942   0.0% |
  inverse-cholesky:                  1.113     1.113   0.0% |
  projections:                      14.335    14.335   0.0% |
  rotate_psi_s:                      5.088     5.088   0.0% |
Set symmetry:                        0.001     0.001   0.0% |
Other:                              13.291    13.291   0.0% |
-----------------------------------------------------------
Total:                                     38899.657 100.0%

Date: Thu Apr 20 11:51:30 2023
