
  ___ ___ ___ _ _ _  
 |   |   |_  | | | | 
 | | | | | . | | | | 
 |__ |  _|___|_____|  22.8.0
 |___|_|             

User:   c.zeng@d0007
Date:   Thu Apr 20 01:58:27 2023
Arch:   x86_64
Pid:    56915
CWD:    /home/c.zeng/projects/hea-corrosion/hea-mlp/data-curation/surface-mcmc/dft-jobs/35
Python: 3.8.1
gpaw:   /home/c.zeng/usr/installs/gpaw/source/gpaw-22.8.0/gpaw
_gpaw:  /home/c.zeng/usr/installs/gpaw/source/gpaw-22.8.0/
        _gpaw.cpython-38-x86_64-linux-gnu.so
ase:    /home/c.zeng/.local/lib/python3.8/site-packages/ase-3.22.1-py3.8.egg/ase (version 3.22.1)
numpy:  /home/c.zeng/.local/lib/python3.8/site-packages/numpy (version 1.24.2)
scipy:  /home/c.zeng/.local/lib/python3.8/site-packages/scipy (version 1.10.1)
libxc:  4.2.3
units:  Angstrom and eV
cores: 30
OpenMP: False
OMP_NUM_THREADS: 1

Input parameters:
  convergence: {energy: 0.0001}
  kpts: [2 2 1]
  maxiter: 666
  mode: {ecut: 350.0,
         name: pw}
  occupations: {fixmagmom: False,
                name: fermi-dirac,
                width: 0.1}
  poissonsolver: {dipolelayer: xy}
  spinpol: True
  symmetry: {point_group: False}
  xc: PBE

System changes: positions, numbers, cell, pbc, initial_charges, initial_magmoms 

Initialize ...

species:
  Cr:
    name: Chromium
    id: 33f258bda2ca9f93018e70263a35547b
    Z: 24.0
    valence: 6
    core: 18
    charge: 0.0
    file: /home/c.zeng/usr/data/gpaw-setups-0.9.20000/Cr.PBE.gz
    compensation charges: {type: gauss,
                           rc: 0.35,
                           lmax: 2}
    cutoffs: {filter: 2.14,
              core: 3.04}
    valence states:
      #              energy  rcut
      - 4s(1.00)    -4.007   1.164
      - 4p(0.00)    -0.989   1.217
      - 3d(5.00)    -2.913   1.111
      -  s          23.205   1.164
      -  p          26.223   1.217
      -  d          24.299   1.111
  
    # Using partial waves for Cr as LCAO basis

  Co:
    name: Cobalt
    id: 339d20d5b0b93d2de9531a1bee871d91
    Z: 27.0
    valence: 9
    core: 18
    charge: 0.0
    file: /home/c.zeng/usr/data/gpaw-setups-0.9.20000/Co.PBE.gz
    compensation charges: {type: gauss,
                           rc: 0.32,
                           lmax: 2}
    cutoffs: {filter: 1.87,
              core: 2.55}
    valence states:
      #              energy  rcut
      - 4s(2.00)    -5.469   1.005
      - 4p(0.00)    -1.277   1.058
      - 3d(7.00)    -8.205   1.005
      -  s          21.742   1.005
      -  p          25.934   1.058
      -  d          19.007   1.005
  
    # Using partial waves for Co as LCAO basis

  Ni:
    name: Nickel
    id: 0d9f38a9d6e76a2886f07bb4381f212b
    Z: 28.0
    valence: 16
    core: 12
    charge: 0.0
    file: /home/c.zeng/usr/data/gpaw-setups-0.9.20000/Ni.PBE.gz
    compensation charges: {type: gauss,
                           rc: 0.36,
                           lmax: 2}
    cutoffs: {filter: 2.14,
              core: 1.98}
    valence states:
      #              energy  rcut
      - 4s(2.00)    -5.642   1.164
      - 3p(6.00)   -71.394   1.207
      - 4p(0.00)    -1.226   1.207
      - 3d(8.00)    -8.875   1.138
      -  s          21.570   1.164
      -  d          18.337   1.138
  
    # Using partial waves for Ni as LCAO basis

  Fe:
    name: Iron
    id: 37abbd8d6c3c35915a9b583b742da910
    Z: 26.0
    valence: 8
    core: 18
    charge: 0.0
    file: /home/c.zeng/usr/data/gpaw-setups-0.9.20000/Fe.PBE.gz
    compensation charges: {type: gauss,
                           rc: 0.33,
                           lmax: 2}
    cutoffs: {filter: 2.06,
              core: 2.67}
    valence states:
      #              energy  rcut
      - 4s(2.00)    -5.291   1.164
      - 4p(0.00)    -1.326   1.058
      - 3d(6.00)    -7.505   1.058
      -  s          21.920   1.164
      -  p          25.885   1.058
      -  d          19.706   1.058
  
    # Using partial waves for Fe as LCAO basis

Reference energy: -4451268.207082  # eV

Spin-polarized calculation.
Magnetic moment: 175.600000

Convergence criteria:
 Maximum [total energy] change in last 3 cyles: 0.0001 eV / electron
 Maximum integral of absolute [dens]ity change: 0.0001 electrons / valence electron
 Maximum integral of absolute [eigenst]ate change: 4e-08 eV^2 / valence electron
 Maximum number of scf [iter]ations: 666
 (Square brackets indicate name in SCF output, whereas a 'c' in
 the SCF output indicates the quantity has converged.)

Symmetries present (total): 1

  ( 1  0  0)
  ( 0  1  0)
  ( 0  0  1)

4 k-points: 2 x 2 x 1 Monkhorst-Pack grid
2 k-points in the irreducible part of the Brillouin zone
       k-points in crystal coordinates                weights
   0:     0.25000000   -0.25000000    0.00000000          2/4
   1:     0.25000000    0.25000000    0.00000000          2/4

Wave functions: Plane wave expansion
  Cutoff energy: 350.000 eV
  Number of coefficients (min, max): 58495, 58567
  Pulay-stress correction: 0.000000 eV/Ang^3 (de/decut=0.000000)
  Using FFTW library
  ScaLapack parameters: grid=1x1, blocksize=None
  Wavefunction extrapolation:
    Improved wavefunction reuse through dual PAW basis 

Occupation numbers: Fermi-Dirac:
  width: 0.1000  # eV
 

Eigensolver
   Davidson(niter=2) 

Densities:
  Coarse grid: 54*54*128 grid
  Fine grid: 108*108*256 grid
  Total Charge: 0.000000 

Density mixing:
  Method: difference
  Backend: pulay
  Linear mixing parameter: 0.05
  old densities: 5
  Damping of long wavelength oscillations: 50 

Hamiltonian:
  XC and Coulomb potentials evaluated on a 108*108*256 grid
  Using the PBE Exchange-Correlation functional
  External potential:
    NoExternalPotential
 

XC parameters: PBE with 2 nearest neighbor stencil

Memory estimate:
  Process memory now: 366.40 MiB
  Calculator: 2405.48 MiB
    Density: 16.73 MiB
      Arrays: 6.75 MiB
      Localized functions: 7.29 MiB
      Mixer: 2.70 MiB
    Hamiltonian: 5.22 MiB
      Arrays: 5.01 MiB
      XC: 0.00 MiB
      Poisson: 0.00 MiB
      vbar: 0.21 MiB
    Wavefunctions: 2383.52 MiB
      Arrays psit_nG: 1501.35 MiB
      Eigensolver: 862.84 MiB
      Projections: 3.85 MiB
      Projectors: 0.98 MiB
      PW-descriptor: 14.51 MiB

Total number of cores used: 30
Parallelization over k-points: 2
Domain decomposition: 1 x 3 x 5

Number of atoms: 125
Number of atomic orbitals: 1218
Number of bands in calculation: 840
Number of valence electrons: 1217
Bands to converge: occupied

... initialized

Initializing position-dependent things.

Density initialized from atomic densities
Creating initial wave functions:
  840 bands from LCAO basis set

                                                                  
                                                                  
                                                                  
                                                                  
                                   Fe    Co           Ni          
                         Ni    Ni    Co    Co    Cr               
                    Co    Cr     Cr    Ni    Fe                   
                                Co    Ni    Ni    Cr    Co        
                Cr    Ni   NCr   FCo    NCo   Fe    Fe            
            Co    Ni   CFe   NCo   FNi   Fe     Ni                
       Ni                 FeCr    Cr     Cr    Co    Fe           
                   Fe   FFe   CFe   FNi   CFe   Cr    Cr          
              Ni   CFe    CNi   CFe   CFe   Ni                    
                               Ni    Ni    Cr    Fe    Cr         
               Cr   CFe   FCr   NFNi  CFNi  CCo   Co    Cr        
           Cr   CNi   FFe  CNCr   NFe   CFe         Co            
            Co    Fe          Co    Cr        Ni                  
                       CNi   Co    Cr    Ni     Cr                
             Fe    Cr    CCo   Fe    CFe   Ni                     
              Co    Co    Cr     Ni    Cr                         
                                                                  
                                                                  
                                                                  
                                                                  
                                                                  

Positions:
   0 Cr    12.462288    1.423821   10.629080    ( 0.0000,  0.0000,  0.0000)
   1 Co     2.499576    1.440301   10.626527    ( 0.0000,  0.0000,  2.0000)
   2 Co     4.968611    1.438835   10.615079    ( 0.0000,  0.0000,  1.5000)
   3 Cr     7.462726    1.421460   10.639178    ( 0.0000,  0.0000,  2.1000)
   4 Ni     9.958813    1.440808   10.614286    ( 0.0000,  0.0000,  1.5000)
   5 Ni    13.701699    3.595687   10.631928    ( 0.0000,  0.0000,  0.0000)
   6 Co     3.731720    3.588498   10.658463    ( 0.0000,  0.0000,  2.0000)
   7 Cr     6.206181    3.578862   10.616048    ( 0.0000,  0.0000,  0.0000)
   8 Fe     8.708678    3.588487   10.610441    ( 0.0000,  0.0000,  0.0000)
   9 Co    11.213254    3.596560   10.610265    ( 0.0000,  0.0000,  0.0000)
  10 Cr    14.928341    5.748260   10.633307    ( 0.0000,  0.0000,  1.5000)
  11 Co     4.975718    5.742741   10.620568    ( 0.0000,  0.0000,  0.0000)
  12 Co     7.478433    5.755029   10.612261    ( 0.0000,  0.0000,  0.0000)
  13 Cr     9.958968    5.766540   10.606596    ( 0.0000,  0.0000,  0.0000)
  14 Ni    12.428955    5.759114   10.623679    ( 0.0000,  0.0000,  2.0000)
  15 Co    16.172575    7.907763   10.614962    ( 0.0000,  0.0000,  0.0000)
  16 Co     6.230875    7.897556   10.631399    ( 0.0000,  0.0000,  1.5000)
  17 Co     8.712063    7.918800   10.624912    ( 0.0000,  0.0000,  1.5000)
  18 Cr    11.196407    7.900649   10.627583    ( 0.0000,  0.0000,  2.0000)
  19 Ni    13.685743    7.894915   10.608768    ( 0.0000,  0.0000,  0.0000)
  20 Cr    17.413095   10.061737   10.609531    ( 0.0000,  0.0000,  0.0000)
  21 Ni     7.473454   10.060875   10.626761    ( 0.0000,  0.0000,  1.5000)
  22 Co     9.959304   10.058201   10.606068    ( 0.0000,  0.0000,  0.0000)
  23 Co    12.452485   10.052985   10.619834    ( 0.0000,  0.0000,  1.5000)
  24 Co    14.933506   10.061047   10.614433    ( 0.0000,  0.0000,  2.0000)
  25 Fe    12.449050   -0.000629   12.627234    ( 0.0000,  0.0000,  2.1000)
  26 Fe     2.492433    0.000558   12.634954    ( 0.0000,  0.0000,  2.1000)
  27 Cr     4.974333    0.000141   12.611941    ( 0.0000,  0.0000,  2.1000)
  28 Co     7.468637   -0.006559   12.638564    ( 0.0000,  0.0000,  0.0000)
  29 Cr    16.167928   10.788301   12.619514    ( 0.0000,  0.0000,  2.0000)
  30 Co     1.266555    2.151225   12.633662    ( 0.0000,  0.0000,  2.0000)
  31 Fe     3.735748    2.148121   12.651127    ( 0.0000,  0.0000,  2.1000)
  32 Ni     6.204229    2.151322   12.625297    ( 0.0000,  0.0000,  2.0000)
  33 Co     8.713864    2.159169   12.632341    ( 0.0000,  0.0000,  0.0000)
  34 Cr    11.209280    2.157261   12.630668    ( 0.0000,  0.0000,  2.0000)
  35 Cr     2.491537    4.311041   12.649513    ( 0.0000,  0.0000,  1.5000)
  36 Fe     4.975141    4.309004   12.661988    ( 0.0000,  0.0000,  1.5000)
  37 Ni     7.471546    4.302515   12.629612    ( 0.0000,  0.0000,  0.0000)
  38 Ni     9.959331    4.321389   12.624211    ( 0.0000,  0.0000,  2.0000)
  39 Fe    12.447216    4.322736   12.648779    ( 0.0000,  0.0000,  0.0000)
  40 Cr     3.727002    6.455713   12.638564    ( 0.0000,  0.0000,  2.0000)
  41 Fe     6.230130    6.458548   12.645726    ( 0.0000,  0.0000,  1.5000)
  42 Fe     8.722502    6.475815   12.624504    ( 0.0000,  0.0000,  2.1000)
  43 Fe    11.197735    6.469758   12.643995    ( 0.0000,  0.0000,  1.5000)
  44 Co    13.683348    6.470059   12.640003    ( 0.0000,  0.0000,  2.1000)
  45 Cr    17.413993    8.621565   12.620189    ( 0.0000,  0.0000,  0.0000)
  46 Ni     7.471608    8.621834   12.638564    ( 0.0000,  0.0000,  1.5000)
  47 Ni     9.955597    8.628593   12.628115    ( 0.0000,  0.0000,  2.1000)
  48 Cr    12.449432    8.615173   12.619279    ( 0.0000,  0.0000,  1.5000)
  49 Fe    14.929575    8.617340   12.626089    ( 0.0000,  0.0000,  2.0000)
  50 Cr     1.254097    0.717223   14.680102    ( 0.0000,  0.0000,  2.1000)
  51 Ni     3.731090    0.711950   14.670063    ( 0.0000,  0.0000,  2.0000)
  52 Fe     6.214925    0.718289   14.674818    ( 0.0000,  0.0000,  0.0000)
  53 Cr     8.714063    0.718519   14.689084    ( 0.0000,  0.0000,  2.0000)
  54 Fe    11.204771    0.717512   14.682421    ( 0.0000,  0.0000,  0.0000)
  55 Cr     2.496837    2.862958   14.687264    ( 0.0000,  0.0000,  2.0000)
  56 Fe     4.979214    2.867151   14.683800    ( 0.0000,  0.0000,  2.1000)
  57 Cr     7.478991    2.885690   14.679133    ( 0.0000,  0.0000,  2.1000)
  58 Ni     9.958294    2.881486   14.688056    ( 0.0000,  0.0000,  2.1000)
  59 Ni    12.441997    2.882424   14.688409    ( 0.0000,  0.0000,  0.0000)
  60 Co     3.731806    5.017201   14.686589    ( 0.0000,  0.0000,  2.1000)
  61 Cr     6.225452    5.035536   14.687205    ( 0.0000,  0.0000,  0.0000)
  62 Co     8.715945    5.032324   14.674525    ( 0.0000,  0.0000,  2.1000)
  63 Cr    11.195745    5.039006   14.696011    ( 0.0000,  0.0000,  2.0000)
  64 Ni    13.700079    5.031203   14.681012    ( 0.0000,  0.0000,  2.1000)
  65 Fe     4.981869    7.184260   14.692048    ( 0.0000,  0.0000,  2.0000)
  66 Co     7.477161    7.188130   14.678135    ( 0.0000,  0.0000,  1.5000)
  67 Fe     9.952805    7.179334   14.674554    ( 0.0000,  0.0000,  0.0000)
  68 Cr    12.443073    7.188992   14.681100    ( 0.0000,  0.0000,  2.0000)
  69 Cr    14.930068    7.191493   14.686618    ( 0.0000,  0.0000,  0.0000)
  70 Cr     6.231394    9.346900   14.677343    ( 0.0000,  0.0000,  0.0000)
  71 Cr     8.712453    9.336671   14.666629    ( 0.0000,  0.0000,  1.5000)
  72 Cr    11.193692    9.342761   14.657881    ( 0.0000,  0.0000,  1.5000)
  73 Co    13.688080    9.336294   14.678986    ( 0.0000,  0.0000,  2.1000)
  74 Fe    16.181709    9.338601   14.679603    ( 0.0000,  0.0000,  2.0000)
  75 Fe    12.451515    1.431333   16.739956    ( 0.0000,  0.0000,  2.0000)
  76 Ni     2.493173    1.440441   16.729476    ( 0.0000,  0.0000,  1.5000)
  77 Fe     4.973378    1.437348   16.717295    ( 0.0000,  0.0000,  1.5000)
  78 Ni     7.475017    1.438609   16.711571    ( 0.0000,  0.0000,  2.0000)
  79 Fe     9.955789    1.433845   16.723048    ( 0.0000,  0.0000,  2.1000)
  80 Fe    13.696559    3.594351   16.715270    ( 0.0000,  0.0000,  2.1000)
  81 Fe     3.730077    3.579487   16.736903    ( 0.0000,  0.0000,  2.0000)
  82 Fe     6.225541    3.599416   16.704614    ( 0.0000,  0.0000,  1.5000)
  83 Fe     8.709257    3.594792   16.716150    ( 0.0000,  0.0000,  2.1000)
  84 Ni    11.199463    3.603674   16.739691    ( 0.0000,  0.0000,  2.0000)
  85 Ni    14.943900    5.737718   16.712745    ( 0.0000,  0.0000,  1.5000)
  86 Co     4.972339    5.736543   16.726893    ( 0.0000,  0.0000,  1.5000)
  87 Ni     7.458804    5.749316   16.714624    ( 0.0000,  0.0000,  2.1000)
  88 Fe     9.954095    5.748637   16.721228    ( 0.0000,  0.0000,  2.0000)
  89 Fe    12.462014    5.747344   16.728743    ( 0.0000,  0.0000,  2.0000)
  90 Fe    16.183410    7.912818   16.742715    ( 0.0000,  0.0000,  2.0000)
  91 Ni     6.219087    7.908313   16.727040    ( 0.0000,  0.0000,  2.1000)
  92 Fe     8.705037    7.899237   16.717853    ( 0.0000,  0.0000,  1.5000)
  93 Ni    11.200247    7.900293   16.707726    ( 0.0000,  0.0000,  2.0000)
  94 Fe    13.685904    7.915049   16.733058    ( 0.0000,  0.0000,  2.0000)
  95 Co    17.435836   10.053955   16.714183    ( 0.0000,  0.0000,  2.1000)
  96 Co     7.479895   10.064335   16.723694    ( 0.0000,  0.0000,  2.1000)
  97 Ni     9.948438   10.062297   16.717999    ( 0.0000,  0.0000,  2.0000)
  98 Ni    12.430846   10.066016   16.706229    ( 0.0000,  0.0000,  2.1000)
  99 Cr    14.931465   10.060206   16.719819    ( 0.0000,  0.0000,  2.0000)
 100 Ni     0.001393   -0.001477   18.721348    ( 0.0000,  0.0000,  2.1000)
 101 Fe     8.706806   10.779893   18.727160    ( 0.0000,  0.0000,  2.1000)
 102 Co    11.204107   10.781618   18.717855    ( 0.0000,  0.0000,  1.5000)
 103 Fe     7.469960    0.013195   18.707875    ( 0.0000,  0.0000,  2.0000)
 104 Ni    16.181919   10.775754   18.709108    ( 0.0000,  0.0000,  2.1000)
 105 Co     1.248004    2.161303   18.718354    ( 0.0000,  0.0000,  2.1000)
 106 Ni     3.733315    2.155634   18.745800    ( 0.0000,  0.0000,  1.5000)
 107 Fe     6.228574    2.157186   18.698042    ( 0.0000,  0.0000,  2.0000)
 108 Co     8.707430    2.146688   18.721378    ( 0.0000,  0.0000,  1.5000)
 109 Ni    11.204420    2.145825   18.737698    ( 0.0000,  0.0000,  0.0000)
 110 Cr     2.490030    4.312410   18.723374    ( 0.0000,  0.0000,  2.1000)
 111 Ni     4.985099    4.302214   18.737992    ( 0.0000,  0.0000,  1.5000)
 112 Cr     7.468273    4.307150   18.718736    ( 0.0000,  0.0000,  1.5000)
 113 Co     9.951365    4.318112   18.731387    ( 0.0000,  0.0000,  1.5000)
 114 Co    12.445275    4.305296   18.744537    ( 0.0000,  0.0000,  0.0000)
 115 Co     3.740863    6.459076   18.741044    ( 0.0000,  0.0000,  0.0000)
 116 Cr     6.217689    6.472786   18.736054    ( 0.0000,  0.0000,  1.5000)
 117 Cr     8.709004    6.465931   18.718354    ( 0.0000,  0.0000,  0.0000)
 118 Ni    11.207929    6.465576   18.705468    ( 0.0000,  0.0000,  2.1000)
 119 Fe    13.697451    6.465489   18.739900    ( 0.0000,  0.0000,  0.0000)
 120 Ni     4.983428    8.632721   18.739518    ( 0.0000,  0.0000,  1.5000)
 121 Ni     7.469224    8.629196   18.723022    ( 0.0000,  0.0000,  1.5000)
 122 Co     9.951770    8.622740   18.693815    ( 0.0000,  0.0000,  2.1000)
 123 Co    12.435945    8.632257   18.713130    ( 0.0000,  0.0000,  0.0000)
 124 Cr    14.940770    8.642831   18.751406    ( 0.0000,  0.0000,  0.0000)

Unit cell:
           periodic     x           y           z      points  spacing
  1. axis:    yes   12.446800    0.000000    0.000000    54     0.1996
  2. axis:    yes    6.223010   10.778600    0.000000    54     0.1996
  3. axis:    no     0.000000    0.000000   29.353100   128     0.2293

  Lengths:  12.446800  12.446046  29.353100
  Angles:   90.000000  90.000000  60.000070

Effective grid spacing dv^(1/3) = 0.2193

     iter     time        total  log10-change:  magmom
                         energy  eigst   dens
iter:   1 02:08:19 -1138.304464                  +175.5308
iter:   2 02:11:39 -1950.433401  +0.43  -1.18    +139.7834
iter:   3 02:14:59 -2041.112916  +0.90  -0.89    +112.9371
iter:   4 02:18:19 -1177.513363  -0.30  -0.83    +76.6953
iter:   5 02:21:40 -1050.013577  -1.23  -1.21    +57.0247
iter:   6 02:25:01 -1030.372041  -1.77  -1.33    +42.0799
iter:   7 02:28:22 -1011.285865  -1.73  -1.36    +38.7757
iter:   8 02:31:44 -1077.398549  -1.24  -1.40    +39.7933
iter:   9 02:35:06 -1214.817476  -1.02  -1.24    +39.0128
iter:  10 02:38:28 -1006.293068  -1.51  -1.08    +34.7177
iter:  11 02:41:51  -996.903752  -1.97  -1.45    +34.4100
iter:  12 02:45:14 -1006.135050  -1.70  -1.49    +35.3771
iter:  13 02:48:42 -1009.038010  -1.64  -1.50    +36.4561
iter:  14 02:52:23  -995.824633  -1.74  -1.47    +37.4004
iter:  15 02:56:10 -1217.762616  -1.13  -1.62    +39.6824
iter:  16 03:00:08 -1009.781791  -1.38  -1.12    +37.0179
iter:  17 03:03:41 -1002.087315  -1.91  -1.50    +35.2671
iter:  18 03:07:03  -989.285611  -2.27  -1.61    +36.8680
iter:  19 03:10:21  -994.045551  -2.04  -1.76    +38.5562
iter:  20 03:13:38  -993.599165  -2.14  -1.78    +41.3349
iter:  21 03:16:54 -1082.690890  -1.65  -1.74    +43.4866
iter:  22 03:20:11  -989.469954  -1.98  -1.28    +42.5770
iter:  23 03:23:29  -998.389183  -2.25  -1.87    +43.4473
iter:  24 03:26:47  -989.503426  -2.58  -1.71    +45.7643
iter:  25 03:30:06  -990.667505  -2.82  -1.88    +49.3051
iter:  26 03:33:25  -989.405963  -2.87  -1.92    +50.7486
iter:  27 03:36:44 -1001.932384  -2.23  -1.99    +53.8835
iter:  28 03:40:02  -996.164622  -2.33  -1.73    +53.5304
iter:  29 03:43:21  -992.030275  -2.69  -1.80    +55.1786
iter:  30 03:46:39  -995.657391  -2.25  -2.02    +56.8458
iter:  31 03:49:58  -990.545754  -2.64  -1.89    +57.7798
iter:  32 03:53:17  -992.150802  -2.89  -2.25    +60.0294
iter:  33 03:56:35  -991.470486  -3.40  -2.07    +60.3882
iter:  34 03:59:54  -993.089857  -2.82  -2.18    +64.4566
iter:  35 04:03:13  -991.798158  -3.28  -2.09    +64.5471
iter:  36 04:06:31  -992.004538  -3.29  -2.26    +66.5809
iter:  37 04:09:50  -992.978240  -3.12  -2.32    +68.3449
iter:  38 04:13:08  -994.224588  -2.85  -2.23    +69.2226
iter:  39 04:16:27  -992.445195  -3.17  -2.10    +69.8956
iter:  40 04:19:46  -994.479753  -3.01  -2.47    +70.9141
iter:  41 04:23:05  -992.721060  -3.19  -2.11    +71.0741
iter:  42 04:26:23  -992.566008  -3.50  -2.43    +72.1412
iter:  43 04:29:42  -992.703270  -3.64  -2.57    +72.7300
iter:  44 04:33:01  -992.578261  -4.09  -2.53    +72.6680
iter:  45 04:36:20  -992.613662  -4.21  -2.62    +73.4025
iter:  46 04:39:39  -992.714159  -4.18  -2.66    +73.5096
iter:  47 04:42:58  -992.831645  -3.96  -2.62    +73.9172
iter:  48 04:46:17  -992.792800c -3.88  -2.56    +73.9179
iter:  49 04:49:36  -992.772108c -3.93  -2.70    +73.6299
iter:  50 04:52:54  -992.878093c -3.85  -2.80    +73.7956
iter:  51 04:56:13  -992.888768c -3.92  -2.68    +74.0636
iter:  52 04:59:32  -992.766045  -4.42  -2.71    +73.9637
iter:  53 05:02:51  -992.797765  -4.39  -3.08    +74.2538
iter:  54 05:06:10  -992.857067c -4.50  -3.04    +74.3636
iter:  55 05:09:28  -992.827831c -5.08  -2.87    +74.3567
iter:  56 05:12:49  -992.843922c -4.53  -3.01    +74.4528
iter:  57 05:16:08  -992.844790c -4.75  -3.04    +74.4588
iter:  58 05:19:28  -992.863427c -4.71  -3.06    +74.6103
iter:  59 05:22:46  -992.876954c -4.53  -3.01    +74.7943
iter:  60 05:26:06  -992.891997c -4.55  -3.02    +74.9380
iter:  61 05:29:25  -993.399655  -3.93  -2.98    +75.0456
iter:  62 05:32:44  -992.992166  -4.43  -2.42    +75.0449
iter:  63 05:36:04  -992.949749  -4.60  -2.74    +74.6278
iter:  64 05:39:24  -992.968317c -4.67  -2.83    +74.5735
iter:  65 05:42:44  -993.007132c -4.32  -2.81    +74.6801
iter:  66 05:46:03  -992.991779c -4.75  -2.76    +74.6627
iter:  67 05:49:23  -997.526371  -3.00  -2.79    +74.7676
iter:  68 05:52:43  -993.094592  -3.21  -1.95    +74.8747
iter:  69 05:56:03  -993.112172  -4.08  -2.65    +74.8685
iter:  70 05:59:23  -993.079511c -4.18  -2.64    +74.6291
iter:  71 06:02:43  -993.098796c -4.37  -2.67    +74.5299
iter:  72 06:06:04  -993.039383c -4.33  -2.64    +74.4545
iter:  73 06:09:26 -1005.085824  -2.61  -2.72    +74.5470
iter:  74 06:12:48  -993.076085  -2.86  -1.74    +74.7497
iter:  75 06:16:10  -993.069531  -3.95  -2.67    +74.6627
iter:  76 06:19:32  -993.058113c -4.57  -2.68    +74.6269
iter:  77 06:22:55  -992.987071c -4.63  -2.70    +74.6207
iter:  78 06:26:17  -992.929651  -4.43  -2.85    +74.6802
iter:  79 06:29:40  -992.968320c -4.38  -3.11    +74.8027
iter:  80 06:33:03  -992.943634c -4.55  -2.88    +74.5313
iter:  81 06:36:26  -992.920784c -5.19  -3.04    +74.5771
iter:  82 06:39:50  -992.918431c -5.49  -3.32    +74.6591
iter:  83 06:43:14  -992.931179c -5.00  -3.38    +75.0641
iter:  84 06:46:38  -992.947202c -4.85  -3.45    +75.3972
iter:  85 06:50:03  -992.976231c -4.22  -3.36    +76.1097
iter:  86 06:53:46  -992.988042c -4.51  -3.16    +76.3038
iter:  87 06:57:28  -992.983907c -5.11  -3.10    +76.2204
iter:  88 07:01:21  -993.034925c -5.03  -3.08    +76.2361
iter:  89 07:05:18  -993.011119c -5.86  -2.93    +76.2323
iter:  90 07:09:18  -992.978307c -4.77  -3.02    +76.1951
iter:  91 07:13:18  -993.009823c -4.40  -3.02    +76.1803
iter:  92 07:17:17  -993.020384c -4.20  -2.90    +76.1075
iter:  93 07:21:17  -992.972487c -4.39  -2.91    +76.2199
iter:  94 07:25:17  -993.228298  -4.04  -3.05    +76.1880
iter:  95 07:29:16  -992.967837  -4.36  -2.58    +76.4046
iter:  96 07:33:15  -992.963720  -5.12  -3.21    +76.3845
iter:  97 07:37:15  -992.962345c -5.41  -3.26    +76.3358
iter:  98 07:41:14  -992.962837c -5.40  -3.36    +76.2356
iter:  99 07:45:13  -992.969599c -5.19  -3.45    +76.1859
iter: 100 07:49:13  -992.984830c -5.18  -3.32    +76.2013
iter: 101 07:53:12  -993.002129c -4.69  -3.08    +76.2030
iter: 102 07:57:13  -992.968725c -5.01  -3.00    +76.2802
iter: 103 08:01:12  -992.967037c -5.45  -3.38    +76.2493
iter: 104 08:05:12  -992.966120c -5.78  -3.44    +76.2533
iter: 105 08:09:11  -992.965560c -6.08  -3.50    +76.2297
iter: 106 08:13:12  -992.965498c -6.39  -3.61    +76.2288
iter: 107 08:17:11  -992.966702c -6.02  -3.66    +76.2152
iter: 108 08:21:11  -992.973685c -5.53  -3.61    +76.2168
iter: 109 08:25:09  -992.972171c -5.40  -3.34    +76.2258
iter: 110 08:29:08  -992.968612c -5.66  -3.32    +76.2585
iter: 111 08:33:06  -992.967095c -5.86  -3.67    +76.2594
iter: 112 08:37:06  -992.966919c -5.86  -3.80    +76.1969
iter: 113 08:41:04  -992.967906c -6.18  -3.78    +76.1958
iter: 114 08:45:03  -992.967016c -6.18  -3.77    +76.1802
iter: 115 08:49:01  -992.968257c -5.97  -4.03c   +76.1928
iter: 116 08:53:00  -992.968631c -6.13  -3.59    +76.2046
iter: 117 08:56:59  -992.968129c -6.22  -3.80    +76.2114
iter: 118 09:00:59  -992.967602c -6.39  -3.86    +76.1838
iter: 119 09:04:57  -992.968670c -6.56  -3.95    +76.1861
iter: 120 09:08:53  -992.968083c -6.55  -3.86    +76.1773
iter: 121 09:12:47  -992.969283c -5.96  -3.98    +76.1752
iter: 122 09:16:40  -992.968123c -6.14  -3.55    +76.1820
iter: 123 09:20:37  -992.968335c -6.78  -3.91    +76.1947
iter: 124 09:24:37  -992.968532c -7.01  -3.94    +76.1808
iter: 125 09:28:34  -992.967873c -7.18  -3.95    +76.1744
iter: 126 09:32:33  -992.968114c -7.26  -4.10c   +76.1804
iter: 127 09:36:31  -992.967515c -6.48  -4.02c   +76.1832
iter: 128 09:40:28  -992.967964c -6.82  -4.01c   +76.1885
iter: 129 09:44:26  -992.967916c -7.46c -4.16c   +76.1952

Converged after 129 iterations.

Dipole moment: (51.812928, 27.991586, -0.010097) |e|*Ang

Total magnetic moment: (0.000000, 0.000000, 76.195221)
Local magnetic moments:
   0 Cr ( 0.000000,  0.000000, -2.021197)
   1 Co ( 0.000000,  0.000000,  1.566025)
   2 Co ( 0.000000,  0.000000,  1.268422)
   3 Cr ( 0.000000,  0.000000,  1.534939)
   4 Ni ( 0.000000,  0.000000,  0.120011)
   5 Ni ( 0.000000,  0.000000,  0.360598)
   6 Co ( 0.000000,  0.000000,  1.191022)
   7 Cr ( 0.000000,  0.000000, -2.311854)
   8 Fe ( 0.000000,  0.000000,  2.496253)
   9 Co ( 0.000000,  0.000000,  1.187298)
  10 Cr ( 0.000000,  0.000000,  1.508095)
  11 Co ( 0.000000,  0.000000,  1.179849)
  12 Co ( 0.000000,  0.000000,  1.461294)
  13 Cr ( 0.000000,  0.000000, -2.410191)
  14 Ni ( 0.000000,  0.000000,  0.178760)
  15 Co ( 0.000000,  0.000000,  0.974031)
  16 Co ( 0.000000,  0.000000,  1.395717)
  17 Co ( 0.000000,  0.000000,  1.405006)
  18 Cr ( 0.000000,  0.000000,  1.671966)
  19 Ni ( 0.000000,  0.000000,  0.236274)
  20 Cr ( 0.000000,  0.000000, -1.816585)
  21 Ni ( 0.000000,  0.000000,  0.295083)
  22 Co ( 0.000000,  0.000000,  1.368301)
  23 Co ( 0.000000,  0.000000,  0.798452)
  24 Co ( 0.000000,  0.000000,  1.092576)
  25 Fe ( 0.000000,  0.000000,  1.329308)
  26 Fe ( 0.000000,  0.000000,  2.098391)
  27 Cr ( 0.000000,  0.000000, -0.842016)
  28 Co ( 0.000000,  0.000000,  0.500437)
  29 Cr ( 0.000000,  0.000000,  0.213391)
  30 Co ( 0.000000,  0.000000,  0.795421)
  31 Fe ( 0.000000,  0.000000,  1.906713)
  32 Ni ( 0.000000,  0.000000,  0.183342)
  33 Co ( 0.000000,  0.000000,  0.528823)
  34 Cr ( 0.000000,  0.000000, -0.333266)
  35 Cr ( 0.000000,  0.000000, -1.143286)
  36 Fe ( 0.000000,  0.000000,  1.847632)
  37 Ni ( 0.000000,  0.000000,  0.301174)
  38 Ni ( 0.000000,  0.000000,  0.328816)
  39 Fe ( 0.000000,  0.000000,  2.068302)
  40 Cr ( 0.000000,  0.000000, -0.818303)
  41 Fe ( 0.000000,  0.000000,  2.042248)
  42 Fe ( 0.000000,  0.000000,  2.284791)
  43 Fe ( 0.000000,  0.000000,  1.409669)
  44 Co ( 0.000000,  0.000000,  0.430669)
  45 Cr ( 0.000000,  0.000000, -0.292113)
  46 Ni ( 0.000000,  0.000000,  0.302413)
  47 Ni ( 0.000000,  0.000000,  0.152364)
  48 Cr ( 0.000000,  0.000000, -0.910001)
  49 Fe ( 0.000000,  0.000000,  1.470218)
  50 Cr ( 0.000000,  0.000000, -0.732059)
  51 Ni ( 0.000000,  0.000000,  0.142373)
  52 Fe ( 0.000000,  0.000000, -1.502536)
  53 Cr ( 0.000000,  0.000000, -0.440464)
  54 Fe ( 0.000000,  0.000000,  1.386858)
  55 Cr ( 0.000000,  0.000000, -0.818223)
  56 Fe ( 0.000000,  0.000000,  1.727932)
  57 Cr ( 0.000000,  0.000000, -0.805849)
  58 Ni ( 0.000000,  0.000000,  0.188350)
  59 Ni ( 0.000000,  0.000000,  0.205010)
  60 Co ( 0.000000,  0.000000,  0.727662)
  61 Cr ( 0.000000,  0.000000, -1.300635)
  62 Co ( 0.000000,  0.000000,  0.818803)
  63 Cr ( 0.000000,  0.000000, -1.160902)
  64 Ni ( 0.000000,  0.000000,  0.131837)
  65 Fe ( 0.000000,  0.000000,  1.614517)
  66 Co ( 0.000000,  0.000000,  0.989520)
  67 Fe ( 0.000000,  0.000000, -1.497279)
  68 Cr ( 0.000000,  0.000000, -0.357870)
  69 Cr ( 0.000000,  0.000000, -1.079130)
  70 Cr ( 0.000000,  0.000000, -0.338667)
  71 Cr ( 0.000000,  0.000000, -0.873650)
  72 Cr ( 0.000000,  0.000000,  0.995779)
  73 Co ( 0.000000,  0.000000, -0.084278)
  74 Fe ( 0.000000,  0.000000,  1.316036)
  75 Fe ( 0.000000,  0.000000,  2.356158)
  76 Ni ( 0.000000,  0.000000,  0.404797)
  77 Fe ( 0.000000,  0.000000,  2.358550)
  78 Ni ( 0.000000,  0.000000,  0.330035)
  79 Fe ( 0.000000,  0.000000,  2.175040)
  80 Fe ( 0.000000,  0.000000,  2.240397)
  81 Fe ( 0.000000,  0.000000,  2.118960)
  82 Fe ( 0.000000,  0.000000,  2.044699)
  83 Fe ( 0.000000,  0.000000,  2.176524)
  84 Ni ( 0.000000,  0.000000,  0.516694)
  85 Ni ( 0.000000,  0.000000,  0.355320)
  86 Co ( 0.000000,  0.000000,  1.128724)
  87 Ni ( 0.000000,  0.000000,  0.231500)
  88 Fe ( 0.000000,  0.000000,  2.056584)
  89 Fe ( 0.000000,  0.000000,  2.099184)
  90 Fe ( 0.000000,  0.000000,  2.098447)
  91 Ni ( 0.000000,  0.000000,  0.370727)
  92 Fe ( 0.000000,  0.000000,  2.265880)
  93 Ni ( 0.000000,  0.000000,  0.372140)
  94 Fe ( 0.000000,  0.000000,  1.887008)
  95 Co ( 0.000000,  0.000000,  1.225998)
  96 Co ( 0.000000,  0.000000,  1.160713)
  97 Ni ( 0.000000,  0.000000,  0.497964)
  98 Ni ( 0.000000,  0.000000,  0.335935)
  99 Cr ( 0.000000,  0.000000, -0.978363)
 100 Ni ( 0.000000,  0.000000,  0.604293)
 101 Fe ( 0.000000,  0.000000,  2.817680)
 102 Co ( 0.000000,  0.000000,  1.655996)
 103 Fe ( 0.000000,  0.000000,  2.432451)
 104 Ni ( 0.000000,  0.000000,  0.370117)
 105 Co ( 0.000000,  0.000000,  1.581691)
 106 Ni ( 0.000000,  0.000000,  0.555869)
 107 Fe ( 0.000000,  0.000000,  2.533697)
 108 Co ( 0.000000,  0.000000,  1.503701)
 109 Ni ( 0.000000,  0.000000,  0.687935)
 110 Cr ( 0.000000,  0.000000, -2.610653)
 111 Ni ( 0.000000,  0.000000,  0.363936)
 112 Cr ( 0.000000,  0.000000, -2.333466)
 113 Co ( 0.000000,  0.000000,  1.366429)
 114 Co ( 0.000000,  0.000000,  1.620525)
 115 Co ( 0.000000,  0.000000,  1.351170)
 116 Cr ( 0.000000,  0.000000,  2.212080)
 117 Cr ( 0.000000,  0.000000, -2.426928)
 118 Ni ( 0.000000,  0.000000,  0.543046)
 119 Fe ( 0.000000,  0.000000,  2.538521)
 120 Ni ( 0.000000,  0.000000,  0.408345)
 121 Ni ( 0.000000,  0.000000,  0.408832)
 122 Co ( 0.000000,  0.000000,  1.572192)
 123 Co ( 0.000000,  0.000000,  1.555898)
 124 Cr ( 0.000000,  0.000000, -2.400190)

Energy contributions relative to reference atoms: (reference = -4451268.207082)

Kinetic:       +223.281844
Potential:     -281.781641
External:        +0.000000
XC:            -977.171767
Entropy (-ST):   -5.749650
Local:          +45.578473
--------------------------
Free energy:   -995.842741
Extrapolated:  -992.967916

Dipole-layer corrected work functions: 4.941324, 4.954943 eV

Spin contamination: 41.245069 electrons
Showing all kpts
                      Up                     Down
 Kpt  Band  Eigenvalues  Occupancy  Eigenvalues  Occupancy
  0   606     -0.03134    0.99510      0.84864    0.02971
  0   607     -0.02294    0.99467      0.85367    0.02829
  0   608     -0.01203    0.99406      0.86835    0.02453
  0   609     -0.00441    0.99360      0.88317    0.02122

  1   606     -0.00852    0.99385      0.86489    0.02537
  1   607      0.00024    0.99329      0.87938    0.02202
  1   608      0.01170    0.99249      0.88777    0.02029
  1   609      0.02406    0.99151      0.89549    0.01881


Fermi level: 0.50004

No gap

Forces in eV/Ang:
  0 Cr    0.16224    0.33976   -0.09542
  1 Co    0.10533    0.05653    0.17734
  2 Co   -0.20749   -0.24413    0.04734
  3 Cr   -0.00121   -0.64276    0.17459
  4 Ni    0.04242    0.03281   -0.18206
  5 Ni   -0.15091   -0.00212   -0.22279
  6 Co   -0.14336   -0.12530   -0.01945
  7 Cr   -0.09475    0.30877   -0.25475
  8 Fe    0.37058    0.22805    0.04177
  9 Co    0.24773   -0.06366    0.34699
 10 Cr    0.34600   -0.01677    0.16559
 11 Co    0.01890    0.19498    0.29108
 12 Co   -0.34516    0.29423    0.04763
 13 Cr   -0.13398   -0.12378   -0.22133
 14 Ni    0.21285   -0.24307   -0.03391
 15 Co    0.06604    0.12297    0.29038
 16 Co   -0.04019   -0.15977    0.05088
 17 Co   -0.34243    0.02097   -0.00830
 18 Cr    0.25310    0.29645   -0.34068
 19 Ni    0.17590    0.11640    0.08368
 20 Cr   -0.40019   -0.35339   -0.07501
 21 Ni    0.03583   -0.09436   -0.05187
 22 Co   -0.01565    0.16351    0.05408
 23 Co   -0.17609    0.18026    0.29492
 24 Co    0.03200   -0.30740    0.25410
 25 Fe   -0.24468    0.15107   -0.17870
 26 Fe   -0.00155   -0.06793   -0.14162
 27 Cr    0.10833    0.21733   -0.37954
 28 Co   -0.06768    0.06129    0.04279
 29 Cr   -0.03254   -0.10021   -0.42898
 30 Co   -0.14476    0.06152    0.00217
 31 Fe    0.06920    0.11244   -0.22380
 32 Ni    0.25813   -0.19382    0.32274
 33 Co    0.02859   -0.04076    0.02754
 34 Cr   -0.17342   -0.12603   -0.06111
 35 Cr    0.10554    0.09193   -0.42587
 36 Fe   -0.03341    0.05194   -0.08489
 37 Ni    0.13855    0.09442   -0.06681
 38 Ni   -0.20404   -0.26929    0.16792
 39 Fe   -0.15682   -0.05705   -0.34402
 40 Cr    0.36228    0.00559   -0.34699
 41 Fe   -0.08635    0.11689   -0.32968
 42 Fe   -0.08796   -0.11381   -0.02389
 43 Fe    0.11216   -0.05401    0.24149
 44 Co   -0.16593    0.18470    0.12092
 45 Cr    0.14489   -0.14636   -0.21686
 46 Ni   -0.07754   -0.07676   -0.04697
 47 Ni    0.04370   -0.18432   -0.00367
 48 Cr    0.24582    0.02523   -0.31776
 49 Fe    0.09437    0.08753    0.04293
 50 Cr   -0.28457    0.10425   -0.06534
 51 Ni    0.08969    0.06174    0.05755
 52 Fe    0.15122   -0.13126    0.01592
 53 Cr   -0.25059   -0.25121   -0.36445
 54 Fe    0.11031    0.18174   -0.17637
 55 Cr    0.07161    0.19082    0.03315
 56 Fe    0.10303   -0.21170   -0.31946
 57 Cr    0.13424   -0.11561   -0.27743
 58 Ni    0.05688   -0.09551   -0.23416
 59 Ni    0.02806   -0.22664   -0.23306
 60 Co    0.07306    0.10788   -0.00074
 61 Cr   -0.39378    0.09608    0.01688
 62 Co   -0.01526   -0.04209    0.00897
 63 Cr    0.04343    0.17766   -0.13077
 64 Ni   -0.08292    0.06164   -0.17070
 65 Fe   -0.10535   -0.17400   -0.10061
 66 Co   -0.02704   -0.02833   -0.04171
 67 Fe    0.23927    0.11608   -0.32487
 68 Cr   -0.09252   -0.19141    0.02860
 69 Cr    0.06773    0.11775   -0.06176
 70 Cr   -0.11097    0.10795    0.28115
 71 Cr   -0.10767   -0.09523    0.12104
 72 Cr    0.26697   -0.01645    0.14805
 73 Co    0.05671    0.11974   -0.11703
 74 Fe   -0.13230   -0.01333    0.04082
 75 Fe    0.14475   -0.27816   -0.06820
 76 Ni   -0.08877   -0.13253   -0.10674
 77 Fe   -0.05264   -0.26717   -0.12377
 78 Ni   -0.06352   -0.00484   -0.19419
 79 Fe   -0.00957   -0.22804    0.01429
 80 Fe   -0.04991   -0.12025    0.26135
 81 Fe    0.33079    0.38168    0.19683
 82 Fe   -0.18902    0.38267    0.09134
 83 Fe   -0.11221   -0.02338    0.18012
 84 Ni    0.06948   -0.10367    0.02716
 85 Ni    0.12549    0.22819    0.12498
 86 Co   -0.08187   -0.05080   -0.10824
 87 Ni   -0.00329    0.05815   -0.35928
 88 Fe    0.03717   -0.03190    0.03039
 89 Fe   -0.21144    0.06836   -0.02361
 90 Fe    0.20175   -0.05667    0.19385
 91 Ni    0.06344    0.10897   -0.30480
 92 Fe   -0.22828    0.38363    0.03127
 93 Ni    0.00489    0.11478    0.06034
 94 Fe   -0.08771    0.29465   -0.21487
 95 Co   -0.02002   -0.08514   -0.10986
 96 Co   -0.09675   -0.15266   -0.13153
 97 Ni   -0.04888   -0.04929   -0.01305
 98 Ni    0.18518   -0.00534    0.02403
 99 Cr    0.00445    0.07855   -0.39442
100 Ni   -0.01398    0.08225    0.19066
101 Fe   -0.00117   -0.04660    0.26854
102 Co    0.18836   -0.08898   -0.03433
103 Fe   -0.05892   -0.18568    0.28388
104 Ni    0.03020    0.15423    0.32391
105 Co   -0.25886    0.05794    0.02350
106 Ni    0.02547    0.00060    0.18027
107 Fe   -0.24494    0.11135    0.67800
108 Co    0.28764    0.01951   -0.02082
109 Ni    0.01902    0.11323    0.19751
110 Cr    0.14683   -0.17716    0.44967
111 Ni   -0.23274   -0.06469    0.13163
112 Cr   -0.20524   -0.87029    0.21640
113 Co    0.07731   -0.07421   -0.17889
114 Co   -0.23641   -0.05489   -0.26779
115 Co   -0.08289    0.15444   -0.31823
116 Cr    0.03614   -0.10472    0.36939
117 Cr    0.67128    0.74641    0.48950
118 Ni    0.02006    0.01903    0.33895
119 Fe   -0.17198    0.06529    0.14814
120 Ni   -0.05538    0.11445    0.12876
121 Ni    0.09600    0.18025    0.20383
122 Co    0.06154   -0.00954    0.20111
123 Co   -0.19886    0.02185   -0.10177
124 Cr    0.14336   -0.33852    0.52342

Timing:                              incl.     excl.
-----------------------------------------------------------
Forces:                             66.111    66.111   0.2% |
Hamiltonian:                         2.147     0.017   0.0% |
 Atomic:                             0.403     0.001   0.0% |
  XC Correction:                     0.401     0.401   0.0% |
 Calculate atomic Hamiltonians:      1.053     1.053   0.0% |
 Communicate:                        0.108     0.108   0.0% |
 Initialize Hamiltonian:             0.001     0.001   0.0% |
 Poisson:                            0.135     0.135   0.0% |
 XC 3D grid:                         0.431     0.431   0.0% |
LCAO initialization:               367.303     0.443   0.0% |
 LCAO eigensolver:                  21.703     0.014   0.0% |
  Calculate projections:             0.000     0.000   0.0% |
  DenseAtomicCorrection:             0.000     0.000   0.0% |
  Distribute overlap matrix:        14.562    14.562   0.1% |
  Orbital Layouts:                   7.091     7.091   0.0% |
  Potential matrix:                  0.004     0.004   0.0% |
  Sum over cells:                    0.032     0.032   0.0% |
 LCAO to grid:                     342.098   342.098   1.2% |
 Set positions (LCAO WFS):           3.059     2.748   0.0% |
  Basic WFS set positions:           0.004     0.004   0.0% |
  Basis functions set positions:     0.001     0.001   0.0% |
  P tci:                             0.000     0.000   0.0% |
  ST tci:                            0.120     0.120   0.0% |
  mktci:                             0.186     0.186   0.0% |
PWDescriptor:                        0.105     0.105   0.0% |
SCF-cycle:                       27585.946     1.600   0.0% |
 Davidson:                       26602.609  7770.937  27.7% |----------|
  Apply H:                         498.499   492.056   1.8% ||
   HMM T:                            6.443     6.443   0.0% |
  Subspace diag:                  2686.654     0.054   0.0% |
   calc_h_matrix:                 1144.531   689.013   2.5% ||
    Apply H:                       455.518   448.966   1.6% ||
     HMM T:                          6.551     6.551   0.0% |
   diagonalize:                    228.678   228.678   0.8% |
   rotate_psi:                    1313.390  1313.390   4.7% |-|
  calc. matrices:                 6246.460  5388.367  19.2% |-------|
   Apply H:                        858.093   845.436   3.0% ||
    HMM T:                          12.656    12.656   0.0% |
  diagonalize:                    6613.328  6613.328  23.6% |--------|
  rotate_psi:                     2786.731  2786.731   9.9% |---|
 Density:                          537.981     0.005   0.0% |
  Atomic density matrices:           4.757     4.757   0.0% |
  Mix:                             318.172   318.172   1.1% |
  Multipole moments:                 0.125     0.125   0.0% |
  Pseudo density:                  214.924   214.917   0.8% |
   Symmetrize density:               0.007     0.007   0.0% |
 Hamiltonian:                      420.117     1.877   0.0% |
  Atomic:                           53.063     0.247   0.0% |
   XC Correction:                   52.816    52.816   0.2% |
  Calculate atomic Hamiltonians:   289.205   289.205   1.0% |
  Communicate:                      17.466    17.466   0.1% |
  Poisson:                           6.651     6.651   0.0% |
  XC 3D grid:                       51.856    51.856   0.2% |
 Orthonormalize:                    23.639     0.001   0.0% |
  calc_s_matrix:                     2.907     2.907   0.0% |
  inverse-cholesky:                  1.138     1.138   0.0% |
  projections:                      14.462    14.462   0.1% |
  rotate_psi_s:                      5.131     5.131   0.0% |
Set symmetry:                        0.001     0.001   0.0% |
Other:                               9.219     9.219   0.0% |
-----------------------------------------------------------
Total:                                     28030.833 100.0%

Date: Thu Apr 20 09:45:38 2023
