
  ___ ___ ___ _ _ _  
 |   |   |_  | | | | 
 | | | | | . | | | | 
 |__ |  _|___|_____|  22.8.0
 |___|_|             

User:   c.zeng@d0037
Date:   Wed Apr 19 11:56:50 2023
Arch:   x86_64
Pid:    119845
CWD:    /home/c.zeng/projects/hea-corrosion/hea-mlp/data-curation/surface-mcmc/dft-jobs/196
Python: 3.8.1
gpaw:   /home/c.zeng/usr/installs/gpaw/source/gpaw-22.8.0/gpaw
_gpaw:  /home/c.zeng/usr/installs/gpaw/source/gpaw-22.8.0/
        _gpaw.cpython-38-x86_64-linux-gnu.so
ase:    /home/c.zeng/.local/lib/python3.8/site-packages/ase-3.22.1-py3.8.egg/ase (version 3.22.1)
numpy:  /home/c.zeng/.local/lib/python3.8/site-packages/numpy (version 1.24.2)
scipy:  /home/c.zeng/.local/lib/python3.8/site-packages/scipy (version 1.10.1)
libxc:  4.2.3
units:  Angstrom and eV
cores: 30
OpenMP: False
OMP_NUM_THREADS: 1

Input parameters:
  convergence: {energy: 0.0001}
  kpts: [2 2 1]
  maxiter: 666
  mode: {ecut: 350.0,
         name: pw}
  occupations: {fixmagmom: False,
                name: fermi-dirac,
                width: 0.1}
  poissonsolver: {dipolelayer: xy}
  spinpol: True
  symmetry: {point_group: False}
  xc: PBE

System changes: positions, numbers, cell, pbc, initial_charges, initial_magmoms 

Initialize ...

species:
  Ni:
    name: Nickel
    id: 0d9f38a9d6e76a2886f07bb4381f212b
    Z: 28.0
    valence: 16
    core: 12
    charge: 0.0
    file: /home/c.zeng/usr/data/gpaw-setups-0.9.20000/Ni.PBE.gz
    compensation charges: {type: gauss,
                           rc: 0.36,
                           lmax: 2}
    cutoffs: {filter: 2.14,
              core: 1.98}
    valence states:
      #              energy  rcut
      - 4s(2.00)    -5.642   1.164
      - 3p(6.00)   -71.394   1.207
      - 4p(0.00)    -1.226   1.207
      - 3d(8.00)    -8.875   1.138
      -  s          21.570   1.164
      -  d          18.337   1.138
  
    # Using partial waves for Ni as LCAO basis

  Cr:
    name: Chromium
    id: 33f258bda2ca9f93018e70263a35547b
    Z: 24.0
    valence: 6
    core: 18
    charge: 0.0
    file: /home/c.zeng/usr/data/gpaw-setups-0.9.20000/Cr.PBE.gz
    compensation charges: {type: gauss,
                           rc: 0.35,
                           lmax: 2}
    cutoffs: {filter: 2.14,
              core: 3.04}
    valence states:
      #              energy  rcut
      - 4s(1.00)    -4.007   1.164
      - 4p(0.00)    -0.989   1.217
      - 3d(5.00)    -2.913   1.111
      -  s          23.205   1.164
      -  p          26.223   1.217
      -  d          24.299   1.111
  
    # Using partial waves for Cr as LCAO basis

  Fe:
    name: Iron
    id: 37abbd8d6c3c35915a9b583b742da910
    Z: 26.0
    valence: 8
    core: 18
    charge: 0.0
    file: /home/c.zeng/usr/data/gpaw-setups-0.9.20000/Fe.PBE.gz
    compensation charges: {type: gauss,
                           rc: 0.33,
                           lmax: 2}
    cutoffs: {filter: 2.06,
              core: 2.67}
    valence states:
      #              energy  rcut
      - 4s(2.00)    -5.291   1.164
      - 4p(0.00)    -1.326   1.058
      - 3d(6.00)    -7.505   1.058
      -  s          21.920   1.164
      -  p          25.885   1.058
      -  d          19.706   1.058
  
    # Using partial waves for Fe as LCAO basis

  Al:
    name: Aluminium
    id: 0292cae29f5d6237e50f6abdd43a7bdd
    Z: 13.0
    valence: 3
    core: 10
    charge: 0.0
    file: /home/c.zeng/usr/data/gpaw-setups-0.9.20000/Al.PBE.gz
    compensation charges: {type: gauss,
                           rc: 0.34,
                           lmax: 2}
    cutoffs: {filter: 1.91,
              core: 2.36}
    valence states:
      #              energy  rcut
      - 3s(2.00)    -7.753   1.085
      - 3p(1.00)    -2.712   1.085
      -  s          19.459   1.085
      -  p          24.499   1.085
      -  d           0.000   1.085
  
    # Using partial waves for Al as LCAO basis

  Co:
    name: Cobalt
    id: 339d20d5b0b93d2de9531a1bee871d91
    Z: 27.0
    valence: 9
    core: 18
    charge: 0.0
    file: /home/c.zeng/usr/data/gpaw-setups-0.9.20000/Co.PBE.gz
    compensation charges: {type: gauss,
                           rc: 0.32,
                           lmax: 2}
    cutoffs: {filter: 1.87,
              core: 2.55}
    valence states:
      #              energy  rcut
      - 4s(2.00)    -5.469   1.005
      - 4p(0.00)    -1.277   1.058
      - 3d(7.00)    -8.205   1.005
      -  s          21.742   1.005
      -  p          25.934   1.058
      -  d          19.007   1.005
  
    # Using partial waves for Co as LCAO basis

Reference energy: -3927717.499734  # eV

Spin-polarized calculation.
Magnetic moment: 149.100000

Convergence criteria:
 Maximum [total energy] change in last 3 cyles: 0.0001 eV / electron
 Maximum integral of absolute [dens]ity change: 0.0001 electrons / valence electron
 Maximum integral of absolute [eigenst]ate change: 4e-08 eV^2 / valence electron
 Maximum number of scf [iter]ations: 666
 (Square brackets indicate name in SCF output, whereas a 'c' in
 the SCF output indicates the quantity has converged.)

Symmetries present (total): 1

  ( 1  0  0)
  ( 0  1  0)
  ( 0  0  1)

4 k-points: 2 x 2 x 1 Monkhorst-Pack grid
2 k-points in the irreducible part of the Brillouin zone
       k-points in crystal coordinates                weights
   0:     0.25000000   -0.25000000    0.00000000          2/4
   1:     0.25000000    0.25000000    0.00000000          2/4

Wave functions: Plane wave expansion
  Cutoff energy: 350.000 eV
  Number of coefficients (min, max): 60143, 60161
  Pulay-stress correction: 0.000000 eV/Ang^3 (de/decut=0.000000)
  Using FFTW library
  ScaLapack parameters: grid=1x1, blocksize=None
  Wavefunction extrapolation:
    Improved wavefunction reuse through dual PAW basis 

Occupation numbers: Fermi-Dirac:
  width: 0.1000  # eV
 

Eigensolver
   Davidson(niter=2) 

Densities:
  Coarse grid: 56*56*128 grid
  Fine grid: 112*112*256 grid
  Total Charge: 0.000000 

Density mixing:
  Method: difference
  Backend: pulay
  Linear mixing parameter: 0.05
  old densities: 5
  Damping of long wavelength oscillations: 50 

Hamiltonian:
  XC and Coulomb potentials evaluated on a 112*112*256 grid
  Using the PBE Exchange-Correlation functional
  External potential:
    NoExternalPotential
 

XC parameters: PBE with 2 nearest neighbor stencil

Memory estimate:
  Process memory now: 382.89 MiB
  Calculator: 2209.57 MiB
    Density: 18.91 MiB
      Arrays: 7.39 MiB
      Localized functions: 8.57 MiB
      Mixer: 2.95 MiB
    Hamiltonian: 5.75 MiB
      Arrays: 5.49 MiB
      XC: 0.00 MiB
      Poisson: 0.00 MiB
      vbar: 0.26 MiB
    Wavefunctions: 2184.92 MiB
      Arrays psit_nG: 1382.48 MiB
      Eigensolver: 782.37 MiB
      Projections: 3.31 MiB
      Projectors: 1.16 MiB
      PW-descriptor: 15.59 MiB

Total number of cores used: 30
Parallelization over k-points: 2
Domain decomposition: 1 x 3 x 5

Number of atoms: 125
Number of atomic orbitals: 1116
Number of bands in calculation: 753
Number of valence electrons: 1098
Bands to converge: occupied

... initialized

Initializing position-dependent things.

Density initialized from atomic densities
Creating initial wave functions:
  753 bands from LCAO basis set

                                                               
                                                               
                                                               
                                                               
                          Ni          Ni     Ni    Co          
                            Ni    Co    Cr    Co    Fe         
                                                               
                       Al    CFe   FFe   CCr   NCr   Cr        
                   Fe   CNi    Al    Co    Fe    Cr            
        Fe                       Cr                            
               Ni   FAl  CFCr  CCo   FNi    Cr    Ni           
          Ni    Fe   FAl   NCo   CCr   NNi   Cr                
           Ni    Co    Ni Fe  FeCo  Co       Al   Fe           
                Al    Co    ACo   FAl   CNi   Co    Cr         
            Fe   AFe   ANi    Al    Co    Fe                   
        Fe    Co    Fe    Co Ni Co Cr    Ni    Ni    Co        
             Co    Al   CFe    Cr    Fe    Ni    Ni            
         Cr    Cr   CAl   AFe   CFe   Ni     Ni                
                Fe          Ni                                 
               Cr     Cr          Co    Co                     
           Cr    Cr    Fe    Al     Ni                         
                                                               
                                                               
                                                               
                                                               
                                                               

Positions:
   0 Ni    12.638410    1.500640   10.473714    ( 0.0000,  0.0000,  0.0000)
   1 Cr     2.522937    1.464200   10.500925    ( 0.0000,  0.0000,  0.0000)
   2 Cr     5.053910    1.499679   10.110352    ( 0.0000,  0.0000,  0.0000)
   3 Fe     7.557679    1.474012   10.651858    ( 0.0000,  0.0000,  2.0000)
   4 Al    10.063098    1.480808   10.510582    ( 0.0000,  0.0000,  0.0000)
   5 Co    13.876684    3.701125   10.575129    ( 0.0000,  0.0000,  2.1000)
   6 Cr     3.765065    3.676845   10.563946    ( 0.0000,  0.0000,  2.1000)
   7 Cr     6.296333    3.639618   10.618367    ( 0.0000,  0.0000,  1.5000)
   8 Ni     8.839996    3.605986   10.672787    ( 0.0000,  0.0000,  2.0000)
   9 Co    11.352953    3.684964   10.549299    ( 0.0000,  0.0000,  1.5000)
  10 Ni    15.161276    5.824565   10.498577    ( 0.0000,  0.0000,  1.5000)
  11 Co     5.025278    5.836147   10.574572    ( 0.0000,  0.0000,  1.5000)
  12 Al     7.581095    5.809082   10.450437    ( 0.0000,  0.0000,  0.0000)
  13 Cr    10.115365    5.826084   10.611674    ( 0.0000,  0.0000,  0.0000)
  14 Ni    12.590175    5.838835   10.516863    ( 0.0000,  0.0000,  0.0000)
  15 Ni    16.389239    7.986063   10.611380    ( 0.0000,  0.0000,  2.0000)
  16 Co     6.336726    8.007129   10.633278    ( 0.0000,  0.0000,  2.0000)
  17 Cr     8.860477    8.041112   10.593798    ( 0.0000,  0.0000,  2.0000)
  18 Cr    11.352548    8.028917   10.631722    ( 0.0000,  0.0000,  2.1000)
  19 Ni    13.851584    7.983364   10.505680    ( 0.0000,  0.0000,  2.0000)
  20 Co    17.745314   10.116747   10.074659    ( 0.0000,  0.0000,  0.0000)
  21 Ni     7.636083   10.176440   10.530337    ( 0.0000,  0.0000,  1.5000)
  22 Cr    10.089221   10.193890   10.552029    ( 0.0000,  0.0000,  2.1000)
  23 Ni    12.605039   10.182297   10.523703    ( 0.0000,  0.0000,  2.1000)
  24 Ni    15.064141   10.171206   10.358709    ( 0.0000,  0.0000,  0.0000)
  25 Fe     6.302566   10.804692   12.567941    ( 0.0000,  0.0000,  0.0000)
  26 Co     8.851494   10.898072   12.591335    ( 0.0000,  0.0000,  2.0000)
  27 Fe     5.076351    0.044825   12.536856    ( 0.0000,  0.0000,  0.0000)
  28 Al    13.909654   10.893450   12.608008    ( 0.0000,  0.0000,  1.5000)
  29 Fe    16.352727   10.867270   12.510966    ( 0.0000,  0.0000,  0.0000)
  30 Cr     1.347779    2.234477   12.606775    ( 0.0000,  0.0000,  0.0000)
  31 Cr     3.839937    2.209280   12.530604    ( 0.0000,  0.0000,  2.1000)
  32 Al     6.320342    2.230959   12.618927    ( 0.0000,  0.0000,  0.0000)
  33 Fe     8.782195    2.170075   12.671851    ( 0.0000,  0.0000,  0.0000)
  34 Fe    11.261675    2.259871   12.615258    ( 0.0000,  0.0000,  0.0000)
  35 Co     2.575110    4.392020   12.601990    ( 0.0000,  0.0000,  1.5000)
  36 Al     5.033696    4.384579   12.606305    ( 0.0000,  0.0000,  2.1000)
  37 Fe     7.564379    4.363294   12.629230    ( 0.0000,  0.0000,  2.0000)
  38 Cr    10.052143    4.418954   12.638359    ( 0.0000,  0.0000,  2.0000)
  39 Fe    12.588573    4.408563   12.597529    ( 0.0000,  0.0000,  2.0000)
  40 Al     3.825223    6.539248   12.601110    ( 0.0000,  0.0000,  0.0000)
  41 Al     6.285427    6.556719   12.584144    ( 0.0000,  0.0000,  0.0000)
  42 Cr     8.820218    6.557845   12.561307    ( 0.0000,  0.0000,  2.0000)
  43 Al    11.348710    6.570170   12.593977    ( 0.0000,  0.0000,  2.0000)
  44 Fe    13.909132    6.548655   12.525790    ( 0.0000,  0.0000,  0.0000)
  45 Cr    17.626555    8.699096   12.604162    ( 0.0000,  0.0000,  0.0000)
  46 Al     7.618200    8.725899   12.612235    ( 0.0000,  0.0000,  1.5000)
  47 Fe    10.087472    8.739109   12.626412    ( 0.0000,  0.0000,  1.5000)
  48 Cr    12.639844    8.757204   12.602842    ( 0.0000,  0.0000,  2.1000)
  49 Co    15.116728    8.758580   12.586668    ( 0.0000,  0.0000,  0.0000)
  50 Fe     1.234973    0.732950   14.688585    ( 0.0000,  0.0000,  2.1000)
  51 Co     3.756660    0.776875   14.661198    ( 0.0000,  0.0000,  2.0000)
  52 Fe     6.353364    0.739044   14.685297    ( 0.0000,  0.0000,  2.0000)
  53 Co     8.843197    0.707504   14.667421    ( 0.0000,  0.0000,  1.5000)
  54 Co    11.308149    0.724265   14.667803    ( 0.0000,  0.0000,  2.1000)
  55 Fe     2.562577    2.918904   14.681980    ( 0.0000,  0.0000,  0.0000)
  56 Fe     5.047514    2.876224   14.673262    ( 0.0000,  0.0000,  2.0000)
  57 Ni     7.587094    2.887588   14.717057    ( 0.0000,  0.0000,  2.1000)
  58 Al    10.059655    2.923122   14.721842    ( 0.0000,  0.0000,  2.1000)
  59 Co    12.581173    2.902022   14.699768    ( 0.0000,  0.0000,  2.0000)
  60 Al     3.748435    5.096399   14.714592    ( 0.0000,  0.0000,  2.0000)
  61 Co     6.262723    5.033089   14.723016    ( 0.0000,  0.0000,  0.0000)
  62 Co     8.857244    5.082347   14.703790    ( 0.0000,  0.0000,  1.5000)
  63 Al    11.325799    5.051271   14.695776    ( 0.0000,  0.0000,  0.0000)
  64 Ni    13.876183    5.054495   14.660318    ( 0.0000,  0.0000,  2.1000)
  65 Fe     5.052567    7.279870   14.704259    ( 0.0000,  0.0000,  2.0000)
  66 Ni     7.623886    7.324091   14.709690    ( 0.0000,  0.0000,  0.0000)
  67 Co    10.091768    7.250248   14.682744    ( 0.0000,  0.0000,  1.5000)
  68 Ni    12.609710    7.231017   14.738808    ( 0.0000,  0.0000,  0.0000)
  69 Cr    15.165859    7.289737   14.678898    ( 0.0000,  0.0000,  0.0000)
  70 Cr     6.290924    9.483294   14.711891    ( 0.0000,  0.0000,  0.0000)
  71 Cr     8.799610    9.526006   14.705668    ( 0.0000,  0.0000,  2.0000)
  72 Fe    11.328536    9.524116   14.771390    ( 0.0000,  0.0000,  0.0000)
  73 Ni    13.905777    9.475951   14.693692    ( 0.0000,  0.0000,  2.0000)
  74 Ni    16.402593    9.490986   14.643939    ( 0.0000,  0.0000,  1.5000)
  75 Co    12.559989    1.424700   16.738106    ( 0.0000,  0.0000,  0.0000)
  76 Ni     2.519368    1.415325   16.732030    ( 0.0000,  0.0000,  2.1000)
  77 Co     5.058418    1.426623   16.724633    ( 0.0000,  0.0000,  2.1000)
  78 Ni     7.588593    1.431310   16.719262    ( 0.0000,  0.0000,  1.5000)
  79 Fe    10.080282    1.446990   16.712775    ( 0.0000,  0.0000,  2.1000)
  80 Ni    13.906517    3.636537   16.770219    ( 0.0000,  0.0000,  0.0000)
  81 Fe     3.830827    3.632472   16.750288    ( 0.0000,  0.0000,  2.1000)
  82 Al     6.307138    3.580352   16.791881    ( 0.0000,  0.0000,  2.0000)
  83 Co     8.837036    3.649693   16.760356    ( 0.0000,  0.0000,  1.5000)
  84 Cr    11.316239    3.632713   16.757567    ( 0.0000,  0.0000,  0.0000)
  85 Cr    15.124416    5.819298   16.794875    ( 0.0000,  0.0000,  1.5000)
  86 Fe     5.069314    5.825133   16.817741    ( 0.0000,  0.0000,  2.0000)
  87 Fe     7.591000    5.828182   16.790531    ( 0.0000,  0.0000,  1.5000)
  88 Co    10.100423    5.832104   16.795022    ( 0.0000,  0.0000,  2.1000)
  89 Ni    12.591819    5.816097   16.796049    ( 0.0000,  0.0000,  1.5000)
  90 Cr    16.393148    8.022678   16.766491    ( 0.0000,  0.0000,  0.0000)
  91 Co     6.343718    8.036435   16.784337    ( 0.0000,  0.0000,  2.1000)
  92 Al     8.869407    8.031059   16.785541    ( 0.0000,  0.0000,  1.5000)
  93 Al    11.350811    8.006966   16.850353    ( 0.0000,  0.0000,  0.0000)
  94 Cr    13.848456    8.043231   16.790120    ( 0.0000,  0.0000,  1.5000)
  95 Cr    17.664975   10.214378   16.704673    ( 0.0000,  0.0000,  1.5000)
  96 Co     7.577805   10.200216   16.752871    ( 0.0000,  0.0000,  0.0000)
  97 Fe    10.073950   10.240525   16.814835    ( 0.0000,  0.0000,  0.0000)
  98 Co    12.634825   10.205702   16.792879    ( 0.0000,  0.0000,  2.1000)
  99 Ni    15.128204   10.222671   16.717207    ( 0.0000,  0.0000,  2.1000)
 100 Ni     6.295996   10.895646   18.725164    ( 0.0000,  0.0000,  2.1000)
 101 Ni     2.531103    0.010731   18.808028    ( 0.0000,  0.0000,  0.0000)
 102 Ni    11.354102   10.922176   18.789712    ( 0.0000,  0.0000,  2.0000)
 103 Ni    13.893055   10.918669   18.754371    ( 0.0000,  0.0000,  1.5000)
 104 Co    16.407321   10.902924   18.697866    ( 0.0000,  0.0000,  2.0000)
 105 Fe     1.242615    2.122916   18.813664    ( 0.0000,  0.0000,  0.0000)
 106 Ni     3.777583    2.163727   18.725751    ( 0.0000,  0.0000,  2.0000)
 107 Al     6.316494    2.112186   18.751024    ( 0.0000,  0.0000,  1.5000)
 108 Cr     8.821019    2.135678   18.724841    ( 0.0000,  0.0000,  1.5000)
 109 Cr    11.346910    2.127920   18.772482    ( 0.0000,  0.0000,  0.0000)
 110 Fe    15.041821    4.389824   19.217240    ( 0.0000,  0.0000,  0.0000)
 111 Fe     5.122707    4.340730   18.947661    ( 0.0000,  0.0000,  0.0000)
 112 Ni     7.593428    4.391189   18.757570    ( 0.0000,  0.0000,  0.0000)
 113 Al    10.074524    4.387147   18.958463    ( 0.0000,  0.0000,  0.0000)
 114 Co    12.568500    4.377597   18.792178    ( 0.0000,  0.0000,  2.1000)
 115 Cr    16.401190    6.592941   18.854788    ( 0.0000,  0.0000,  0.0000)
 116 Al     6.333626    6.597181   18.774830    ( 0.0000,  0.0000,  2.1000)
 117 Fe     8.832315    6.612293   18.776708    ( 0.0000,  0.0000,  2.0000)
 118 Fe    11.357713    6.592056   18.807559    ( 0.0000,  0.0000,  1.5000)
 119 Cr    13.843649    6.600634   18.766083    ( 0.0000,  0.0000,  2.1000)
 120 Fe    17.672908    8.762055   18.787393    ( 0.0000,  0.0000,  1.5000)
 121 Ni     7.589466    8.752057   18.793733    ( 0.0000,  0.0000,  0.0000)
 122 Co    10.105305    8.758351   18.804653    ( 0.0000,  0.0000,  2.1000)
 123 Cr    12.605169    8.778467   18.827842    ( 0.0000,  0.0000,  2.0000)
 124 Co    15.105383    8.773889   18.800925    ( 0.0000,  0.0000,  1.5000)

Unit cell:
           periodic     x           y           z      points  spacing
  1. axis:    yes   12.614700    0.000000    0.000000    56     0.1951
  2. axis:    yes    6.308550   10.926700    0.000000    56     0.1951
  3. axis:    no     0.000000    0.000000   29.353100   128     0.2293

  Lengths:  12.614700  12.617075  29.353100
  Angles:   90.000000  90.000000  59.999934

Effective grid spacing dv^(1/3) = 0.2160

     iter     time        total  log10-change:  magmom
                         energy  eigst   dens
iter:   1 12:03:02 -1070.568933                  +148.4720
iter:   2 12:05:04 -1948.521176  +0.49  -1.14    +107.2123
iter:   3 12:07:06 -1785.517250  +0.98  -0.79    +75.7555
iter:   4 12:09:08 -1110.044237  -0.27  -0.82    +50.2010
iter:   5 12:11:10  -993.402397  -1.18  -1.15    +38.3376
iter:   6 12:13:12  -975.995786  -1.66  -1.27    +30.8974
iter:   7 12:15:14  -963.111134  -1.77  -1.29    +29.2928
iter:   8 12:17:16 -1516.372415  -0.24  -1.31    +30.4094
iter:   9 12:19:18 -1057.856251  -0.43  -0.87    +28.4454
iter:  10 12:21:20  -947.858626  -1.43  -1.11    +26.4328
iter:  11 12:23:22  -925.816361  -1.88  -1.37    +28.2827
iter:  12 12:25:25  -930.014290  -1.70  -1.47    +28.9312
iter:  13 12:27:26  -930.941784  -1.77  -1.43    +30.0582
iter:  14 12:29:28  -925.971309  -1.51  -1.45    +31.4326
iter:  15 12:31:30  -965.518599  -1.52  -1.50    +33.1563
iter:  16 12:33:33 -1236.962019  -0.89  -1.31    +34.6912
iter:  17 12:35:35  -926.259422  -1.15  -0.97    +32.2399
iter:  18 12:37:37  -925.305772  -1.91  -1.58    +32.2614
iter:  19 12:39:39  -921.661276  -2.43  -1.58    +34.5471
iter:  20 12:41:41  -919.207282  -2.58  -1.63    +36.5199
iter:  21 12:43:43  -919.864506  -2.31  -1.67    +39.4859
iter:  22 12:45:45 -1375.977687  -0.84  -1.65    +40.8248
iter:  23 12:47:47  -936.095570  -0.96  -0.92    +40.4423
iter:  24 12:49:49  -919.163693  -2.04  -1.48    +40.2523
iter:  25 12:51:51  -920.385249  -2.43  -1.73    +44.1179
iter:  26 12:53:53  -921.625296  -2.70  -1.73    +46.1225
iter:  27 12:55:55  -920.041951  -3.07  -1.69    +48.1262
iter:  28 12:57:58 -1045.606276  -1.38  -1.74    +52.3152
iter:  29 13:00:00  -919.095333  -1.59  -1.15    +48.7582
iter:  30 13:02:02  -928.532316  -2.24  -1.80    +49.1199
iter:  31 13:04:04  -918.205545  -2.48  -1.61    +51.8935
iter:  32 13:06:06  -919.713120  -2.38  -1.90    +53.3886
iter:  33 13:08:08  -919.935298  -2.45  -1.90    +54.2176
iter:  34 13:10:10  -918.362224  -2.35  -1.88    +55.3461
iter:  35 13:12:13  -920.375406  -2.54  -2.05    +55.7709
iter:  36 13:14:15  -917.829795  -2.92  -1.97    +57.1183
iter:  37 13:16:17  -919.230748  -2.84  -2.27    +58.6965
iter:  38 13:18:19  -917.970532  -3.02  -2.09    +59.0608
iter:  39 13:20:21  -918.098841  -3.14  -2.29    +60.6597
iter:  40 13:22:24  -918.069934  -3.62  -2.30    +61.3719
iter:  41 13:24:25  -918.448892  -3.39  -2.40    +62.9106
iter:  42 13:26:27  -918.605849  -3.39  -2.36    +64.2472
iter:  43 13:28:29  -919.262644  -3.26  -2.45    +65.7636
iter:  44 13:30:31  -918.943156  -3.92  -2.29    +65.6298
iter:  45 13:32:33  -918.927526  -3.51  -2.44    +66.3382
iter:  46 13:34:35  -919.243521  -3.59  -2.63    +66.7628
iter:  47 13:36:38  -919.181660  -3.69  -2.51    +67.3685
iter:  48 13:38:39  -919.487037  -3.57  -2.62    +68.0829
iter:  49 13:40:42  -919.424004  -4.15  -2.52    +68.0346
iter:  50 13:42:44  -919.807264  -3.70  -2.56    +68.7533
iter:  51 13:44:45  -919.288099  -3.60  -2.45    +67.9466
iter:  52 13:46:48  -919.940833  -3.69  -2.68    +68.5042
iter:  53 13:48:50  -919.632653  -3.62  -2.33    +68.7580
iter:  54 13:50:52  -920.202448  -3.51  -2.57    +69.4506
iter:  55 13:52:54  -920.128362  -4.04  -2.45    +69.4995
iter:  56 13:54:56  -920.168428c -3.43  -2.42    +69.3767
iter:  57 13:56:58  -920.532507  -3.09  -2.47    +69.4600
iter:  58 13:59:00  -925.607681  -2.73  -2.27    +69.5240
iter:  59 14:01:03  -924.684210  -2.28  -1.84    +69.3840
iter:  60 14:03:05  -920.076822  -2.63  -1.89    +67.7582
iter:  61 14:05:06  -920.784178  -2.94  -2.35    +67.4101
iter:  62 14:07:09  -919.716005  -3.50  -2.21    +67.3540
iter:  63 14:09:11  -919.775069  -3.85  -2.61    +67.1346
iter:  64 14:11:14  -919.830139  -3.77  -2.66    +66.9695
iter:  65 14:13:16  -919.884835c -4.14  -2.73    +66.9425
iter:  66 14:15:18  -919.975416  -3.99  -2.69    +66.9127
iter:  67 14:17:20  -920.488988  -3.60  -2.65    +66.9192
iter:  68 14:19:21  -920.120133  -3.99  -2.30    +66.8267
iter:  69 14:21:23  -920.010360  -3.98  -2.52    +66.5586
iter:  70 14:23:25  -919.977905  -4.14  -2.68    +66.5549
iter:  71 14:25:28  -919.970902c -4.49  -2.82    +66.5329
iter:  72 14:27:30  -919.995426c -4.31  -2.96    +66.4870
iter:  73 14:29:32  -919.991940c -4.92  -3.04    +66.4731
iter:  74 14:31:34  -920.014215c -4.59  -3.03    +66.5042
iter:  75 14:33:36  -920.010219c -5.00  -3.11    +66.5113
iter:  76 14:35:38  -920.130022  -4.27  -3.19    +66.4720
iter:  77 14:37:40  -920.022968  -4.69  -2.77    +66.4298
iter:  78 14:39:43  -920.057364c -4.46  -3.16    +66.5142
iter:  79 14:41:45  -920.064461c -4.58  -2.98    +66.5053
iter:  80 14:43:48  -920.070626c -5.03  -3.21    +66.4988
iter:  81 14:45:50  -920.105349c -4.56  -3.20    +66.5114
iter:  82 14:47:52  -920.126129c -5.03  -3.19    +66.5059
iter:  83 14:49:54  -920.136706c -4.61  -3.05    +66.5185
iter:  84 14:51:57  -920.170034c -4.36  -3.00    +66.5260
iter:  85 14:54:00  -920.192330c -4.55  -3.03    +66.5202
iter:  86 14:56:03  -920.248885c -4.33  -2.99    +66.4153
iter:  87 14:58:06  -920.427675  -3.86  -2.95    +66.5608
iter:  88 15:00:09  -920.346839  -3.78  -2.48    +66.3495
iter:  89 15:02:11  -920.368921c -4.14  -2.76    +66.3523
iter:  90 15:04:14  -920.380112c -3.87  -2.69    +66.3059
iter:  91 15:06:17  -920.845654  -3.46  -2.83    +66.2113
iter:  92 15:08:21  -920.374889  -3.80  -2.37    +66.3039
iter:  93 15:10:24  -923.628340  -2.94  -2.78    +66.2698
iter:  94 15:12:27  -920.601759  -3.04  -1.96    +66.1914
iter:  95 15:14:31  -920.950777  -2.99  -2.48    +66.1553
iter:  96 15:16:35  -920.213627  -3.58  -2.31    +66.3479
iter:  97 15:18:38  -920.342770  -3.86  -2.86    +66.5050
iter:  98 15:20:42  -920.231933  -4.15  -2.65    +66.5192
iter:  99 15:22:46  -920.255140  -4.13  -2.81    +66.7593
iter: 100 15:24:49  -920.329026c -4.01  -2.98    +67.0207
iter: 101 15:26:52  -920.265586c -4.44  -3.00    +66.7755
iter: 102 15:28:56  -920.275793c -4.62  -3.02    +66.8357
iter: 103 15:30:59  -920.288493c -4.85  -2.99    +66.8976
iter: 104 15:33:03  -920.307166c -4.66  -2.95    +66.9232
iter: 105 15:35:07  -920.289830c -5.01  -2.93    +66.9817
iter: 106 15:37:10  -920.303252c -4.45  -3.10    +67.0621
iter: 107 15:39:14  -920.309746c -4.49  -3.13    +67.0406
iter: 108 15:41:17  -920.348953c -4.33  -3.11    +67.0495
iter: 109 15:43:21  -920.317554c -4.59  -2.86    +67.1823
iter: 110 15:45:24  -920.499074  -4.09  -3.13    +67.2411
iter: 111 15:47:28  -920.314752  -4.46  -2.58    +67.2904
iter: 112 15:49:31  -920.321670  -4.98  -3.31    +67.3802
iter: 113 15:51:35  -920.327603c -5.42  -3.32    +67.3742
iter: 114 15:53:38  -920.320916c -5.29  -3.29    +67.3808
iter: 115 15:55:41  -920.352523c -4.51  -3.34    +67.4127
iter: 116 15:57:45  -920.335871c -4.40  -3.20    +67.3551
iter: 117 15:59:49  -920.345811c -4.51  -3.03    +67.4236
iter: 118 16:01:52  -920.360547c -5.05  -3.25    +67.4661
iter: 119 16:03:56  -920.367097c -5.18  -3.08    +67.5091
iter: 120 16:05:59  -920.363472c -5.08  -3.12    +67.6040
iter: 121 16:08:03  -920.457284c -4.40  -3.11    +67.6095
iter: 122 16:10:06  -920.381157c -4.63  -2.70    +67.6473
iter: 123 16:12:09  -920.739545  -3.73  -3.07    +67.6951
iter: 124 16:14:12  -920.354748  -3.91  -2.43    +67.6722
iter: 125 16:16:16  -920.362517  -4.37  -3.02    +67.6443
iter: 126 16:18:19  -920.366409c -4.39  -3.11    +67.5560
iter: 127 16:20:23  -920.424920c -4.34  -3.08    +67.4734
iter: 128 16:22:26  -920.358933c -4.58  -2.80    +67.4308
iter: 129 16:24:29  -920.364149c -4.88  -3.23    +67.3197
iter: 130 16:26:32  -920.368477c -4.67  -3.20    +67.2185
iter: 131 16:28:36  -920.364685c -5.53  -3.21    +67.2728
iter: 132 16:30:39  -920.442541c -3.77  -3.27    +66.9012
iter: 133 16:32:43  -920.398804c -3.50  -2.93    +67.5277
iter: 134 16:34:46  -920.352253c -4.57  -2.88    +67.4501
iter: 135 16:36:49  -920.363736c -5.03  -3.42    +67.4086
iter: 136 16:38:52  -920.356455c -5.54  -3.21    +67.3839
iter: 137 16:40:55  -920.359558c -5.47  -3.51    +67.3675
iter: 138 16:42:59  -920.361814c -5.45  -3.42    +67.3683
iter: 139 16:45:02  -920.366264c -5.21  -3.41    +67.3850
iter: 140 16:47:06  -920.371006c -5.60  -3.36    +67.3810
iter: 141 16:49:09  -920.367883c -5.13  -3.27    +67.4038
iter: 142 16:51:13  -920.373223c -5.11  -3.34    +67.4324
iter: 143 16:53:17  -920.367270c -5.07  -3.24    +67.4421
iter: 144 16:55:20  -920.396458c -4.60  -3.38    +67.4716
iter: 145 16:57:23  -920.367220c -5.08  -3.02    +67.4865
iter: 146 16:59:27  -920.368398c -5.42  -3.49    +67.4875
iter: 147 17:01:30  -920.369109c -5.61  -3.48    +67.4941
iter: 148 17:03:33  -920.369612c -5.50  -3.63    +67.5359
iter: 149 17:05:37  -920.370119c -5.72  -3.52    +67.5665
iter: 150 17:07:40  -920.378317c -5.21  -3.75    +67.5985
iter: 151 17:09:44  -920.369815c -5.69  -3.26    +67.6055
iter: 152 17:11:48  -920.370562c -6.00  -3.80    +67.6239
iter: 153 17:13:51  -920.371073c -5.90  -3.67    +67.6313
iter: 154 17:15:54  -920.372686c -5.50  -3.76    +67.6354
iter: 155 17:17:58  -920.371122c -5.76  -3.37    +67.6430
iter: 156 17:20:01  -920.371780c -6.02  -3.85    +67.6559
iter: 157 17:22:04  -920.370920c -6.44  -3.65    +67.6570
iter: 158 17:24:07  -920.371494c -6.28  -3.92    +67.6796
iter: 159 17:26:10  -920.371640c -6.35  -3.93    +67.6927
iter: 160 17:28:12  -920.372143c -6.27  -3.85    +67.7039
iter: 161 17:30:15  -920.372653c -6.09  -3.94    +67.7173
iter: 162 17:32:18  -920.371842c -6.12  -4.07c   +67.7247
iter: 163 17:34:21  -920.373402c -6.01  -3.91    +67.7305
iter: 164 17:36:24  -920.372555c -6.20  -3.54    +67.7405
iter: 165 17:38:27  -920.372472c -6.68  -4.19c   +67.7551
iter: 166 17:40:29  -920.372920c -6.30  -4.28c   +67.7860
iter: 167 17:42:32  -920.373846c -6.01  -4.23c   +67.8214
iter: 168 17:44:35  -920.372974c -6.29  -3.98    +67.7837
iter: 169 17:46:38  -920.374023c -6.19  -4.13c   +67.8015
iter: 170 17:48:48  -920.373790c -6.38  -3.61    +67.8035
iter: 171 17:51:38  -920.374139c -6.52  -4.05c   +67.8127
iter: 172 17:54:29  -920.373650c -6.20  -4.02c   +67.8322
iter: 173 17:57:19  -920.374186c -6.53  -4.08c   +67.8301
iter: 174 18:00:10  -920.374290c -6.04  -3.93    +67.8389
iter: 175 18:03:01  -920.376814c -5.76  -3.76    +67.8456
iter: 176 18:05:52  -920.373930c -6.08  -3.37    +67.8567
iter: 177 18:08:43  -920.374949c -6.24  -4.14c   +67.8643
iter: 178 18:11:34  -920.374469c -6.65  -3.95    +67.8676
iter: 179 18:14:26  -920.374409c -6.76  -4.12c   +67.8830
iter: 180 18:17:17  -920.374502c -6.72  -4.22c   +67.8979
iter: 181 18:20:09  -920.374684c -6.43  -4.21c   +67.9175
iter: 182 18:23:00  -920.374671c -7.14  -3.94    +67.9114
iter: 183 18:25:52  -920.375106c -7.00  -4.20c   +67.9238
iter: 184 18:28:43  -920.374634c -7.09  -4.11c   +67.9067
iter: 185 18:31:35  -920.374637c -7.32  -4.20c   +67.9082
iter: 186 18:34:26  -920.375768c -6.62  -4.17c   +67.9212
iter: 187 18:37:17  -920.375311c -6.39  -3.88    +67.9218
iter: 188 18:40:09  -920.375096c -6.63  -3.74    +67.9294
iter: 189 18:42:59  -920.375024c -6.88  -4.15c   +67.9459
iter: 190 18:45:50  -920.375404c -6.56  -4.17c   +67.9588
iter: 191 18:48:41  -920.374655c -6.78  -3.94    +67.9487
iter: 192 18:51:33  -920.377216c -6.02  -3.98    +67.9523
iter: 193 18:54:24  -920.376598c -5.99  -3.75    +67.9544
iter: 194 18:57:15  -920.375738c -6.26  -3.58    +67.9630
iter: 195 19:00:06  -920.375647c -6.68  -4.04c   +67.9782
iter: 196 19:02:58  -920.375926c -6.63  -3.98    +67.9865
iter: 197 19:05:49  -920.377129c -5.93  -4.04c   +67.9984
iter: 198 19:08:28  -920.382687c -5.65  -3.59    +68.0052
iter: 199 19:11:13  -920.376783c -5.50  -3.38    +68.0253
iter: 200 19:14:04  -920.377901c -5.56  -3.59    +68.0040
iter: 201 19:16:55  -920.376296c -5.55  -3.58    +67.9955
iter: 202 19:19:46  -920.375251c -6.07  -3.55    +67.9784
iter: 203 19:22:36  -920.375081c -6.54  -4.05c   +67.9753
iter: 204 19:25:28  -920.377155c -6.25  -4.39c   +67.9747
iter: 205 19:28:19  -920.375149c -6.39  -3.69    +67.9746
iter: 206 19:31:11  -920.375203c -6.75  -4.15c   +67.9768
iter: 207 19:34:02  -920.374967c -7.01  -4.30c   +67.9781
iter: 208 19:36:53  -920.376001c -6.33  -4.26c   +67.9782
iter: 209 19:39:44  -920.375178c -6.67  -3.77    +67.9785
iter: 210 19:42:36  -920.376265c -6.65  -4.32c   +67.9860
iter: 211 19:45:27  -920.375244c -7.08  -4.01c   +67.9824
iter: 212 19:48:18  -920.375296c -7.23  -4.47c   +67.9878
iter: 213 19:51:10  -920.375225c -7.48c -4.42c   +67.9848

Converged after 213 iterations.

Dipole moment: (54.356573, 43.031764, -0.012321) |e|*Ang

Total magnetic moment: (0.000000, 0.000000, 67.984770)
Local magnetic moments:
   0 Ni ( 0.000000,  0.000000,  0.399481)
   1 Cr ( 0.000000,  0.000000,  2.132529)
   2 Cr ( 0.000000,  0.000000, -2.692280)
   3 Fe ( 0.000000,  0.000000,  2.270397)
   4 Al ( 0.000000,  0.000000, -0.053531)
   5 Co ( 0.000000,  0.000000,  1.350107)
   6 Cr ( 0.000000,  0.000000, -1.779866)
   7 Cr ( 0.000000,  0.000000,  2.054986)
   8 Ni ( 0.000000,  0.000000,  0.190601)
   9 Co ( 0.000000,  0.000000,  1.417603)
  10 Ni ( 0.000000,  0.000000,  0.377087)
  11 Co ( 0.000000,  0.000000,  0.656925)
  12 Al ( 0.000000,  0.000000, -0.017867)
  13 Cr ( 0.000000,  0.000000, -1.913632)
  14 Ni ( 0.000000,  0.000000,  0.331023)
  15 Ni ( 0.000000,  0.000000,  0.203133)
  16 Co ( 0.000000,  0.000000,  0.601183)
  17 Cr ( 0.000000,  0.000000,  1.462868)
  18 Cr ( 0.000000,  0.000000,  1.868824)
  19 Ni ( 0.000000,  0.000000,  0.303072)
  20 Co ( 0.000000,  0.000000,  1.825857)
  21 Ni ( 0.000000,  0.000000,  0.254640)
  22 Cr ( 0.000000,  0.000000, -2.095191)
  23 Ni ( 0.000000,  0.000000,  0.053298)
  24 Ni ( 0.000000,  0.000000,  0.480585)
  25 Fe ( 0.000000,  0.000000,  2.427690)
  26 Co ( 0.000000,  0.000000,  0.972616)
  27 Fe ( 0.000000,  0.000000,  2.030114)
  28 Al ( 0.000000,  0.000000, -0.051494)
  29 Fe ( 0.000000,  0.000000,  2.378435)
  30 Cr ( 0.000000,  0.000000, -2.039809)
  31 Cr ( 0.000000,  0.000000,  0.408083)
  32 Al ( 0.000000,  0.000000, -0.043076)
  33 Fe ( 0.000000,  0.000000,  2.131652)
  34 Fe ( 0.000000,  0.000000,  2.347675)
  35 Co ( 0.000000,  0.000000,  0.574211)
  36 Al ( 0.000000,  0.000000, -0.024126)
  37 Fe ( 0.000000,  0.000000,  1.590754)
  38 Cr ( 0.000000,  0.000000,  0.318164)
  39 Fe ( 0.000000,  0.000000,  2.120624)
  40 Al ( 0.000000,  0.000000, -0.017800)
  41 Al ( 0.000000,  0.000000, -0.016814)
  42 Cr ( 0.000000,  0.000000,  0.067584)
  43 Al ( 0.000000,  0.000000, -0.010973)
  44 Fe ( 0.000000,  0.000000,  2.408760)
  45 Cr ( 0.000000,  0.000000, -1.594761)
  46 Al ( 0.000000,  0.000000, -0.018175)
  47 Fe ( 0.000000,  0.000000,  1.516997)
  48 Cr ( 0.000000,  0.000000, -1.966126)
  49 Co ( 0.000000,  0.000000,  0.929924)
  50 Fe ( 0.000000,  0.000000,  2.217482)
  51 Co ( 0.000000,  0.000000,  1.196685)
  52 Fe ( 0.000000,  0.000000,  2.396165)
  53 Co ( 0.000000,  0.000000,  1.366833)
  54 Co ( 0.000000,  0.000000,  1.233821)
  55 Fe ( 0.000000,  0.000000,  2.136199)
  56 Fe ( 0.000000,  0.000000,  2.024702)
  57 Ni ( 0.000000,  0.000000,  0.393191)
  58 Al ( 0.000000,  0.000000, -0.041279)
  59 Co ( 0.000000,  0.000000,  1.059637)
  60 Al ( 0.000000,  0.000000, -0.035590)
  61 Co ( 0.000000,  0.000000,  1.163700)
  62 Co ( 0.000000,  0.000000,  1.103946)
  63 Al ( 0.000000,  0.000000, -0.029898)
  64 Ni ( 0.000000,  0.000000,  0.191029)
  65 Fe ( 0.000000,  0.000000,  1.279040)
  66 Ni ( 0.000000,  0.000000,  0.047863)
  67 Co ( 0.000000,  0.000000,  0.844377)
  68 Ni ( 0.000000,  0.000000,  0.108319)
  69 Cr ( 0.000000,  0.000000, -1.826476)
  70 Cr ( 0.000000,  0.000000,  0.292200)
  71 Cr ( 0.000000,  0.000000, -1.530807)
  72 Fe ( 0.000000,  0.000000,  2.348184)
  73 Ni ( 0.000000,  0.000000,  0.238583)
  74 Ni ( 0.000000,  0.000000,  0.106653)
  75 Co ( 0.000000,  0.000000,  1.191537)
  76 Ni ( 0.000000,  0.000000,  0.525229)
  77 Co ( 0.000000,  0.000000,  1.289606)
  78 Ni ( 0.000000,  0.000000,  0.192687)
  79 Fe ( 0.000000,  0.000000,  2.018861)
  80 Ni ( 0.000000,  0.000000,  0.329434)
  81 Fe ( 0.000000,  0.000000,  2.358097)
  82 Al ( 0.000000,  0.000000, -0.051756)
  83 Co ( 0.000000,  0.000000,  0.942613)
  84 Cr ( 0.000000,  0.000000,  1.074593)
  85 Cr ( 0.000000,  0.000000,  1.195316)
  86 Fe ( 0.000000,  0.000000,  1.884477)
  87 Fe ( 0.000000,  0.000000,  2.246339)
  88 Co ( 0.000000,  0.000000,  1.034095)
  89 Ni ( 0.000000,  0.000000,  0.190090)
  90 Cr ( 0.000000,  0.000000, -1.165007)
  91 Co ( 0.000000,  0.000000,  0.673096)
  92 Al ( 0.000000,  0.000000, -0.042265)
  93 Al ( 0.000000,  0.000000, -0.036530)
  94 Cr ( 0.000000,  0.000000,  1.532877)
  95 Cr ( 0.000000,  0.000000, -0.602447)
  96 Co ( 0.000000,  0.000000,  1.148778)
  97 Fe ( 0.000000,  0.000000,  2.393782)
  98 Co ( 0.000000,  0.000000,  1.109434)
  99 Ni ( 0.000000,  0.000000,  0.288813)
 100 Ni ( 0.000000,  0.000000,  0.462576)
 101 Ni ( 0.000000,  0.000000,  0.585602)
 102 Ni ( 0.000000,  0.000000,  0.373966)
 103 Ni ( 0.000000,  0.000000,  0.250953)
 104 Co ( 0.000000,  0.000000,  1.198482)
 105 Fe ( 0.000000,  0.000000,  2.796296)
 106 Ni ( 0.000000,  0.000000,  0.472137)
 107 Al ( 0.000000,  0.000000, -0.021481)
 108 Cr ( 0.000000,  0.000000, -2.347676)
 109 Cr ( 0.000000,  0.000000, -2.149977)
 110 Fe ( 0.000000,  0.000000, -2.842405)
 111 Fe ( 0.000000,  0.000000,  2.549463)
 112 Ni ( 0.000000,  0.000000,  0.288480)
 113 Al ( 0.000000,  0.000000, -0.013466)
 114 Co ( 0.000000,  0.000000,  0.812419)
 115 Cr ( 0.000000,  0.000000, -2.121126)
 116 Al ( 0.000000,  0.000000, -0.056253)
 117 Fe ( 0.000000,  0.000000,  2.451715)
 118 Fe ( 0.000000,  0.000000,  2.319242)
 119 Cr ( 0.000000,  0.000000, -1.753597)
 120 Fe ( 0.000000,  0.000000,  2.442881)
 121 Ni ( 0.000000,  0.000000,  0.475878)
 122 Co ( 0.000000,  0.000000,  1.151176)
 123 Cr ( 0.000000,  0.000000, -2.378282)
 124 Co ( 0.000000,  0.000000,  1.027874)

Energy contributions relative to reference atoms: (reference = -3927717.499734)

Kinetic:       +378.384233
Potential:     -365.066181
External:        +0.000000
XC:            -969.223960
Entropy (-ST):   -5.276972
Local:          +38.169169
--------------------------
Free energy:   -923.013711
Extrapolated:  -920.375225

Dipole-layer corrected work functions: 4.835690, 4.851865 eV

Spin contamination: 40.278933 electrons
Showing all kpts
                      Up                     Down
 Kpt  Band  Eigenvalues  Occupancy  Eigenvalues  Occupancy
  0   547     -0.05154    0.99494      0.79893    0.03827
  0   548     -0.03395    0.99397      0.81382    0.03315
  0   549     -0.02264    0.99325      0.81855    0.03167
  0   550     -0.01330    0.99260      0.84363    0.02482

  1   547     -0.03811    0.99421      0.81135    0.03395
  1   548     -0.03028    0.99374      0.82554    0.02959
  1   549     -0.02755    0.99357      0.83703    0.02647
  1   550      0.00263    0.99133      0.84205    0.02521


Fermi level: 0.47653

No gap

Forces in eV/Ang:
  0 Ni   -0.27030   -0.32655    0.55591
  1 Cr   -0.16423    0.10376   -0.09368
  2 Cr    0.58140   -0.40857    0.75705
  3 Fe    0.00216   -0.57698   -0.77723
  4 Al    0.48011   -0.28762   -0.82996
  5 Co   -0.14711   -0.07244    0.43360
  6 Cr   -0.69030    0.30510   -0.17600
  7 Cr   -0.41986   -0.11432   -1.33362
  8 Ni   -0.12569    0.24882   -0.48284
  9 Co    0.44996   -0.02413    0.58154
 10 Ni   -0.20334    0.08787    0.33740
 11 Co    0.20445   -0.01074    0.22595
 12 Al   -0.48282   -0.12533   -1.13308
 13 Cr    0.04735   -0.45330   -0.94313
 14 Ni    0.20822   -0.13865    0.16029
 15 Ni    0.22211    0.43231   -0.30802
 16 Co   -0.38383    0.33195   -0.05591
 17 Cr   -0.05285   -0.25342   -0.53349
 18 Cr    0.82097    0.46254   -1.00566
 19 Ni    0.11603    0.27494    0.30053
 20 Co   -0.06991    0.04192    1.70454
 21 Ni   -0.92347    0.15334    0.00002
 22 Cr    0.31477   -0.14211    0.34736
 23 Ni    0.27405    0.01785   -0.06006
 24 Ni    0.55862    0.05941    0.75889
 25 Fe   -0.47721    1.17635   -0.71086
 26 Co    0.28902    0.33739    0.36577
 27 Fe   -0.71765   -0.35044   -0.07648
 28 Al    0.26875   -0.28980   -0.11710
 29 Fe    0.95055   -0.14148    0.07627
 30 Cr   -0.28781   -0.03914   -0.29651
 31 Cr   -1.14055   -0.88240   -0.13664
 32 Al    0.11239   -0.75865    0.56170
 33 Fe    0.33905   -0.13914   -0.17101
 34 Fe    1.14106   -0.45291   -0.38311
 35 Co   -0.37640   -0.06170   -0.29038
 36 Al    0.32178   -0.40452    0.32750
 37 Fe    0.48624    0.49227    0.68046
 38 Cr   -0.53704   -0.08231   -1.26998
 39 Fe    0.57024   -0.59617   -0.49281
 40 Al   -1.92505    0.72053   -1.05713
 41 Al    1.16092   -0.47687    0.83804
 42 Cr    0.86986   -0.40976    1.07919
 43 Al    0.74862    0.31598    1.07726
 44 Fe   -0.19338   -0.07384    0.35124
 45 Cr   -0.25518    1.80934   -0.48565
 46 Al   -0.19441    0.83009    0.14360
 47 Fe    0.22596    0.61538    0.61030
 48 Cr   -0.71773   -0.47378    0.26513
 49 Co    0.15026   -0.30758   -0.42738
 50 Fe   -0.04679    0.22294   -0.02296
 51 Co    0.14394   -0.25309   -0.23590
 52 Fe   -0.54800   -0.12599    0.29395
 53 Co    0.04095   -0.14704   -0.09807
 54 Co    0.53503   -0.06515   -0.41488
 55 Fe   -0.83965   -0.36788    0.05699
 56 Fe   -0.10824   -0.00491    0.12844
 57 Ni   -0.23919    0.26257   -0.04921
 58 Al   -0.70259   -1.06143   -0.20516
 59 Co    0.32595   -0.22955    0.14946
 60 Al    0.20973   -0.53104    0.60730
 61 Co    0.47056    0.44580   -0.21289
 62 Co   -0.67656    0.60504   -0.16763
 63 Al    1.16361    1.25292    0.74861
 64 Ni   -0.04609    0.25727    0.06468
 65 Fe    0.13270    0.36374    0.41561
 66 Ni   -0.44322   -0.51049   -0.09612
 67 Co   -0.37650    0.29215    0.01555
 68 Ni    0.09099    0.50172   -0.51840
 69 Cr   -0.99978    0.82252   -0.06250
 70 Cr   -0.34003   -0.24660    0.51538
 71 Cr    0.86360    0.31425   -0.23974
 72 Fe    0.41549   -0.47398   -0.67917
 73 Ni   -0.27820   -0.26664    0.04581
 74 Ni   -0.01046   -0.39503    0.05388
 75 Co    0.13961   -0.02252   -0.19518
 76 Ni   -0.07776    0.47508   -0.06012
 77 Co   -0.44004   -0.25146   -0.58307
 78 Ni   -0.08937    0.13893   -0.20648
 79 Fe   -0.01271   -0.35651    0.61439
 80 Ni   -0.27551   -0.04415    0.21923
 81 Fe   -0.45172   -0.28393    0.81254
 82 Al    0.55302    0.71268   -1.16210
 83 Co    0.33864   -0.02617    0.29792
 84 Cr    0.88078   -0.13093    1.40845
 85 Cr   -0.39820    0.01035    1.10405
 86 Fe   -0.15099    0.01719   -0.18827
 87 Fe    0.15102   -0.12683   -0.99789
 88 Co   -0.38410   -0.33204   -0.07919
 89 Ni    0.29353   -0.35500   -0.12295
 90 Cr    0.50187    0.12075    0.02681
 91 Co   -0.64890    0.00977   -0.69091
 92 Al   -1.18197   -0.10009   -0.32198
 93 Al    0.26118   -0.18169   -1.53548
 94 Cr    0.81410    0.38183   -0.16982
 95 Cr    0.06467    0.13361    0.03167
 96 Co   -0.31522    0.29129    0.17939
 97 Fe    0.16413    0.48537   -0.21367
 98 Co   -0.45723    0.11715   -0.18993
 99 Ni    0.19664   -0.32981    0.21055
100 Ni    0.06168   -0.03660    0.16833
101 Ni   -0.22944   -0.34376   -0.14029
102 Ni   -0.13137   -0.15514   -0.02463
103 Ni    0.18560   -0.16532    0.05453
104 Co   -0.08855   -0.19384   -0.10346
105 Fe    0.03248    0.42919   -0.47146
106 Ni    0.03990    0.46586    0.27858
107 Al   -0.65090   -0.80147    1.76850
108 Cr    0.43066    0.12958    0.05467
109 Cr    0.67045   -0.07552   -0.20937
110 Fe    0.25080   -0.15623   -1.11676
111 Fe   -0.86024    0.40218   -0.52250
112 Ni   -0.29128   -0.31018    0.37776
113 Al   -0.00814    0.34259    0.47806
114 Co    0.26307   -0.02006   -0.46589
115 Cr   -0.50950   -0.43085    0.13755
116 Al    0.46162   -0.02634    1.19479
117 Fe    0.49798   -0.23797    0.50026
118 Fe   -0.15267   -0.57424    0.32989
119 Cr    0.54074   -0.76866   -0.12539
120 Fe   -0.36453    0.28129   -0.11015
121 Ni    0.03140    0.28269    0.14571
122 Co   -0.08952    0.14027    0.04618
123 Cr    0.19449    0.88174    0.81947
124 Co    0.33751   -0.01935   -0.36486

Timing:                              incl.     excl.
-----------------------------------------------------------
Forces:                             43.145    43.145   0.2% |
Hamiltonian:                         1.244     0.011   0.0% |
 Atomic:                             0.331     0.001   0.0% |
  XC Correction:                     0.330     0.330   0.0% |
 Calculate atomic Hamiltonians:      0.433     0.433   0.0% |
 Communicate:                        0.083     0.083   0.0% |
 Initialize Hamiltonian:             0.000     0.000   0.0% |
 Poisson:                            0.083     0.083   0.0% |
 XC 3D grid:                         0.302     0.302   0.0% |
LCAO initialization:               232.656     0.482   0.0% |
 LCAO eigensolver:                  11.092     0.009   0.0% |
  Calculate projections:             0.000     0.000   0.0% |
  DenseAtomicCorrection:             0.000     0.000   0.0% |
  Distribute overlap matrix:         6.987     6.987   0.0% |
  Orbital Layouts:                   4.068     4.068   0.0% |
  Potential matrix:                  0.003     0.003   0.0% |
  Sum over cells:                    0.024     0.024   0.0% |
 LCAO to grid:                     219.241   219.241   0.8% |
 Set positions (LCAO WFS):           1.842     1.588   0.0% |
  Basic WFS set positions:           0.003     0.003   0.0% |
  Basis functions set positions:     0.000     0.000   0.0% |
  P tci:                             0.000     0.000   0.0% |
  ST tci:                            0.096     0.096   0.0% |
  mktci:                             0.153     0.153   0.0% |
PWDescriptor:                        0.098     0.098   0.0% |
SCF-cycle:                       28223.136    22.976   0.1% |
 Davidson:                       27412.324  8932.179  31.3% |------------|
  Apply H:                         534.287   525.099   1.8% ||
   HMM T:                            9.189     9.189   0.0% |
  Subspace diag:                  2958.902     0.069   0.0% |
   calc_h_matrix:                 1228.371   766.069   2.7% ||
    Apply H:                       462.301   453.048   1.6% ||
     HMM T:                          9.254     9.254   0.0% |
   diagonalize:                    249.942   249.942   0.9% |
   rotate_psi:                    1480.520  1480.520   5.2% |-|
  calc. matrices:                 6972.790  6054.050  21.2% |-------|
   Apply H:                        918.740   900.249   3.2% ||
    HMM T:                          18.491    18.491   0.1% |
  diagonalize:                    4891.925  4891.925  17.2% |------|
  rotate_psi:                     3122.242  3122.242  11.0% |---|
 Density:                          449.167     0.006   0.0% |
  Atomic density matrices:           4.960     4.960   0.0% |
  Mix:                             176.665   176.665   0.6% |
  Multipole moments:                 0.141     0.141   0.0% |
  Pseudo density:                  267.394   267.386   0.9% |
   Symmetrize density:               0.009     0.009   0.0% |
 Hamiltonian:                      323.221     2.333   0.0% |
  Atomic:                           79.346     0.263   0.0% |
   XC Correction:                   79.083    79.083   0.3% |
  Calculate atomic Hamiltonians:   146.327   146.327   0.5% |
  Communicate:                      17.241    17.241   0.1% |
  Poisson:                           7.636     7.636   0.0% |
  XC 3D grid:                       70.338    70.338   0.2% |
 Orthonormalize:                    15.448     0.000   0.0% |
  calc_s_matrix:                     1.871     1.871   0.0% |
  inverse-cholesky:                  0.672     0.672   0.0% |
  projections:                       9.622     9.622   0.0% |
  rotate_psi_s:                      3.283     3.283   0.0% |
Set symmetry:                        0.001     0.001   0.0% |
Other:                               7.571     7.571   0.0% |
-----------------------------------------------------------
Total:                                     28507.852 100.0%

Date: Wed Apr 19 19:51:58 2023
