
  ___ ___ ___ _ _ _  
 |   |   |_  | | | | 
 | | | | | . | | | | 
 |__ |  _|___|_____|  22.8.0
 |___|_|             

User:   c.zeng@d0102
Date:   Mon Apr 17 15:14:28 2023
Arch:   x86_64
Pid:    209155
CWD:    /home/c.zeng/projects/hea-corrosion/hea-mlp/data-curation/surface-md/dft-jobs/6
Python: 3.8.1
gpaw:   /home/c.zeng/usr/installs/gpaw/source/gpaw-22.8.0/gpaw
_gpaw:  /home/c.zeng/usr/installs/gpaw/source/gpaw-22.8.0/
        _gpaw.cpython-38-x86_64-linux-gnu.so
ase:    /home/c.zeng/.local/lib/python3.8/site-packages/ase-3.22.1-py3.8.egg/ase (version 3.22.1)
numpy:  /home/c.zeng/.local/lib/python3.8/site-packages/numpy (version 1.24.2)
scipy:  /home/c.zeng/.local/lib/python3.8/site-packages/scipy (version 1.10.1)
libxc:  4.2.3
units:  Angstrom and eV
cores: 30
OpenMP: False
OMP_NUM_THREADS: 1

Input parameters:
  convergence: {energy: 0.0001}
  kpts: [2 2 1]
  maxiter: 666
  mode: {ecut: 350.0,
         name: pw}
  occupations: {fixmagmom: False,
                name: fermi-dirac,
                width: 0.1}
  poissonsolver: {dipolelayer: xy}
  spinpol: True
  symmetry: {point_group: False}
  xc: PBE

System changes: positions, numbers, cell, pbc, initial_charges, initial_magmoms 

Initialize ...

species:
  Cr:
    name: Chromium
    id: 33f258bda2ca9f93018e70263a35547b
    Z: 24.0
    valence: 6
    core: 18
    charge: 0.0
    file: /home/c.zeng/usr/data/gpaw-setups-0.9.20000/Cr.PBE.gz
    compensation charges: {type: gauss,
                           rc: 0.35,
                           lmax: 2}
    cutoffs: {filter: 2.14,
              core: 3.04}
    valence states:
      #              energy  rcut
      - 4s(1.00)    -4.007   1.164
      - 4p(0.00)    -0.989   1.217
      - 3d(5.00)    -2.913   1.111
      -  s          23.205   1.164
      -  p          26.223   1.217
      -  d          24.299   1.111
  
    # Using partial waves for Cr as LCAO basis

  Fe:
    name: Iron
    id: 37abbd8d6c3c35915a9b583b742da910
    Z: 26.0
    valence: 8
    core: 18
    charge: 0.0
    file: /home/c.zeng/usr/data/gpaw-setups-0.9.20000/Fe.PBE.gz
    compensation charges: {type: gauss,
                           rc: 0.33,
                           lmax: 2}
    cutoffs: {filter: 2.06,
              core: 2.67}
    valence states:
      #              energy  rcut
      - 4s(2.00)    -5.291   1.164
      - 4p(0.00)    -1.326   1.058
      - 3d(6.00)    -7.505   1.058
      -  s          21.920   1.164
      -  p          25.885   1.058
      -  d          19.706   1.058
  
    # Using partial waves for Fe as LCAO basis

  Ni:
    name: Nickel
    id: 0d9f38a9d6e76a2886f07bb4381f212b
    Z: 28.0
    valence: 16
    core: 12
    charge: 0.0
    file: /home/c.zeng/usr/data/gpaw-setups-0.9.20000/Ni.PBE.gz
    compensation charges: {type: gauss,
                           rc: 0.36,
                           lmax: 2}
    cutoffs: {filter: 2.14,
              core: 1.98}
    valence states:
      #              energy  rcut
      - 4s(2.00)    -5.642   1.164
      - 3p(6.00)   -71.394   1.207
      - 4p(0.00)    -1.226   1.207
      - 3d(8.00)    -8.875   1.138
      -  s          21.570   1.164
      -  d          18.337   1.138
  
    # Using partial waves for Ni as LCAO basis

  Co:
    name: Cobalt
    id: 339d20d5b0b93d2de9531a1bee871d91
    Z: 27.0
    valence: 9
    core: 18
    charge: 0.0
    file: /home/c.zeng/usr/data/gpaw-setups-0.9.20000/Co.PBE.gz
    compensation charges: {type: gauss,
                           rc: 0.32,
                           lmax: 2}
    cutoffs: {filter: 1.87,
              core: 2.55}
    valence states:
      #              energy  rcut
      - 4s(2.00)    -5.469   1.005
      - 4p(0.00)    -1.277   1.058
      - 3d(7.00)    -8.205   1.005
      -  s          21.742   1.005
      -  p          25.934   1.058
      -  d          19.007   1.005
  
    # Using partial waves for Co as LCAO basis

Reference energy: -4451268.207082  # eV

Spin-polarized calculation.
Magnetic moment: 175.600000

Convergence criteria:
 Maximum [total energy] change in last 3 cyles: 0.0001 eV / electron
 Maximum integral of absolute [dens]ity change: 0.0001 electrons / valence electron
 Maximum integral of absolute [eigenst]ate change: 4e-08 eV^2 / valence electron
 Maximum number of scf [iter]ations: 666
 (Square brackets indicate name in SCF output, whereas a 'c' in
 the SCF output indicates the quantity has converged.)

Symmetries present (total): 1

  ( 1  0  0)
  ( 0  1  0)
  ( 0  0  1)

4 k-points: 2 x 2 x 1 Monkhorst-Pack grid
2 k-points in the irreducible part of the Brillouin zone
       k-points in crystal coordinates                weights
   0:     0.25000000   -0.25000000    0.00000000          2/4
   1:     0.25000000    0.25000000    0.00000000          2/4

Wave functions: Plane wave expansion
  Cutoff energy: 350.000 eV
  Number of coefficients (min, max): 58495, 58567
  Pulay-stress correction: 0.000000 eV/Ang^3 (de/decut=0.000000)
  Using FFTW library
  ScaLapack parameters: grid=1x1, blocksize=None
  Wavefunction extrapolation:
    Improved wavefunction reuse through dual PAW basis 

Occupation numbers: Fermi-Dirac:
  width: 0.1000  # eV
 

Eigensolver
   Davidson(niter=2) 

Densities:
  Coarse grid: 54*54*128 grid
  Fine grid: 108*108*256 grid
  Total Charge: 0.000000 

Density mixing:
  Method: difference
  Backend: pulay
  Linear mixing parameter: 0.05
  old densities: 5
  Damping of long wavelength oscillations: 50 

Hamiltonian:
  XC and Coulomb potentials evaluated on a 108*108*256 grid
  Using the PBE Exchange-Correlation functional
  External potential:
    NoExternalPotential
 

XC parameters: PBE with 2 nearest neighbor stencil

Memory estimate:
  Process memory now: 366.82 MiB
  Calculator: 2405.48 MiB
    Density: 16.73 MiB
      Arrays: 6.75 MiB
      Localized functions: 7.29 MiB
      Mixer: 2.70 MiB
    Hamiltonian: 5.22 MiB
      Arrays: 5.01 MiB
      XC: 0.00 MiB
      Poisson: 0.00 MiB
      vbar: 0.21 MiB
    Wavefunctions: 2383.52 MiB
      Arrays psit_nG: 1501.35 MiB
      Eigensolver: 862.84 MiB
      Projections: 3.85 MiB
      Projectors: 0.98 MiB
      PW-descriptor: 14.51 MiB

Total number of cores used: 30
Parallelization over k-points: 2
Domain decomposition: 1 x 3 x 5

Number of atoms: 125
Number of atomic orbitals: 1218
Number of bands in calculation: 840
Number of valence electrons: 1217
Bands to converge: occupied

... initialized

Initializing position-dependent things.

Density initialized from atomic densities
Creating initial wave functions:
  840 bands from LCAO basis set

                                                                  
                                                                  
                                                                  
                                                                  
                                   Co    Ni          Co           
                              Ni                                  
                         Ni         Co     CrCr  Cr               
                    Cr     Ni   CCr   FCo         Fe    Co        
                Co     Ni   Ni   NNi    Cr Co      Fe             
                  Ni   NFe Co Ni    Cr FeFe  Fe                   
       Co  Co                 Co   Fe    Ni   CNi   Fe            
                   Fe   NFe Cr Co   CFe    Co    Cr               
               Ni    Ni    Fe Ni Co    Fe             Fe          
                    Co    Cr   NCo   Co    NCo   Fe    Cr         
               Fe   FCo   NCo    CCo   NCr  Co                    
                 Fe    Cr    Fe Ni Cr Cr    Ni    Fe    Cr        
           Co   Ni    Ni   NiCr   NFe   Cr    Cr                  
            Fe    Co    Fe    Cr    Fe    Fe    Ni Cr             
              Co       Cr Cr                                      
                   FCo   Cr     Cr   CCo   Cr                     
              Fe     Ni    Co    Ni    Cr                         
                                                                  
                                                                  
                                                                  
                                                                  
                                                                  

Positions:
   0 Cr    12.465240    1.325893   10.474755    ( 0.0000,  0.0000,  0.0000)
   1 Fe     2.358446    1.503779   10.429886    ( 0.0000,  0.0000,  2.0000)
   2 Ni     5.111662    1.462659   10.501609    ( 0.0000,  0.0000,  1.5000)
   3 Co     7.562512    1.621853   10.536840    ( 0.0000,  0.0000,  2.1000)
   4 Ni     9.826486    1.666751   10.641816    ( 0.0000,  0.0000,  1.5000)
   5 Cr    13.754517    3.620884   10.235714    ( 0.0000,  0.0000,  0.0000)
   6 Fe     3.811867    3.693987   10.361738    ( 0.0000,  0.0000,  2.0000)
   7 Cr     6.229688    3.552781   10.384291    ( 0.0000,  0.0000,  0.0000)
   8 Cr     9.050178    3.754899   10.427630    ( 0.0000,  0.0000,  0.0000)
   9 Cr    11.335833    3.627156   10.434663    ( 0.0000,  0.0000,  0.0000)
  10 Ni    14.939908    5.879996   10.751273    ( 0.0000,  0.0000,  1.5000)
  11 Cr     5.117139    5.712294   10.311006    ( 0.0000,  0.0000,  0.0000)
  12 Cr     7.658240    5.849308   10.609678    ( 0.0000,  0.0000,  0.0000)
  13 Cr    10.078328    5.763611   10.757376    ( 0.0000,  0.0000,  0.0000)
  14 Fe    12.599596    5.866115   10.381266    ( 0.0000,  0.0000,  2.0000)
  15 Cr    16.067199    7.723215   10.092827    ( 0.0000,  0.0000,  0.0000)
  16 Ni     6.137263    7.836988   10.560395    ( 0.0000,  0.0000,  1.5000)
  17 Ni     9.066337    7.934964   10.463211    ( 0.0000,  0.0000,  1.5000)
  18 Fe    11.338704    7.745289   10.467422    ( 0.0000,  0.0000,  2.0000)
  19 Cr    13.962801    7.985088   10.517206    ( 0.0000,  0.0000,  0.0000)
  20 Cr    17.539226   10.038138   10.223515    ( 0.0000,  0.0000,  0.0000)
  21 Ni     7.683324    9.836803   10.300239    ( 0.0000,  0.0000,  1.5000)
  22 Cr     9.839759   10.265763   10.212437    ( 0.0000,  0.0000,  0.0000)
  23 Ni    12.530048    9.877198   10.294284    ( 0.0000,  0.0000,  1.5000)
  24 Fe    15.102161   10.057929   10.688747    ( 0.0000,  0.0000,  2.0000)
  25 Co    12.454501   -0.158443   12.413442    ( 0.0000,  0.0000,  2.1000)
  26 Co     2.504425    0.100211   12.448239    ( 0.0000,  0.0000,  2.1000)
  27 Co     5.194441   -0.138522   12.159182    ( 0.0000,  0.0000,  2.1000)
  28 Cr     7.587498   -0.030822   12.701547    ( 0.0000,  0.0000,  0.0000)
  29 Fe    16.286964   10.839902   12.495971    ( 0.0000,  0.0000,  2.0000)
  30 Fe     1.205520    2.158348   12.381669    ( 0.0000,  0.0000,  2.0000)
  31 Co     3.689671    2.079251   12.400444    ( 0.0000,  0.0000,  2.1000)
  32 Fe     6.333970    2.000025   12.657644    ( 0.0000,  0.0000,  2.0000)
  33 Cr     8.659919    2.244986   12.691942    ( 0.0000,  0.0000,  0.0000)
  34 Fe    11.068825    2.024722   12.607925    ( 0.0000,  0.0000,  2.0000)
  35 Ni     2.413869    4.266933   12.474696    ( 0.0000,  0.0000,  1.5000)
  36 Ni     4.838251    4.313145   12.561626    ( 0.0000,  0.0000,  1.5000)
  37 Cr     7.651646    4.186922   12.467337    ( 0.0000,  0.0000,  0.0000)
  38 Fe     9.991162    4.325713   12.704688    ( 0.0000,  0.0000,  2.0000)
  39 Cr    12.213455    4.328921   12.549282    ( 0.0000,  0.0000,  0.0000)
  40 Fe     3.694144    6.368143   12.683213    ( 0.0000,  0.0000,  2.0000)
  41 Ni     6.131954    6.339494   12.599454    ( 0.0000,  0.0000,  1.5000)
  42 Co     8.695698    6.628220   12.537035    ( 0.0000,  0.0000,  2.1000)
  43 Ni    11.209878    6.571480   12.779995    ( 0.0000,  0.0000,  1.5000)
  44 Co    13.474500    6.370339   12.573792    ( 0.0000,  0.0000,  2.1000)
  45 Cr    17.341613    8.686476   12.388557    ( 0.0000,  0.0000,  0.0000)
  46 Ni     7.450684    8.730193   12.599910    ( 0.0000,  0.0000,  1.5000)
  47 Co    10.120331    8.763602   12.546504    ( 0.0000,  0.0000,  2.1000)
  48 Ni    12.438772    8.579844   12.441904    ( 0.0000,  0.0000,  1.5000)
  49 Fe    14.989257    8.473472   12.451029    ( 0.0000,  0.0000,  2.0000)
  50 Co     1.097250    0.599809   14.426562    ( 0.0000,  0.0000,  2.1000)
  51 Fe     3.748188    0.684123   14.537543    ( 0.0000,  0.0000,  2.0000)
  52 Cr     6.289784    0.846866   14.821026    ( 0.0000,  0.0000,  0.0000)
  53 Fe     8.727743    0.851850   14.543299    ( 0.0000,  0.0000,  2.0000)
  54 Cr    11.043929    0.570597   14.871475    ( 0.0000,  0.0000,  0.0000)
  55 Fe     2.381154    2.989385   14.529909    ( 0.0000,  0.0000,  2.0000)
  56 Co     4.954442    2.807478   14.755101    ( 0.0000,  0.0000,  2.1000)
  57 Co     7.470442    2.896663   14.801141    ( 0.0000,  0.0000,  2.1000)
  58 Co    10.001470    3.046894   14.721187    ( 0.0000,  0.0000,  2.1000)
  59 Cr    12.462741    3.077761   14.653343    ( 0.0000,  0.0000,  0.0000)
  60 Co     3.892568    4.893610   14.877787    ( 0.0000,  0.0000,  2.1000)
  61 Cr     6.526134    5.009488   14.610786    ( 0.0000,  0.0000,  0.0000)
  62 Co     8.802744    5.051003   14.639177    ( 0.0000,  0.0000,  2.1000)
  63 Fe    11.511833    5.099782   14.904865    ( 0.0000,  0.0000,  2.0000)
  64 Co    13.797175    4.971576   14.633586    ( 0.0000,  0.0000,  2.1000)
  65 Fe     5.204580    6.980296   14.817071    ( 0.0000,  0.0000,  2.0000)
  66 Ni     7.563321    7.195974   14.572485    ( 0.0000,  0.0000,  1.5000)
  67 Cr    10.110452    7.119875   14.787654    ( 0.0000,  0.0000,  0.0000)
  68 Fe    12.628171    7.271549   14.697944    ( 0.0000,  0.0000,  2.0000)
  69 Cr    15.321881    7.125629   14.844441    ( 0.0000,  0.0000,  0.0000)
  70 Cr     6.109819    9.193163   14.442471    ( 0.0000,  0.0000,  0.0000)
  71 Ni     8.854049    9.409248   14.562786    ( 0.0000,  0.0000,  1.5000)
  72 Ni    11.269902    9.497889   14.443890    ( 0.0000,  0.0000,  1.5000)
  73 Co    13.651207    9.403205   14.575986    ( 0.0000,  0.0000,  2.1000)
  74 Fe    15.992511    9.397611   14.473555    ( 0.0000,  0.0000,  2.0000)
  75 Fe    12.390372    1.542228   16.818233    ( 0.0000,  0.0000,  2.0000)
  76 Ni     2.759872    1.394837   16.896048    ( 0.0000,  0.0000,  1.5000)
  77 Ni     5.179754    1.241492   17.081267    ( 0.0000,  0.0000,  1.5000)
  78 Fe     7.635685    1.609682   16.792187    ( 0.0000,  0.0000,  2.0000)
  79 Co    10.035636    1.606449   16.747354    ( 0.0000,  0.0000,  2.1000)
  80 Co    13.698160    3.592164   16.689096    ( 0.0000,  0.0000,  2.1000)
  81 Fe     3.635085    3.627477   16.885696    ( 0.0000,  0.0000,  2.0000)
  82 Ni     6.029240    3.546048   17.051554    ( 0.0000,  0.0000,  1.5000)
  83 Co     8.514424    3.803325   16.963627    ( 0.0000,  0.0000,  2.1000)
  84 Fe    11.169763    3.800512   16.991151    ( 0.0000,  0.0000,  2.0000)
  85 Ni    14.816325    5.702724   16.902408    ( 0.0000,  0.0000,  1.5000)
  86 Ni     4.880362    5.689186   17.036069    ( 0.0000,  0.0000,  1.5000)
  87 Co     7.578533    6.079319   16.686668    ( 0.0000,  0.0000,  2.1000)
  88 Fe     9.971205    5.672365   16.796201    ( 0.0000,  0.0000,  2.0000)
  89 Fe    12.317210    5.853840   17.103998    ( 0.0000,  0.0000,  2.0000)
  90 Fe    16.019990    8.094523   16.726902    ( 0.0000,  0.0000,  2.0000)
  91 Co     6.218630    8.012319   16.521032    ( 0.0000,  0.0000,  2.1000)
  92 Ni     8.545985    8.014177   16.792393    ( 0.0000,  0.0000,  1.5000)
  93 Fe    11.035770    7.808804   16.690290    ( 0.0000,  0.0000,  2.0000)
  94 Fe    13.630104    7.785477   16.810663    ( 0.0000,  0.0000,  2.0000)
  95 Co    17.389173   10.064534   16.850486    ( 0.0000,  0.0000,  2.1000)
  96 Co     7.405742   10.147719   16.697253    ( 0.0000,  0.0000,  2.1000)
  97 Fe     9.969213   10.118658   16.689405    ( 0.0000,  0.0000,  2.0000)
  98 Co    12.248492    9.873034   16.508954    ( 0.0000,  0.0000,  2.1000)
  99 Fe    14.994485   10.205210   16.750961    ( 0.0000,  0.0000,  2.0000)
 100 Co    -0.136804    0.004944   19.007116    ( 0.0000,  0.0000,  2.1000)
 101 Co     8.479860   10.969456   18.733555    ( 0.0000,  0.0000,  2.1000)
 102 Ni    11.065181   10.576577   19.143240    ( 0.0000,  0.0000,  1.5000)
 103 Fe     7.216887   -0.095807   18.626992    ( 0.0000,  0.0000,  2.0000)
 104 Co    15.909033   10.795841   19.046478    ( 0.0000,  0.0000,  2.1000)
 105 Co     1.071645    2.080036   18.588119    ( 0.0000,  0.0000,  2.1000)
 106 Ni     3.631831    2.179411   18.861431    ( 0.0000,  0.0000,  1.5000)
 107 Fe     6.181156    2.252460   19.075201    ( 0.0000,  0.0000,  2.0000)
 108 Ni     8.526816    2.213864   18.940324    ( 0.0000,  0.0000,  1.5000)
 109 Cr    11.022967    2.130287   18.927066    ( 0.0000,  0.0000,  0.0000)
 110 Co     2.551763    4.351273   18.804720    ( 0.0000,  0.0000,  2.1000)
 111 Ni     5.076696    4.393897   19.295124    ( 0.0000,  0.0000,  1.5000)
 112 Ni     7.487414    4.289927   19.290927    ( 0.0000,  0.0000,  1.5000)
 113 Ni     9.937172    4.200439   18.837411    ( 0.0000,  0.0000,  1.5000)
 114 Cr    12.380413    4.264418   19.039214    ( 0.0000,  0.0000,  0.0000)
 115 Cr     3.689204    6.339781   19.032610    ( 0.0000,  0.0000,  0.0000)
 116 Ni     6.283129    6.444700   18.597988    ( 0.0000,  0.0000,  1.5000)
 117 Cr     8.767945    6.302360   18.760536    ( 0.0000,  0.0000,  0.0000)
 118 Co    11.110278    6.639508   19.027858    ( 0.0000,  0.0000,  2.1000)
 119 Cr    13.760115    6.545204   19.128182    ( 0.0000,  0.0000,  0.0000)
 120 Ni     4.927834    8.315751   18.663486    ( 0.0000,  0.0000,  1.5000)
 121 Ni     7.281050    8.628076   19.171869    ( 0.0000,  0.0000,  1.5000)
 122 Co     9.628551    8.678499   18.618938    ( 0.0000,  0.0000,  2.1000)
 123 Cr    12.354393    8.452895   18.687425    ( 0.0000,  0.0000,  0.0000)
 124 Cr    14.821424    8.676856   18.616424    ( 0.0000,  0.0000,  0.0000)

Unit cell:
           periodic     x           y           z      points  spacing
  1. axis:    yes   12.446800    0.000000    0.000000    54     0.1996
  2. axis:    yes    6.223010   10.778600    0.000000    54     0.1996
  3. axis:    no     0.000000    0.000000   29.353100   128     0.2293

  Lengths:  12.446800  12.446046  29.353100
  Angles:   90.000000  90.000000  60.000070

Effective grid spacing dv^(1/3) = 0.2193

     iter     time        total  log10-change:  magmom
                         energy  eigst   dens
iter:   1 15:22:06 -1241.391608                  +175.9174
iter:   2 15:24:40 -1154.666235  -0.05  -1.12    +98.4965
iter:   3 15:27:13 -1227.445605  -0.49  -1.09    +81.6415
iter:   4 15:29:47 -2199.923787  +0.20  -1.06    +71.9398
iter:   5 15:32:27 -1031.386814  -0.45  -0.75    +46.4669
iter:   6 15:35:56 -1007.099933  -1.25  -1.29    +43.4421
iter:   7 15:39:30 -1004.763417  -1.80  -1.32    +44.9219
iter:   8 15:43:04  -995.678453  -1.57  -1.33    +45.6291
iter:   9 15:46:39 -1318.145193  -0.73  -1.36    +49.1724
iter:  10 15:50:12 -1099.082691  -0.73  -0.99    +46.3798
iter:  11 15:53:48 -1044.891731  -1.14  -1.15    +41.5556
iter:  12 15:57:23 -1003.736873  -1.56  -1.33    +41.7440
iter:  13 16:00:59  -994.128591  -1.80  -1.48    +41.0194
iter:  14 16:04:34 -1004.180757  -1.67  -1.53    +43.0199
iter:  15 16:08:10 -1016.601003  -1.36  -1.42    +45.9827
iter:  16 16:11:48  -974.609128  -1.74  -1.38    +46.5071
iter:  17 16:15:25  -982.756087  -2.10  -1.61    +50.5547
iter:  18 16:19:05  -983.064761  -1.88  -1.56    +54.1898
iter:  19 16:22:41  -985.192852  -2.09  -1.61    +55.8152
iter:  20 16:26:17  -982.394910  -1.96  -1.56    +58.4238
iter:  21 16:29:54  -976.168079  -1.88  -1.65    +60.2088
iter:  22 16:33:30  -972.585580  -2.18  -1.78    +62.2222
iter:  23 16:37:07  -980.851120  -2.16  -1.88    +65.9499
iter:  24 16:40:43  -975.216534  -2.42  -1.71    +66.3136
iter:  25 16:44:19  -974.959236  -2.53  -1.80    +69.0090
iter:  26 16:47:54  -971.557048  -2.73  -1.86    +70.1628
iter:  27 16:51:30  -971.347241  -3.27  -1.97    +71.6870
iter:  28 16:55:06  -972.501387  -2.79  -2.03    +76.5516
iter:  29 16:58:42  -978.697455  -2.69  -2.06    +77.8554
iter:  30 17:02:18  -975.258102  -2.55  -1.84    +79.3006
iter:  31 17:05:53  -976.621767  -2.69  -2.02    +80.1063
iter:  32 17:09:29  -976.178476  -2.55  -1.97    +80.5537
iter:  33 17:13:05  -974.575274  -2.84  -2.03    +80.4235
iter:  34 17:16:41  -974.914414  -3.00  -2.25    +80.4437
iter:  35 17:20:16  -974.651194  -3.17  -2.23    +82.2237
iter:  36 17:23:53  -974.695274  -3.59  -2.32    +81.9535
iter:  37 17:27:28  -975.068054  -3.43  -2.40    +82.3510
iter:  38 17:31:02  -976.274024  -3.04  -2.41    +82.7218
iter:  39 17:34:37  -975.465653  -3.83  -2.22    +82.1725
iter:  40 17:38:12  -975.698508  -3.59  -2.41    +82.2425
iter:  41 17:41:48  -976.663299  -3.48  -2.42    +82.4615
iter:  42 17:45:23  -975.924494  -3.39  -2.21    +82.2001
iter:  43 17:48:58  -976.095114  -3.44  -2.47    +82.3344
iter:  44 17:52:33  -976.988744  -3.02  -2.49    +82.8594
iter:  45 17:56:08  -976.390217  -3.25  -2.26    +83.1009
iter:  46 17:59:45  -976.300478  -3.55  -2.41    +82.8082
iter:  47 18:03:19  -976.277448c -3.58  -2.48    +82.5044
iter:  48 18:06:54  -976.136690  -4.05  -2.53    +83.0640
iter:  49 18:10:27  -976.155206  -4.30  -2.68    +83.2763
iter:  50 18:14:03  -976.282205  -3.83  -2.73    +83.6176
iter:  51 18:17:38  -976.218154  -4.30  -2.66    +83.6100
iter:  52 18:21:14  -976.276461c -4.33  -2.73    +83.7852
iter:  53 18:24:48  -976.276504c -4.68  -2.72    +83.7438
iter:  54 18:28:23  -976.410953  -4.23  -2.73    +84.1428
iter:  55 18:31:58  -976.422977  -4.45  -2.58    +84.0536
iter:  56 18:35:33  -976.428826c -4.13  -2.58    +83.7535
iter:  57 18:39:07  -976.547136  -4.21  -2.59    +83.6503
iter:  58 18:42:41  -976.430521c -4.22  -2.49    +83.3143
iter:  59 18:46:15  -980.510565  -2.97  -2.60    +83.1753
iter:  60 18:49:49  -976.597807  -3.16  -1.98    +83.3145
iter:  61 18:53:22  -976.660667  -4.04  -2.49    +83.1544
iter:  62 18:56:55  -976.602693c -4.35  -2.48    +82.8606
iter:  63 19:00:26  -976.390497  -3.98  -2.50    +82.6311
iter:  64 19:03:58  -976.396880  -3.82  -2.76    +82.7264
iter:  65 19:07:32  -976.390571c -4.07  -2.82    +83.0236
iter:  66 19:11:06  -976.604067  -3.94  -2.92    +83.5309
iter:  67 19:14:40  -976.410855  -4.30  -2.58    +83.3917
iter:  68 19:18:13  -976.412040  -4.56  -2.99    +83.5073
iter:  69 19:21:46  -976.430969c -4.66  -3.05    +83.7817
iter:  70 19:25:18  -976.445735c -4.85  -2.99    +83.8365
iter:  71 19:28:52  -976.445007c -4.89  -3.01    +83.8636
iter:  72 19:32:26  -976.537741c -4.41  -3.08    +83.9147
iter:  73 19:35:59  -976.449295c -4.73  -2.81    +83.9165
iter:  74 19:39:31  -976.466063c -4.75  -3.20    +83.9324
iter:  75 19:43:05  -976.477295c -4.76  -3.19    +84.0135
iter:  76 19:46:38  -976.475548c -4.88  -3.12    +84.1387
iter:  77 19:50:11  -976.488824c -4.60  -3.24    +84.3536
iter:  78 19:53:43  -976.501540c -4.80  -3.29    +84.4215
iter:  79 19:57:17  -976.496158c -5.33  -3.06    +84.3700
iter:  80 20:00:50  -976.509935c -4.80  -3.20    +84.3541
iter:  81 20:04:23  -976.520086c -4.63  -3.18    +84.3293
iter:  82 20:07:56  -976.559787c -4.31  -3.19    +84.3923
iter:  83 20:11:29  -976.525589c -5.00  -2.97    +84.3911
iter:  84 20:15:02  -976.539734c -4.95  -3.21    +84.4765
iter:  85 20:18:36  -976.540602c -4.97  -3.14    +84.4881
iter:  86 20:22:07  -976.531627c -4.87  -3.04    +84.6310
iter:  87 20:25:40  -976.527854c -4.78  -3.16    +84.8068
iter:  88 20:29:11  -976.537908c -4.88  -3.25    +84.7733
iter:  89 20:32:44  -976.527552c -5.12  -3.03    +84.6653
iter:  90 20:36:16  -976.520631c -5.48  -3.19    +84.5903
iter:  91 20:39:49  -976.523570c -5.40  -3.39    +84.6109
iter:  92 20:43:21  -976.522984c -5.24  -3.32    +84.6102
iter:  93 20:46:56  -976.523320c -5.12  -3.32    +84.6040
iter:  94 20:50:29  -976.538963c -4.91  -3.27    +84.6235
iter:  95 20:54:02  -976.538631c -4.77  -3.15    +84.6826
iter:  96 20:57:35  -976.521878c -5.00  -3.10    +84.6224
iter:  97 21:01:08  -976.529564c -4.92  -3.48    +84.6162
iter:  98 21:04:40  -976.521499c -5.21  -3.26    +84.6974
iter:  99 21:08:14  -976.532236c -5.28  -3.49    +84.6711
iter: 100 21:11:47  -976.518374c -5.57  -3.24    +84.6965
iter: 101 21:15:19  -976.525008c -5.85  -3.65    +84.7295
iter: 102 21:18:52  -976.518880c -5.94  -3.38    +84.7465
iter: 103 21:22:25  -976.519944c -5.86  -3.73    +84.7383
iter: 104 21:25:57  -976.519609c -6.21  -3.69    +84.7269
iter: 105 21:29:30  -976.519285c -5.54  -3.74    +84.7399
iter: 106 21:33:04  -976.522320c -5.72  -3.56    +84.7279
iter: 107 21:36:37  -976.521383c -5.66  -3.54    +84.7135
iter: 108 21:40:10  -976.519962c -5.85  -3.45    +84.7028
iter: 109 21:43:42  -976.519251c -6.23  -3.74    +84.7093
iter: 110 21:47:17  -976.518990c -6.75  -3.77    +84.7283
iter: 111 21:50:50  -976.518807c -7.07  -3.90    +84.7232
iter: 112 21:54:24  -976.518054c -6.55  -3.92    +84.7185
iter: 113 21:57:58  -976.518554c -6.56  -3.97    +84.7151
iter: 114 22:01:31  -976.520396c -6.36  -4.07c   +84.6951
iter: 115 22:05:03  -976.518362c -6.34  -3.69    +84.7085
iter: 116 22:08:37  -976.518394c -6.27  -4.12c   +84.6936
iter: 117 22:12:11  -976.518349c -6.43  -3.94    +84.6872
iter: 118 22:15:45  -976.518823c -6.79  -4.22c   +84.6910
iter: 119 22:19:19  -976.518493c -7.02  -4.08c   +84.6908
iter: 120 22:22:52  -976.518184c -6.55  -4.13c   +84.6918
iter: 121 22:26:26  -976.517946c -7.21  -3.86    +84.6864
iter: 122 22:30:00  -976.518121c -7.28  -4.47c   +84.6856
iter: 123 22:33:32  -976.518002c -7.18  -4.41c   +84.6680
iter: 124 22:37:03  -976.517854c -7.30  -4.48c   +84.6609
iter: 125 22:40:37  -976.518022c -7.27  -4.41c   +84.6539
iter: 126 22:44:10  -976.521201c -6.31  -4.40c   +84.6488
iter: 127 22:47:42  -976.518043c -6.70  -3.61    +84.6535
iter: 128 22:51:16  -976.517882c -7.27  -4.64c   +84.6511
iter: 129 22:54:48  -976.517970c -7.52c -4.64c   +84.6526

Converged after 129 iterations.

Dipole moment: (72.798298, 40.866593, -0.013541) |e|*Ang

Total magnetic moment: (0.000000, 0.000000, 84.652613)
Local magnetic moments:
   0 Cr ( 0.000000,  0.000000, -2.194165)
   1 Fe ( 0.000000,  0.000000,  2.142243)
   2 Ni ( 0.000000,  0.000000,  0.428221)
   3 Co ( 0.000000,  0.000000,  1.022805)
   4 Ni ( 0.000000,  0.000000,  0.190977)
   5 Cr ( 0.000000,  0.000000, -2.531610)
   6 Fe ( 0.000000,  0.000000,  2.508527)
   7 Cr ( 0.000000,  0.000000, -2.319860)
   8 Cr ( 0.000000,  0.000000, -1.302046)
   9 Cr ( 0.000000,  0.000000,  1.372190)
  10 Ni ( 0.000000,  0.000000,  0.320827)
  11 Cr ( 0.000000,  0.000000, -2.483944)
  12 Cr ( 0.000000,  0.000000,  1.792999)
  13 Cr ( 0.000000,  0.000000, -0.290091)
  14 Fe ( 0.000000,  0.000000,  2.376113)
  15 Cr ( 0.000000,  0.000000,  2.201808)
  16 Ni ( 0.000000,  0.000000, -0.009869)
  17 Ni ( 0.000000,  0.000000,  0.354180)
  18 Fe ( 0.000000,  0.000000,  2.435734)
  19 Cr ( 0.000000,  0.000000, -1.793261)
  20 Cr ( 0.000000,  0.000000,  2.438624)
  21 Ni ( 0.000000,  0.000000,  0.154066)
  22 Cr ( 0.000000,  0.000000, -2.765468)
  23 Ni ( 0.000000,  0.000000,  0.439425)
  24 Fe ( 0.000000,  0.000000,  1.984315)
  25 Co ( 0.000000,  0.000000,  1.088128)
  26 Co ( 0.000000,  0.000000,  1.525081)
  27 Co ( 0.000000,  0.000000,  1.400068)
  28 Cr ( 0.000000,  0.000000, -1.184000)
  29 Fe ( 0.000000,  0.000000,  1.547878)
  30 Fe ( 0.000000,  0.000000,  2.214216)
  31 Co ( 0.000000,  0.000000,  1.580304)
  32 Fe ( 0.000000,  0.000000,  1.990608)
  33 Cr ( 0.000000,  0.000000, -0.688191)
  34 Fe ( 0.000000,  0.000000,  1.950462)
  35 Ni ( 0.000000,  0.000000,  0.463311)
  36 Ni ( 0.000000,  0.000000,  0.411483)
  37 Cr ( 0.000000,  0.000000,  0.956877)
  38 Fe ( 0.000000,  0.000000, -0.883677)
  39 Cr ( 0.000000,  0.000000,  0.510263)
  40 Fe ( 0.000000,  0.000000,  2.422031)
  41 Ni ( 0.000000,  0.000000,  0.260438)
  42 Co ( 0.000000,  0.000000,  0.910958)
  43 Ni ( 0.000000,  0.000000,  0.355464)
  44 Co ( 0.000000,  0.000000,  1.270667)
  45 Cr ( 0.000000,  0.000000, -1.567546)
  46 Ni ( 0.000000,  0.000000,  0.263583)
  47 Co ( 0.000000,  0.000000,  1.589997)
  48 Ni ( 0.000000,  0.000000,  0.445781)
  49 Fe ( 0.000000,  0.000000,  1.972075)
  50 Co ( 0.000000,  0.000000,  1.460319)
  51 Fe ( 0.000000,  0.000000,  2.664869)
  52 Cr ( 0.000000,  0.000000, -1.922106)
  53 Fe ( 0.000000,  0.000000,  1.334795)
  54 Cr ( 0.000000,  0.000000, -1.443048)
  55 Fe ( 0.000000,  0.000000,  2.423443)
  56 Co ( 0.000000,  0.000000,  1.543110)
  57 Co ( 0.000000,  0.000000,  0.939035)
  58 Co ( 0.000000,  0.000000,  1.211599)
  59 Cr ( 0.000000,  0.000000, -1.654974)
  60 Co ( 0.000000,  0.000000,  1.409870)
  61 Cr ( 0.000000,  0.000000, -1.629134)
  62 Co ( 0.000000,  0.000000,  0.900042)
  63 Fe ( 0.000000,  0.000000,  1.809272)
  64 Co ( 0.000000,  0.000000,  1.265749)
  65 Fe ( 0.000000,  0.000000,  1.933732)
  66 Ni ( 0.000000,  0.000000,  0.296442)
  67 Cr ( 0.000000,  0.000000, -2.047623)
  68 Fe ( 0.000000,  0.000000,  2.396345)
  69 Cr ( 0.000000,  0.000000, -1.950431)
  70 Cr ( 0.000000,  0.000000,  1.139461)
  71 Ni ( 0.000000,  0.000000,  0.488464)
  72 Ni ( 0.000000,  0.000000,  0.442712)
  73 Co ( 0.000000,  0.000000,  1.021939)
  74 Fe ( 0.000000,  0.000000,  1.871018)
  75 Fe ( 0.000000,  0.000000,  2.374687)
  76 Ni ( 0.000000,  0.000000,  0.694043)
  77 Ni ( 0.000000,  0.000000,  0.593098)
  78 Fe ( 0.000000,  0.000000,  2.398113)
  79 Co ( 0.000000,  0.000000,  1.256483)
  80 Co ( 0.000000,  0.000000,  1.425285)
  81 Fe ( 0.000000,  0.000000,  2.661466)
  82 Ni ( 0.000000,  0.000000,  0.637295)
  83 Co ( 0.000000,  0.000000,  1.603830)
  84 Fe ( 0.000000,  0.000000,  1.839969)
  85 Ni ( 0.000000,  0.000000,  0.421572)
  86 Ni ( 0.000000,  0.000000,  0.338315)
  87 Co ( 0.000000,  0.000000,  1.392190)
  88 Fe ( 0.000000,  0.000000,  1.836021)
  89 Fe ( 0.000000,  0.000000,  1.925690)
  90 Fe ( 0.000000,  0.000000,  1.793353)
  91 Co ( 0.000000,  0.000000,  1.353516)
  92 Ni ( 0.000000,  0.000000,  0.550942)
  93 Fe ( 0.000000,  0.000000,  1.977671)
  94 Fe ( 0.000000,  0.000000,  1.597579)
  95 Co ( 0.000000,  0.000000,  1.419960)
  96 Co ( 0.000000,  0.000000,  1.754569)
  97 Fe ( 0.000000,  0.000000,  2.568169)
  98 Co ( 0.000000,  0.000000,  1.302211)
  99 Fe ( 0.000000,  0.000000,  2.374419)
 100 Co ( 0.000000,  0.000000,  1.742321)
 101 Co ( 0.000000,  0.000000,  1.758654)
 102 Ni ( 0.000000,  0.000000,  0.574179)
 103 Fe ( 0.000000,  0.000000,  2.377870)
 104 Co ( 0.000000,  0.000000,  1.603264)
 105 Co ( 0.000000,  0.000000,  1.409077)
 106 Ni ( 0.000000,  0.000000,  0.696213)
 107 Fe ( 0.000000,  0.000000,  2.955923)
 108 Ni ( 0.000000,  0.000000,  0.572120)
 109 Cr ( 0.000000,  0.000000, -2.573322)
 110 Co ( 0.000000,  0.000000,  1.387240)
 111 Ni ( 0.000000,  0.000000,  0.448170)
 112 Ni ( 0.000000,  0.000000,  0.487976)
 113 Ni ( 0.000000,  0.000000,  0.270529)
 114 Cr ( 0.000000,  0.000000, -2.772397)
 115 Cr ( 0.000000,  0.000000, -2.437820)
 116 Ni ( 0.000000,  0.000000,  0.466668)
 117 Cr ( 0.000000,  0.000000, -2.473850)
 118 Co ( 0.000000,  0.000000,  1.241763)
 119 Cr ( 0.000000,  0.000000,  2.287275)
 120 Ni ( 0.000000,  0.000000,  0.321731)
 121 Ni ( 0.000000,  0.000000,  0.635146)
 122 Co ( 0.000000,  0.000000,  1.547273)
 123 Cr ( 0.000000,  0.000000, -2.160238)
 124 Cr ( 0.000000,  0.000000, -1.926771)

Energy contributions relative to reference atoms: (reference = -4451268.207082)

Kinetic:       +386.850667
Potential:     -410.421015
External:        +0.000000
XC:            -994.846560
Entropy (-ST):   -5.495247
Local:          +44.646562
--------------------------
Free energy:   -979.265594
Extrapolated:  -976.517970

Dipole-layer corrected work functions: 4.858166, 4.876430 eV

Spin contamination: 52.763796 electrons
Showing all kpts
                      Up                     Down
 Kpt  Band  Eigenvalues  Occupancy  Eigenvalues  Occupancy
  0   606     -0.05439    0.99855      0.96343    0.02547
  0   607     -0.03591    0.99825      0.97339    0.02311
  0   608     -0.02878    0.99813      0.98747    0.02014
  0   609     -0.01562    0.99786      0.99706    0.01833

  1   606     -0.02409    0.99804      0.97391    0.02300
  1   607     -0.01515    0.99785      0.97876    0.02193
  1   608     -0.00771    0.99769      0.99275    0.01913
  1   609     -0.00398    0.99760      0.99791    0.01818


Fermi level: 0.59900

Gap: 0.002 eV
Transition (v -> c):
  (s=1, k=1, n=565, [0.25, 0.25, 0.00]) -> (s=0, k=1, n=651, [0.25, 0.25, 0.00])

Forces in eV/Ang:
  0 Cr   -0.84459   -0.31164   -0.04408
  1 Fe    0.97270   -0.22239   -0.54544
  2 Ni   -0.53333    0.07620   -0.48444
  3 Co   -0.75943   -0.55725    0.47698
  4 Ni    1.29606   -1.78736   -0.79436
  5 Cr    0.09503    0.81452    0.46644
  6 Fe   -0.35621   -0.53457    0.57795
  7 Cr    0.98032   -0.28472    0.60626
  8 Cr   -1.17116    0.75868    0.14389
  9 Cr    0.37290   -0.41626    0.35776
 10 Ni    0.37733   -1.85718   -0.90946
 11 Cr   -0.58027    0.49975    0.79500
 12 Cr   -0.37403   -0.23586   -0.54797
 13 Cr    0.17350   -0.46683    0.02688
 14 Fe   -0.35855   -0.79582    0.10680
 15 Cr    1.35114    0.77676   -0.11777
 16 Ni    0.92354    0.51368   -0.27174
 17 Ni   -1.37292   -0.16636    0.21830
 18 Fe    0.16401    1.11884    0.13666
 19 Cr   -1.15208    0.10803   -0.49947
 20 Cr    0.05674    0.41137   -0.09677
 21 Ni   -1.92056    0.43953    0.78767
 22 Cr    1.88459   -0.24406    0.10426
 23 Ni    0.27496    1.06796   -0.06261
 24 Fe   -0.83343    0.80376   -0.74193
 25 Co    0.05785    1.60363    0.07987
 26 Co   -0.14928   -0.84315    0.01123
 27 Co   -1.01418    1.19726    1.22799
 28 Cr   -0.18843   -0.80730   -1.06746
 29 Fe   -0.51326   -0.75041    0.51935
 30 Fe   -0.63166    0.00903    0.67119
 31 Co    0.74130    0.59111    0.34161
 32 Fe   -1.39757    0.62002   -0.09597
 33 Cr    0.88044    0.03793   -0.27875
 34 Fe    1.52426    1.26620    0.73706
 35 Ni   -0.19336   -0.15849    0.14856
 36 Ni    1.08369   -0.90347    0.07991
 37 Cr   -1.05398    1.06388   -0.02939
 38 Fe    0.36579    0.81956   -0.32317
 39 Cr    0.87193    0.03257   -0.42618
 40 Fe    0.21057    0.13140    0.35724
 41 Ni    0.78234    0.74787   -0.14365
 42 Co    0.57524   -0.78083    0.44284
 43 Ni   -0.73960   -0.47249   -0.39184
 44 Co    1.54542    0.06269    0.44301
 45 Cr   -0.13989   -0.88588    0.09832
 46 Ni    1.06433   -1.38862   -0.75534
 47 Co   -1.69023   -0.60554   -0.65158
 48 Ni    1.25841    0.05379    0.60282
 49 Fe   -0.34640   -0.03155    1.18639
 50 Co    0.32905    0.68925    0.75955
 51 Fe   -0.16232    1.17757   -0.07469
 52 Cr   -0.01029   -0.73689    0.13899
 53 Fe    0.14706    0.05566    0.69845
 54 Cr    0.81008    0.32186   -0.88208
 55 Fe    1.16769   -1.95927    0.43640
 56 Co    0.21363    0.10484   -0.17106
 57 Co   -0.06631    0.32309   -0.02188
 58 Co   -0.11798   -0.85967    0.65709
 59 Cr   -0.64572   -2.09571   -0.20466
 60 Co   -0.62837    0.53939   -0.46003
 61 Cr   -1.33616   -0.44979    0.31600
 62 Co    0.34974    0.27543    0.38729
 63 Fe   -1.30683    0.32118   -0.32615
 64 Co    0.71422    1.97547    0.15827
 65 Fe   -1.21012    0.02822   -0.51364
 66 Ni    0.38439    0.50514   -0.08441
 67 Cr   -1.02784    0.60611   -0.59775
 68 Fe   -0.09542    0.05492   -0.11357
 69 Cr   -1.77791   -0.17597   -0.87011
 70 Cr    0.04296    0.68786    0.79561
 71 Ni   -1.01031   -0.57582    0.28884
 72 Ni   -0.14030   -0.76587   -0.03167
 73 Co    0.56576   -0.18951    0.50801
 74 Fe    0.80803   -0.31020    0.72912
 75 Fe    0.15979   -0.75643   -1.30295
 76 Ni   -1.51293    0.92004   -2.25075
 77 Ni   -0.03445    0.64090   -0.08214
 78 Fe   -0.82537   -0.62182   -0.09152
 79 Co   -0.78661   -0.02453    0.34227
 80 Co   -0.31320    0.28196    0.41099
 81 Fe    0.70536   -0.69759   -0.18626
 82 Ni    0.84802    0.48163   -0.37531
 83 Co    0.05702   -0.27055   -0.45653
 84 Fe    0.69217   -1.69474   -1.10289
 85 Ni    0.13023    0.70675   -0.68545
 86 Ni   -0.14317    0.38394   -1.50560
 87 Co   -1.24720   -2.77185   -0.61056
 88 Fe   -0.70950    0.76032    0.10842
 89 Fe    1.32700   -0.39648   -0.50483
 90 Fe    1.20144   -0.84953   -0.19192
 91 Co   -0.68000    0.31490    1.34080
 92 Ni    0.85735    0.89472   -0.88409
 93 Fe    0.32875    0.85521    0.31760
 94 Fe   -0.23438    1.10384   -0.46814
 95 Co    0.10803    0.30282    0.56349
 96 Co   -0.12419    0.25892   -0.04276
 97 Fe   -0.47151   -0.85863    0.34875
 98 Co    1.86138   -0.02866    1.13475
 99 Fe   -0.80317    0.19192   -0.74078
100 Co   -0.21041   -0.52558   -1.03042
101 Co    0.56033   -2.08156    0.83488
102 Ni   -0.31763    0.55686   -0.97084
103 Fe   -0.00880    0.54281    0.05640
104 Co    0.56603   -0.01002   -1.18842
105 Co    0.53240    1.24798    1.45798
106 Ni    0.67951    0.19597    0.83257
107 Fe   -0.58906   -0.67029    0.02637
108 Ni    0.53597   -0.70457   -0.22594
109 Cr    0.20092   -1.19791   -0.03054
110 Co   -0.44345   -1.05249    0.64056
111 Ni   -0.41901   -0.41115   -0.94537
112 Ni   -0.14449    0.46169   -0.89527
113 Ni   -0.75768    0.74790    1.42538
114 Cr    1.00924    0.89675   -0.16982
115 Cr   -0.07718    0.31605   -0.05024
116 Ni    0.83143   -0.13682    1.60144
117 Cr   -0.67256    0.97630    0.35984
118 Co   -0.47071   -0.95903   -0.45402
119 Cr    0.03975    0.08527    0.18885
120 Ni   -0.07695    1.54248    0.40413
121 Ni    0.37978    0.24137   -1.15978
122 Co    0.93380    0.34751    1.03497
123 Cr   -1.05554    0.71523    0.15333
124 Cr    1.01727    0.08809    0.96638

Timing:                              incl.     excl.
-----------------------------------------------------------
Forces:                             51.895    51.895   0.2% |
Hamiltonian:                         1.309     0.009   0.0% |
 Atomic:                             0.382     0.001   0.0% |
  XC Correction:                     0.381     0.381   0.0% |
 Calculate atomic Hamiltonians:      0.420     0.420   0.0% |
 Communicate:                        0.097     0.097   0.0% |
 Initialize Hamiltonian:             0.000     0.000   0.0% |
 Poisson:                            0.085     0.085   0.0% |
 XC 3D grid:                         0.316     0.316   0.0% |
LCAO initialization:               283.380     0.419   0.0% |
 LCAO eigensolver:                  14.408     0.014   0.0% |
  Calculate projections:             0.000     0.000   0.0% |
  DenseAtomicCorrection:             0.000     0.000   0.0% |
  Distribute overlap matrix:         8.976     8.976   0.0% |
  Orbital Layouts:                   5.385     5.385   0.0% |
  Potential matrix:                  0.003     0.003   0.0% |
  Sum over cells:                    0.029     0.029   0.0% |
 LCAO to grid:                     266.384   266.384   1.0% |
 Set positions (LCAO WFS):           2.170     1.880   0.0% |
  Basic WFS set positions:           0.004     0.004   0.0% |
  Basis functions set positions:     0.001     0.001   0.0% |
  P tci:                             0.000     0.000   0.0% |
  ST tci:                            0.112     0.112   0.0% |
  mktci:                             0.173     0.173   0.0% |
PWDescriptor:                        0.088     0.088   0.0% |
SCF-cycle:                       27332.420     1.918   0.0% |
 Davidson:                       26508.065  7568.565  27.3% |----------|
  Apply H:                         451.331   443.360   1.6% ||
   HMM T:                            7.971     7.971   0.0% |
  Subspace diag:                  2657.813     0.063   0.0% |
   calc_h_matrix:                 1105.602   696.043   2.5% ||
    Apply H:                       409.559   401.528   1.5% ||
     HMM T:                          8.031     8.031   0.0% |
   diagonalize:                    246.378   246.378   0.9% |
   rotate_psi:                    1305.770  1305.770   4.7% |-|
  calc. matrices:                 6164.795  5389.620  19.5% |-------|
   Apply H:                        775.176   758.910   2.7% ||
    HMM T:                          16.265    16.265   0.1% |
  diagonalize:                    6908.967  6908.967  25.0% |---------|
  rotate_psi:                     2756.593  2756.593  10.0% |---|
 Density:                          465.012     0.006   0.0% |
  Atomic density matrices:           4.002     4.002   0.0% |
  Mix:                             248.847   248.847   0.9% |
  Multipole moments:                 0.106     0.106   0.0% |
  Pseudo density:                  212.051   212.043   0.8% |
   Symmetrize density:               0.008     0.008   0.0% |
 Hamiltonian:                      338.585     1.913   0.0% |
  Atomic:                           53.950     0.251   0.0% |
   XC Correction:                   53.699    53.699   0.2% |
  Calculate atomic Hamiltonians:   209.555   209.555   0.8% |
  Communicate:                      14.295    14.295   0.1% |
  Poisson:                           6.343     6.343   0.0% |
  XC 3D grid:                       52.529    52.529   0.2% |
 Orthonormalize:                    18.840     0.001   0.0% |
  calc_s_matrix:                     2.355     2.355   0.0% |
  inverse-cholesky:                  0.940     0.940   0.0% |
  projections:                      11.401    11.401   0.0% |
  rotate_psi_s:                      4.144     4.144   0.0% |
Set symmetry:                        0.001     0.001   0.0% |
Other:                               9.385     9.385   0.0% |
-----------------------------------------------------------
Total:                                     27678.478 100.0%

Date: Mon Apr 17 22:55:47 2023
