
  ___ ___ ___ _ _ _  
 |   |   |_  | | | | 
 | | | | | . | | | | 
 |__ |  _|___|_____|  22.8.0
 |___|_|             

User:   c.zeng@d0140
Date:   Sat Apr  8 04:32:25 2023
Arch:   x86_64
Pid:    126687
CWD:    /home/c.zeng/projects/hea-corrosion/hea-mlp/data-curation/volume/dft-jobs/138
Python: 3.8.1
gpaw:   /home/c.zeng/usr/installs/gpaw/source/gpaw-22.8.0/gpaw
_gpaw:  /home/c.zeng/usr/installs/gpaw/source/gpaw-22.8.0/
        _gpaw.cpython-38-x86_64-linux-gnu.so
ase:    /home/c.zeng/.local/lib/python3.8/site-packages/ase-3.22.1-py3.8.egg/ase (version 3.22.1)
numpy:  /shared/centos7/python/3.8.1/lib/python3.8/site-packages/numpy (version 1.17.4)
scipy:  /shared/centos7/python/3.8.1/lib/python3.8/site-packages/scipy (version 1.4.1)
libxc:  4.2.3
units:  Angstrom and eV
cores: 64
OpenMP: False
OMP_NUM_THREADS: 1

Input parameters:
  convergence: {energy: 0.0001}
  kpts: [2 2 2]
  maxiter: 666
  mode: {ecut: 350.0,
         name: pw}
  occupations: {fixmagmom: False,
                name: fermi-dirac,
                width: 0.1}
  spinpol: True
  xc: PBE

System changes: positions, numbers, cell, pbc, initial_charges, initial_magmoms 

Initialize ...

species:
  Al:
    name: Aluminium
    id: 0292cae29f5d6237e50f6abdd43a7bdd
    Z: 13.0
    valence: 3
    core: 10
    charge: 0.0
    file: /home/c.zeng/usr/data/gpaw-setups-0.9.20000/Al.PBE.gz
    compensation charges: {type: gauss,
                           rc: 0.34,
                           lmax: 2}
    cutoffs: {filter: 1.91,
              core: 2.36}
    valence states:
      #              energy  rcut
      - 3s(2.00)    -7.753   1.085
      - 3p(1.00)    -2.712   1.085
      -  s          19.459   1.085
      -  p          24.499   1.085
      -  d           0.000   1.085
  
    # Using partial waves for Al as LCAO basis

  Fe:
    name: Iron
    id: 37abbd8d6c3c35915a9b583b742da910
    Z: 26.0
    valence: 8
    core: 18
    charge: 0.0
    file: /home/c.zeng/usr/data/gpaw-setups-0.9.20000/Fe.PBE.gz
    compensation charges: {type: gauss,
                           rc: 0.33,
                           lmax: 2}
    cutoffs: {filter: 2.06,
              core: 2.67}
    valence states:
      #              energy  rcut
      - 4s(2.00)    -5.291   1.164
      - 4p(0.00)    -1.326   1.058
      - 3d(6.00)    -7.505   1.058
      -  s          21.920   1.164
      -  p          25.885   1.058
      -  d          19.706   1.058
  
    # Using partial waves for Fe as LCAO basis

  Cr:
    name: Chromium
    id: 33f258bda2ca9f93018e70263a35547b
    Z: 24.0
    valence: 6
    core: 18
    charge: 0.0
    file: /home/c.zeng/usr/data/gpaw-setups-0.9.20000/Cr.PBE.gz
    compensation charges: {type: gauss,
                           rc: 0.35,
                           lmax: 2}
    cutoffs: {filter: 2.14,
              core: 3.04}
    valence states:
      #              energy  rcut
      - 4s(1.00)    -4.007   1.164
      - 4p(0.00)    -0.989   1.217
      - 3d(5.00)    -2.913   1.111
      -  s          23.205   1.164
      -  p          26.223   1.217
      -  d          24.299   1.111
  
    # Using partial waves for Cr as LCAO basis

  Ni:
    name: Nickel
    id: 0d9f38a9d6e76a2886f07bb4381f212b
    Z: 28.0
    valence: 16
    core: 12
    charge: 0.0
    file: /home/c.zeng/usr/data/gpaw-setups-0.9.20000/Ni.PBE.gz
    compensation charges: {type: gauss,
                           rc: 0.36,
                           lmax: 2}
    cutoffs: {filter: 2.14,
              core: 1.98}
    valence states:
      #              energy  rcut
      - 4s(2.00)    -5.642   1.164
      - 3p(6.00)   -71.394   1.207
      - 4p(0.00)    -1.226   1.207
      - 3d(8.00)    -8.875   1.138
      -  s          21.570   1.164
      -  d          18.337   1.138
  
    # Using partial waves for Ni as LCAO basis

  Co:
    name: Cobalt
    id: 339d20d5b0b93d2de9531a1bee871d91
    Z: 27.0
    valence: 9
    core: 18
    charge: 0.0
    file: /home/c.zeng/usr/data/gpaw-setups-0.9.20000/Co.PBE.gz
    compensation charges: {type: gauss,
                           rc: 0.32,
                           lmax: 2}
    cutoffs: {filter: 1.87,
              core: 2.55}
    valence states:
      #              energy  rcut
      - 4s(2.00)    -5.469   1.005
      - 4p(0.00)    -1.277   1.058
      - 3d(7.00)    -8.205   1.005
      -  s          21.742   1.005
      -  p          25.934   1.058
      -  d          19.007   1.005
  
    # Using partial waves for Co as LCAO basis

Reference energy: -3235165.067515  # eV

Spin-polarized calculation.
Magnetic moment: 121.100000

Convergence criteria:
 Maximum [total energy] change in last 3 cyles: 0.0001 eV / electron
 Maximum integral of absolute [dens]ity change: 0.0001 electrons / valence electron
 Maximum integral of absolute [eigenst]ate change: 4e-08 eV^2 / valence electron
 Maximum number of scf [iter]ations: 666
 (Square brackets indicate name in SCF output, whereas a 'c' in
 the SCF output indicates the quantity has converged.)

Symmetries present (total): 1

  ( 1  0  0)
  ( 0  1  0)
  ( 0  0  1)

8 k-points: 2 x 2 x 2 Monkhorst-Pack grid
4 k-points in the irreducible part of the Brillouin zone
       k-points in crystal coordinates                weights
   0:     0.25000000   -0.25000000   -0.25000000          2/8
   1:     0.25000000   -0.25000000    0.25000000          2/8
   2:     0.25000000    0.25000000   -0.25000000          2/8
   3:     0.25000000    0.25000000    0.25000000          2/8

Wave functions: Plane wave expansion
  Cutoff energy: 350.000 eV
  Number of coefficients (min, max): 19084, 19084
  Pulay-stress correction: 0.000000 eV/Ang^3 (de/decut=0.000000)
  Using FFTW library
  ScaLapack parameters: grid=1x1, blocksize=None
  Wavefunction extrapolation:
    Improved wavefunction reuse through dual PAW basis 

Occupation numbers: Fermi-Dirac:
  width: 0.1000  # eV
 

Eigensolver
   Davidson(niter=2) 

Densities:
  Coarse grid: 48*48*48 grid
  Fine grid: 96*96*96 grid
  Total Charge: 0.000000 

Density mixing:
  Method: difference
  Backend: pulay
  Linear mixing parameter: 0.05
  old densities: 5
  Damping of long wavelength oscillations: 50 

Hamiltonian:
  XC and Coulomb potentials evaluated on a 96*96*96 grid
  Using the PBE Exchange-Correlation functional
  External potential:
    NoExternalPotential
 

XC parameters: PBE with 2 nearest neighbor stencil

Memory estimate:
  Process memory now: 170.54 MiB
  Calculator: 619.44 MiB
    Density: 5.13 MiB
      Arrays: 1.85 MiB
      Localized functions: 2.55 MiB
      Mixer: 0.74 MiB
    Hamiltonian: 1.45 MiB
      Arrays: 1.37 MiB
      XC: 0.00 MiB
      Poisson: 0.00 MiB
      vbar: 0.08 MiB
    Wavefunctions: 612.85 MiB
      Arrays psit_nG: 363.42 MiB
      Eigensolver: 242.60 MiB
      Projections: 2.19 MiB
      Projectors: 0.35 MiB
      PW-descriptor: 4.31 MiB

Total number of cores used: 64
Parallelization over k-points: 4
Domain decomposition: 4 x 2 x 2

Number of atoms: 108
Number of atomic orbitals: 933
Number of bands in calculation: 624
Number of valence electrons: 912
Bands to converge: occupied

... initialized

Initializing position-dependent things.

Density initialized from atomic densities
Creating initial wave functions:
  624 bands from LCAO basis set

        .--------Ni----------------.  
       /|           Ni             |  
      / |    CrFe     Co           |  
     / Al       Co       Ni        |  
    /   |Co      CoAl       Al     |  
   /    | FeFe      FCr            |  
  /    Cr  CorAlNi    Co Fe  CrCr  |  
 *      Cr     FeCoFe   CoNi     Al|  
 |      |AlAl   NiNiFe   NiFeAl   Cr  
 |      | FeCr   AlCoCrNi AlFeCr   |  
 |     Co  Fe NiCr  CrCr Fe  CrFe  |  
 |      Al  Cr AlNiNi AlNiNiCo   Co|  
 |      |CoAl   NiCoCo   CrCrCo   Al  
 |      .-NiCo-----NiAl-Cr--FeFe---.  
 |     Ni  Cr AlAl    Co Ni  Ni Co/   
 |    / Cr              Co       Ni   
 |   /           Fee      AlFe  /     
 |  /      Al       Co     FeFe/      
 | /                   Ni     /e      
 |/                          /        
 *--------------------------Al        

Positions:
   0 Al    10.797859    0.093658    0.085779    ( 0.0000,  0.0000,  0.0000)
   1 Fe    10.831835    1.844753    1.870716    ( 0.0000,  0.0000,  2.0000)
   2 Cr     1.786792   10.847372    1.827335    ( 0.0000,  0.0000,  0.0000)
   3 Cr     1.769614    1.870542   -0.031267    ( 0.0000,  0.0000,  0.0000)
   4 Ni     3.620846   10.822061   10.833640    ( 0.0000,  0.0000,  1.5000)
   5 Al     3.571257    1.883176    1.708413    ( 0.0000,  0.0000,  0.0000)
   6 Al     5.521103   10.788063    1.666228    ( 0.0000,  0.0000,  0.0000)
   7 Ni     5.520842    1.813951   10.830911    ( 0.0000,  0.0000,  1.5000)
   8 Fe     7.330857    0.011012   10.815668    ( 0.0000,  0.0000,  2.0000)
   9 Co     7.282018    1.809483    1.793250    ( 0.0000,  0.0000,  2.1000)
  10 Ni     9.030017    0.022001    1.811929    ( 0.0000,  0.0000,  1.5000)
  11 Fe     9.007196    1.868629   10.825725    ( 0.0000,  0.0000,  2.0000)
  12 Fe    10.861299    3.649723    0.014170    ( 0.0000,  0.0000,  2.0000)
  13 Co    10.867442    5.463457    1.819224    ( 0.0000,  0.0000,  2.1000)
  14 Cr     1.756099    3.650256    1.845927    ( 0.0000,  0.0000,  0.0000)
  15 Co     1.790369    5.439081   10.869062    ( 0.0000,  0.0000,  2.1000)
  16 Fe     3.687853    3.622771   -0.049303    ( 0.0000,  0.0000,  2.0000)
  17 Al     3.667358    5.391134    1.745346    ( 0.0000,  0.0000,  0.0000)
  18 Fe     5.497988    3.634415    1.792359    ( 0.0000,  0.0000,  2.0000)
  19 Fe     5.524908    5.448029    0.002544    ( 0.0000,  0.0000,  2.0000)
  20 Cr     7.223329    3.611866   10.834260    ( 0.0000,  0.0000,  0.0000)
  21 Co     7.217762    5.474841    1.807776    ( 0.0000,  0.0000,  2.1000)
  22 Al     9.073431    3.654355    1.775148    ( 0.0000,  0.0000,  0.0000)
  23 Fe     9.008729    5.418619    0.007687    ( 0.0000,  0.0000,  2.0000)
  24 Ni    10.859190    7.178720    0.014474    ( 0.0000,  0.0000,  1.5000)
  25 Al    -0.018098    8.970937    1.875402    ( 0.0000,  0.0000,  0.0000)
  26 Ni     1.817615    7.224014    1.802535    ( 0.0000,  0.0000,  1.5000)
  27 Cr     1.880708    8.993475   10.874031    ( 0.0000,  0.0000,  0.0000)
  28 Fe     3.684428    7.260458   -0.001352    ( 0.0000,  0.0000,  2.0000)
  29 Ni     3.612594    9.025647    1.761818    ( 0.0000,  0.0000,  1.5000)
  30 Ni     5.481429    7.275125    1.811211    ( 0.0000,  0.0000,  1.5000)
  31 Ni     5.461261    9.048163   10.834010    ( 0.0000,  0.0000,  1.5000)
  32 Co     7.245704    7.257903    0.056888    ( 0.0000,  0.0000,  2.1000)
  33 Cr     7.301980    9.004609    1.790325    ( 0.0000,  0.0000,  0.0000)
  34 Fe     9.029343    7.181764    1.815549    ( 0.0000,  0.0000,  2.0000)
  35 Ni     9.030572    9.042010    0.020240    ( 0.0000,  0.0000,  1.5000)
  36 Fe    -0.031035    0.001949    3.645701    ( 0.0000,  0.0000,  2.0000)
  37 Co    10.825920    1.804362    5.434591    ( 0.0000,  0.0000,  2.1000)
  38 Cr     1.743542   10.849296    5.484365    ( 0.0000,  0.0000,  0.0000)
  39 Ni     1.769755    1.791902    3.636068    ( 0.0000,  0.0000,  1.5000)
  40 Al     3.516645   10.719849    3.663216    ( 0.0000,  0.0000,  0.0000)
  41 Al     3.644244    1.785205    5.586728    ( 0.0000,  0.0000,  0.0000)
  42 Cr     5.484778   10.815429    5.504011    ( 0.0000,  0.0000,  0.0000)
  43 Al     5.457934    1.842230    3.658769    ( 0.0000,  0.0000,  0.0000)
  44 Al     7.360615   10.815429    3.672240    ( 0.0000,  0.0000,  0.0000)
  45 Co     7.266906    1.811614    5.485517    ( 0.0000,  0.0000,  2.1000)
  46 Cr     9.078008    0.023586    5.491910    ( 0.0000,  0.0000,  0.0000)
  47 Ni     9.066788    1.824226    3.671175    ( 0.0000,  0.0000,  1.5000)
  48 Fe    -0.047126    3.649625    3.617291    ( 0.0000,  0.0000,  2.0000)
  49 Fe    10.809275    5.435983    5.379816    ( 0.0000,  0.0000,  2.0000)
  50 Al     1.752326    3.625000    5.344687    ( 0.0000,  0.0000,  0.0000)
  51 Co     1.805786    5.472046    3.619378    ( 0.0000,  0.0000,  2.1000)
  52 Co     3.649408    3.633491    3.631240    ( 0.0000,  0.0000,  2.1000)
  53 Ni     3.657628    5.433808    5.434026    ( 0.0000,  0.0000,  1.5000)
  54 Ni     5.413357    3.672642    5.480320    ( 0.0000,  0.0000,  1.5000)
  55 Co     5.413825    5.465588    3.639666    ( 0.0000,  0.0000,  2.1000)
  56 Al     7.223449    3.731745    3.720829    ( 0.0000,  0.0000,  0.0000)
  57 Cr     7.220546    5.483180    5.485582    ( 0.0000,  0.0000,  0.0000)
  58 Ni     9.069039    3.623673    5.469730    ( 0.0000,  0.0000,  1.5000)
  59 Cr     9.064777    5.503837    3.636731    ( 0.0000,  0.0000,  0.0000)
  60 Co    -0.007799    7.208292    3.671501    ( 0.0000,  0.0000,  2.1000)
  61 Cr    -0.032903    9.095350    5.398690    ( 0.0000,  0.0000,  0.0000)
  62 Fe     1.823693    7.248705    5.440777    ( 0.0000,  0.0000,  2.0000)
  63 Fe     1.739856    8.989159    3.676437    ( 0.0000,  0.0000,  2.0000)
  64 Al     3.645342    7.306079    3.692332    ( 0.0000,  0.0000,  0.0000)
  65 Ni     3.652289    9.051545    5.521624    ( 0.0000,  0.0000,  1.5000)
  66 Co     5.474243    7.265373    5.482875    ( 0.0000,  0.0000,  2.1000)
  67 Cr     5.473590    9.034888    3.664390    ( 0.0000,  0.0000,  0.0000)
  68 Ni     7.218426    7.243171    3.634654    ( 0.0000,  0.0000,  1.5000)
  69 Ni     7.240823    9.039172    5.472851    ( 0.0000,  0.0000,  1.5000)
  70 Fe     8.972600    7.234049    5.399136    ( 0.0000,  0.0000,  2.0000)
  71 Cr     9.065527    8.978210    3.651191    ( 0.0000,  0.0000,  0.0000)
  72 Co    10.856755    0.017918    7.210891    ( 0.0000,  0.0000,  2.1000)
  73 Al    10.824670    1.882208    8.982799    ( 0.0000,  0.0000,  0.0000)
  74 Cr     1.860746   10.856668    9.009795    ( 0.0000,  0.0000,  0.0000)
  75 Co     1.767189    1.801948    7.237202    ( 0.0000,  0.0000,  2.1000)
  76 Co     3.637111   10.797783    7.275690    ( 0.0000,  0.0000,  2.1000)
  77 Al     3.668043    1.775811    9.018732    ( 0.0000,  0.0000,  0.0000)
  78 Co     5.482495   10.845154    9.071409    ( 0.0000,  0.0000,  2.1000)
  79 Cr     5.527528    1.773386    7.253478    ( 0.0000,  0.0000,  0.0000)
  80 Ni     7.260513    0.005366    7.255174    ( 0.0000,  0.0000,  1.5000)
  81 Fe     7.265123    1.802361    9.014883    ( 0.0000,  0.0000,  2.0000)
  82 Ni     9.024799    0.026381    9.025244    ( 0.0000,  0.0000,  1.5000)
  83 Fe     9.016307    1.814658    7.226439    ( 0.0000,  0.0000,  2.0000)
  84 Cr    10.804437    3.613888    7.198170    ( 0.0000,  0.0000,  0.0000)
  85 Cr    10.834662    5.395798    9.098938    ( 0.0000,  0.0000,  0.0000)
  86 Cr     1.818757    3.628859    9.065668    ( 0.0000,  0.0000,  0.0000)
  87 Al     1.809776    5.464294    7.231179    ( 0.0000,  0.0000,  0.0000)
  88 Cr     3.671599    3.637090    7.249575    ( 0.0000,  0.0000,  0.0000)
  89 Al     3.679557    5.412074    9.119617    ( 0.0000,  0.0000,  0.0000)
  90 Co     5.499662    3.591078    9.044978    ( 0.0000,  0.0000,  2.1000)
  91 Ni     5.468295    5.448475    7.223057    ( 0.0000,  0.0000,  1.5000)
  92 Cr     7.241877    3.617389    7.225101    ( 0.0000,  0.0000,  0.0000)
  93 Co     7.214620    5.385904    9.048566    ( 0.0000,  0.0000,  2.1000)
  94 Ni     8.994280    3.655975    9.039237    ( 0.0000,  0.0000,  1.5000)
  95 Fe     9.006566    5.423262    7.223307    ( 0.0000,  0.0000,  2.0000)
  96 Al    -0.070641    7.291945    7.110419    ( 0.0000,  0.0000,  0.0000)
  97 Al     0.073007    9.104570    9.068375    ( 0.0000,  0.0000,  0.0000)
  98 Fe     1.863247    7.257392    9.054796    ( 0.0000,  0.0000,  2.0000)
  99 Co     1.858321    9.053708    7.225808    ( 0.0000,  0.0000,  2.1000)
 100 Fe     3.683906    7.292477    7.235560    ( 0.0000,  0.0000,  2.0000)
 101 Co     3.628207    9.069560    9.051273    ( 0.0000,  0.0000,  2.1000)
 102 Al     5.530605    7.331912    9.040129    ( 0.0000,  0.0000,  0.0000)
 103 Fe     5.476210    9.097220    7.250456    ( 0.0000,  0.0000,  2.0000)
 104 Co     7.256816    7.264253    7.208456    ( 0.0000,  0.0000,  2.1000)
 105 Ni     7.272559    9.136437    9.056861    ( 0.0000,  0.0000,  1.5000)
 106 Al     8.936493    7.190886    9.109756    ( 0.0000,  0.0000,  0.0000)
 107 Cr     8.994704    9.112180    7.218458    ( 0.0000,  0.0000,  0.0000)

Unit cell:
           periodic     x           y           z      points  spacing
  1. axis:    yes   10.872400    0.000000    0.000000    48     0.2265
  2. axis:    yes    0.000000   10.872400    0.000000    48     0.2265
  3. axis:    yes    0.000000    0.000000   10.872400    48     0.2265

  Lengths:  10.872400  10.872400  10.872400
  Angles:   90.000000  90.000000  90.000000

Effective grid spacing dv^(1/3) = 0.2265

     iter     time        total  log10-change:  magmom
                         energy  eigst   dens
iter:   1 04:34:10  -974.536603                  +121.3860
iter:   2 04:34:54  -859.630524  -0.18  -1.16    +64.8613
iter:   3 04:35:39  -844.854041  -0.85  -1.20    +55.9878
iter:   4 04:36:23  -831.561758  -1.24  -1.26    +51.9979
iter:   5 04:37:08  -819.838979  -1.54  -1.29    +49.8282
iter:   6 04:37:53  -813.402131  -1.35  -1.35    +50.1050
iter:   7 04:38:39  -816.006428  -1.35  -1.48    +49.5108
iter:   8 04:39:24  -810.726743  -1.66  -1.52    +50.0361
iter:   9 04:40:09  -806.639718  -2.07  -1.64    +51.0670
iter:  10 04:40:55  -806.648761  -2.52  -1.77    +51.9934
iter:  11 04:41:40  -807.110958  -2.50  -1.80    +53.0123
iter:  12 04:42:25  -808.028458  -2.40  -1.85    +54.2346
iter:  13 04:43:11  -807.869406  -2.52  -1.87    +54.6394
iter:  14 04:43:56  -807.631118  -2.68  -1.93    +55.3424
iter:  15 04:44:41  -807.607162  -2.92  -1.99    +55.7688
iter:  16 04:45:26  -807.863222  -2.94  -2.04    +56.0246
iter:  17 04:46:11  -807.833558  -2.87  -2.08    +56.4318
iter:  18 04:46:56  -807.639636  -3.10  -2.14    +56.3520
iter:  19 04:47:40  -807.746197  -3.16  -2.25    +56.3990
iter:  20 04:48:25  -807.730842  -3.30  -2.28    +56.4184
iter:  21 04:49:10  -807.722943c -3.38  -2.33    +56.2469
iter:  22 04:49:56  -807.780656c -3.35  -2.40    +56.0928
iter:  23 04:50:41  -807.782818c -3.64  -2.43    +56.0198
iter:  24 04:51:26  -807.821459c -3.70  -2.48    +55.7086
iter:  25 04:52:11  -807.885704  -3.70  -2.51    +55.4708
iter:  26 04:52:56  -807.912517c -3.88  -2.53    +55.3062
iter:  27 04:53:41  -807.932653c -3.87  -2.56    +54.9768
iter:  28 04:54:26  -807.990988c -3.96  -2.62    +54.7009
iter:  29 04:55:11  -808.017468c -4.00  -2.64    +54.5000
iter:  30 04:55:57  -808.046337c -4.19  -2.67    +54.1551
iter:  31 04:56:41  -808.092105c -4.11  -2.71    +53.8367
iter:  32 04:57:27  -808.134376c -4.21  -2.74    +53.4688
iter:  33 04:58:12  -808.186203  -4.08  -2.77    +52.9936
iter:  34 04:58:58  -808.255864  -3.83  -2.80    +52.3411
iter:  35 04:59:43  -808.290512  -4.00  -2.81    +52.0039
iter:  36 05:00:30  -808.337930c -3.92  -2.81    +51.5606
iter:  37 05:01:15  -808.377919c -3.94  -2.75    +51.1977
iter:  38 05:01:59  -808.364691c -4.12  -2.75    +51.1698
iter:  39 05:02:45  -808.359728c -4.39  -2.87    +51.1621
iter:  40 05:03:31  -808.362624c -4.85  -2.92    +51.1272
iter:  41 05:04:16  -808.371288c -4.54  -2.93    +51.1128
iter:  42 05:05:01  -808.361986c -4.50  -2.92    +51.1243
iter:  43 05:05:47  -808.363638c -5.09  -2.99    +51.1278
iter:  44 05:06:33  -808.364381c -4.86  -3.01    +51.0907
iter:  45 05:07:19  -808.366045c -4.77  -3.06    +51.0990
iter:  46 05:08:05  -808.362117c -4.88  -3.13    +51.1148
iter:  47 05:08:51  -808.363428c -5.07  -3.21    +51.1018
iter:  48 05:09:36  -808.362194c -5.23  -3.26    +51.1134
iter:  49 05:10:22  -808.365920c -5.05  -3.34    +51.1434
iter:  50 05:11:08  -808.363511c -5.28  -3.34    +51.1315
iter:  51 05:11:54  -808.363352c -5.46  -3.44    +51.1293
iter:  52 05:12:39  -808.364015c -5.76  -3.52    +51.1436
iter:  53 05:13:24  -808.364157c -5.80  -3.57    +51.1485
iter:  54 05:14:10  -808.365691c -5.92  -3.59    +51.1478
iter:  55 05:14:56  -808.365459c -5.77  -3.61    +51.1497
iter:  56 05:15:43  -808.365649c -6.06  -3.69    +51.1385
iter:  57 05:16:28  -808.366403c -6.08  -3.76    +51.1407
iter:  58 05:17:13  -808.366785c -6.11  -3.80    +51.1313
iter:  59 05:18:00  -808.367106c -6.32  -3.78    +51.1284
iter:  60 05:18:46  -808.367500c -6.25  -3.87    +51.1226
iter:  61 05:19:32  -808.368369c -6.34  -3.92    +51.1186
iter:  62 05:20:17  -808.368232c -6.48  -3.95    +51.1151
iter:  63 05:21:02  -808.368904c -6.40  -4.00c   +51.1111
iter:  64 05:21:48  -808.369548c -6.29  -4.06c   +51.1036
iter:  65 05:22:33  -808.369752c -6.57  -4.05c   +51.1059
iter:  66 05:23:20  -808.370021c -6.65  -4.11c   +51.1010
iter:  67 05:24:06  -808.370532c -6.43  -4.19c   +51.0944
iter:  68 05:24:52  -808.371067c -6.33  -4.18c   +51.0927
iter:  69 05:25:38  -808.371739c -6.30  -4.21c   +51.0913
iter:  70 05:26:24  -808.373931c -5.46  -4.15c   +51.0962
iter:  71 05:27:10  -808.373787c -6.50  -3.96    +51.1060
iter:  72 05:27:55  -808.373941c -6.78  -3.97    +51.1172
iter:  73 05:28:41  -808.374216c -6.65  -3.96    +51.1317
iter:  74 05:29:27  -808.374341c -6.52  -3.94    +51.1443
iter:  75 05:30:13  -808.374717c -6.15  -3.92    +51.1420
iter:  76 05:31:00  -808.374129c -6.39  -3.81    +51.1418
iter:  77 05:31:46  -808.374114c -6.54  -3.89    +51.1364
iter:  78 05:32:32  -808.373760c -5.87  -3.86    +51.1368
iter:  79 05:33:18  -808.374108c -6.26  -3.78    +51.1295
iter:  80 05:34:04  -808.373981c -6.91  -3.97    +51.1179
iter:  81 05:34:50  -808.373689c -7.00  -4.05c   +51.1102
iter:  82 05:35:36  -808.373756c -6.43  -4.05c   +51.1061
iter:  83 05:36:21  -808.373892c -6.70  -4.12c   +51.1028
iter:  84 05:37:07  -808.374130c -6.27  -4.17c   +51.0976
iter:  85 05:37:52  -808.373424c -6.49  -4.01c   +51.0990
iter:  86 05:38:38  -808.373484c -6.88  -4.22c   +51.0989
iter:  87 05:39:24  -808.373630c -7.10  -4.36c   +51.0999
iter:  88 05:40:11  -808.373460c -7.46c -4.38c   +51.0976

Converged after 88 iterations.

Dipole moment: (29.753974, 17.237958, 7.639094) |e|*Ang

Total magnetic moment: (0.000000, 0.000000, 51.097644)
Local magnetic moments:
   0 Al ( 0.000000,  0.000000, -0.004721)
   1 Fe ( 0.000000,  0.000000,  2.091175)
   2 Cr ( 0.000000,  0.000000, -2.125384)
   3 Cr ( 0.000000,  0.000000,  1.611577)
   4 Ni ( 0.000000,  0.000000,  0.066288)
   5 Al ( 0.000000,  0.000000, -0.009340)
   6 Al ( 0.000000,  0.000000, -0.014676)
   7 Ni ( 0.000000,  0.000000,  0.302472)
   8 Fe ( 0.000000,  0.000000,  2.328059)
   9 Co ( 0.000000,  0.000000,  0.956794)
  10 Ni ( 0.000000,  0.000000,  0.253784)
  11 Fe ( 0.000000,  0.000000,  2.058732)
  12 Fe ( 0.000000,  0.000000,  2.062623)
  13 Co ( 0.000000,  0.000000,  1.328851)
  14 Cr ( 0.000000,  0.000000, -2.062132)
  15 Co ( 0.000000,  0.000000,  0.945840)
  16 Fe ( 0.000000,  0.000000,  2.064272)
  17 Al ( 0.000000,  0.000000, -0.037882)
  18 Fe ( 0.000000,  0.000000,  2.247682)
  19 Fe ( 0.000000,  0.000000,  2.203807)
  20 Cr ( 0.000000,  0.000000, -1.947894)
  21 Co ( 0.000000,  0.000000,  1.130045)
  22 Al ( 0.000000,  0.000000, -0.035473)
  23 Fe ( 0.000000,  0.000000,  2.193502)
  24 Ni ( 0.000000,  0.000000,  0.082519)
  25 Al ( 0.000000,  0.000000, -0.013683)
  26 Ni ( 0.000000,  0.000000,  0.297043)
  27 Cr ( 0.000000,  0.000000, -1.293651)
  28 Fe ( 0.000000,  0.000000,  2.357255)
  29 Ni ( 0.000000,  0.000000,  0.206221)
  30 Ni ( 0.000000,  0.000000,  0.322662)
  31 Ni ( 0.000000,  0.000000,  0.268445)
  32 Co ( 0.000000,  0.000000,  1.190750)
  33 Cr ( 0.000000,  0.000000, -2.023977)
  34 Fe ( 0.000000,  0.000000,  2.091718)
  35 Ni ( 0.000000,  0.000000,  0.164398)
  36 Fe ( 0.000000,  0.000000,  1.912350)
  37 Co ( 0.000000,  0.000000,  0.839882)
  38 Cr ( 0.000000,  0.000000, -1.714723)
  39 Ni ( 0.000000,  0.000000, -0.006549)
  40 Al ( 0.000000,  0.000000,  0.001878)
  41 Al ( 0.000000,  0.000000, -0.000246)
  42 Cr ( 0.000000,  0.000000, -1.776574)
  43 Al ( 0.000000,  0.000000, -0.005424)
  44 Al ( 0.000000,  0.000000, -0.003458)
  45 Co ( 0.000000,  0.000000,  0.266287)
  46 Cr ( 0.000000,  0.000000, -1.626869)
  47 Ni ( 0.000000,  0.000000,  0.233910)
  48 Fe ( 0.000000,  0.000000,  2.200160)
  49 Fe ( 0.000000,  0.000000,  1.961598)
  50 Al ( 0.000000,  0.000000, -0.029914)
  51 Co ( 0.000000,  0.000000,  1.267100)
  52 Co ( 0.000000,  0.000000,  1.023843)
  53 Ni ( 0.000000,  0.000000,  0.361491)
  54 Ni ( 0.000000,  0.000000,  0.098108)
  55 Co ( 0.000000,  0.000000,  1.145275)
  56 Al ( 0.000000,  0.000000, -0.009639)
  57 Cr ( 0.000000,  0.000000, -1.509469)
  58 Ni ( 0.000000,  0.000000,  0.118984)
  59 Cr ( 0.000000,  0.000000, -1.688240)
  60 Co ( 0.000000,  0.000000,  1.018488)
  61 Cr ( 0.000000,  0.000000, -1.082001)
  62 Fe ( 0.000000,  0.000000,  2.206992)
  63 Fe ( 0.000000,  0.000000,  2.135375)
  64 Al ( 0.000000,  0.000000, -0.028526)
  65 Ni ( 0.000000,  0.000000,  0.329251)
  66 Co ( 0.000000,  0.000000,  1.079825)
  67 Cr ( 0.000000,  0.000000,  2.097428)
  68 Ni ( 0.000000,  0.000000,  0.171444)
  69 Ni ( 0.000000,  0.000000,  0.183805)
  70 Fe ( 0.000000,  0.000000,  1.667583)
  71 Cr ( 0.000000,  0.000000,  1.218277)
  72 Co ( 0.000000,  0.000000,  0.477876)
  73 Al ( 0.000000,  0.000000, -0.014418)
  74 Cr ( 0.000000,  0.000000, -1.878464)
  75 Co ( 0.000000,  0.000000,  0.057900)
  76 Co ( 0.000000,  0.000000,  0.964037)
  77 Al ( 0.000000,  0.000000, -0.021022)
  78 Co ( 0.000000,  0.000000,  1.346977)
  79 Cr ( 0.000000,  0.000000,  0.976960)
  80 Ni ( 0.000000,  0.000000,  0.321535)
  81 Fe ( 0.000000,  0.000000,  2.060801)
  82 Ni ( 0.000000,  0.000000,  0.246865)
  83 Fe ( 0.000000,  0.000000,  2.156031)
  84 Cr ( 0.000000,  0.000000, -1.415197)
  85 Cr ( 0.000000,  0.000000, -1.489623)
  86 Cr ( 0.000000,  0.000000, -1.544898)
  87 Al ( 0.000000,  0.000000, -0.019175)
  88 Cr ( 0.000000,  0.000000,  1.705403)
  89 Al ( 0.000000,  0.000000, -0.045390)
  90 Co ( 0.000000,  0.000000,  1.079319)
  91 Ni ( 0.000000,  0.000000,  0.179550)
  92 Cr ( 0.000000,  0.000000, -1.652434)
  93 Co ( 0.000000,  0.000000,  1.279035)
  94 Ni ( 0.000000,  0.000000,  0.223404)
  95 Fe ( 0.000000,  0.000000,  1.985980)
  96 Al ( 0.000000,  0.000000, -0.033091)
  97 Al ( 0.000000,  0.000000, -0.008822)
  98 Fe ( 0.000000,  0.000000,  2.061566)
  99 Co ( 0.000000,  0.000000,  1.034540)
 100 Fe ( 0.000000,  0.000000,  2.328916)
 101 Co ( 0.000000,  0.000000,  1.220690)
 102 Al ( 0.000000,  0.000000, -0.046172)
 103 Fe ( 0.000000,  0.000000,  2.333213)
 104 Co ( 0.000000,  0.000000,  1.113510)
 105 Ni ( 0.000000,  0.000000,  0.321867)
 106 Al ( 0.000000,  0.000000, -0.029675)
 107 Cr ( 0.000000,  0.000000,  1.514008)

Energy contributions relative to reference atoms: (reference = -3235165.067515)

Kinetic:       +244.816374
Potential:     -238.703281
External:        +0.000000
XC:            -843.830547
Entropy (-ST):   -3.918766
Local:          +31.303377
--------------------------
Free energy:   -810.332843
Extrapolated:  -808.373460

Spin contamination: 32.126940 electrons
Showing only first 2 kpts
                      Up                     Down
 Kpt  Band  Eigenvalues  Occupancy  Eigenvalues  Occupancy
  0   454      9.01929    0.99493      9.88142    0.03414
  0   455      9.03862    0.99385      9.88930    0.03164
  0   456      9.05350    0.99287      9.90389    0.02746
  0   457      9.07670    0.99103      9.91608    0.02439

  1   454      9.02428    0.99467      9.87293    0.03706
  1   455      9.04279    0.99359      9.88186    0.03400
  1   456      9.05781    0.99256      9.89390    0.03026
  1   457      9.07306    0.99135      9.91012    0.02585


Fermi level: 9.54718

No gap

Forces in eV/Ang:
  0 Al   -0.43149   -0.60041   -0.36839
  1 Fe    0.26654    0.01235    0.21799
  2 Cr   -0.09743    0.20538   -0.24527
  3 Cr    0.09765   -0.29512   -0.42121
  4 Ni   -0.22249    0.18316    0.04655
  5 Al    0.49215   -0.11944    0.26768
  6 Al   -0.67351    0.24464   -0.29835
  7 Ni   -0.27823   -0.12826    0.14363
  8 Fe    0.20395   -0.01687   -0.01698
  9 Co   -0.14852    0.12059    0.18780
 10 Ni    0.03120   -0.11436    0.12682
 11 Fe   -0.17285    0.10743    0.40326
 12 Fe   -0.02986    0.32393   -0.16286
 13 Co    0.57337    0.05426    0.00142
 14 Cr   -0.85886   -0.02458   -0.12266
 15 Co   -0.12323   -0.15643   -0.10493
 16 Fe    0.02979    0.31290    0.01713
 17 Al   -0.06963    0.36301    0.35332
 18 Fe    0.09073   -0.08867    0.11215
 19 Fe    0.30532   -0.05966   -0.11458
 20 Cr   -0.40975    0.06839   -0.18660
 21 Co   -0.11105   -0.03744    0.24484
 22 Al   -0.11300   -0.24630    0.36865
 23 Fe   -0.14902   -0.00750   -0.19138
 24 Ni    0.21661    0.33919   -0.29038
 25 Al   -0.25788   -0.34592   -0.57914
 26 Ni    0.00405   -0.22407    0.08267
 27 Cr    0.29028   -0.09822   -0.22294
 28 Fe   -0.42530    0.29882   -0.06189
 29 Ni    0.15343    0.11288    0.45726
 30 Ni   -0.30003   -0.28653   -0.12771
 31 Ni   -0.01924    0.03128    0.09707
 32 Co   -0.02456   -0.14867    0.24728
 33 Cr    0.34242   -0.36874   -0.20229
 34 Fe   -0.24588   -0.34926   -0.15819
 35 Ni    0.56092    0.16403   -0.28349
 36 Fe    0.15922    0.48239    0.18561
 37 Co    0.23507   -0.39101    0.16654
 38 Cr   -0.79833   -0.09616    0.74479
 39 Ni    0.24146   -0.12790   -0.00244
 40 Al    0.50877    0.14123    0.04447
 41 Al   -0.50444   -0.07075   -0.68319
 42 Cr   -0.00330   -0.03697    0.03251
 43 Al    0.19716    0.25716    0.24628
 44 Al   -0.04834    0.79446   -0.20652
 45 Co   -0.29882   -0.22906   -0.12137
 46 Cr    0.29126    0.11538    0.36635
 47 Ni    0.03965    0.04590   -0.41008
 48 Fe   -0.07476    0.07186   -0.06684
 49 Fe    0.03149   -0.12054    0.08438
 50 Al    0.41906   -0.14724   -0.33138
 51 Co   -0.18253   -0.09729    0.12194
 52 Co    0.03891    0.18296   -0.23198
 53 Ni   -0.11511   -0.01834    0.09886
 54 Ni    0.27900   -0.28450   -0.27922
 55 Co    0.03475   -0.13938   -0.07485
 56 Al    0.22037   -0.70361   -0.28647
 57 Cr   -0.29162    0.99654    0.30738
 58 Ni   -0.29177    0.11742   -0.12234
 59 Cr    0.56501    0.66178    0.14269
 60 Co    0.04111   -0.18722   -0.05092
 61 Cr    0.05642    0.04328   -0.27654
 62 Fe   -0.27622    0.09125   -0.04222
 63 Fe   -0.11736    0.08418    0.09004
 64 Al   -0.16395   -0.35737   -0.26521
 65 Ni   -0.42576    0.23257   -0.02428
 66 Co    0.04804   -0.22469    0.22009
 67 Cr    0.81048    0.15633    0.14474
 68 Ni   -0.01569   -0.14808    0.14281
 69 Ni    0.24649    0.07301   -0.15935
 70 Fe    0.08365   -0.31280   -0.26859
 71 Cr   -0.16756   -0.19182    0.81831
 72 Co    0.37581   -0.20290   -0.30089
 73 Al   -0.42809   -0.57425    0.04128
 74 Cr    0.09089    0.17569    0.10992
 75 Co    0.04754    0.34968   -0.08467
 76 Co   -0.05470   -0.25605    0.07368
 77 Al    0.44098   -0.20325    0.44121
 78 Co   -0.04125   -0.22980   -0.02104
 79 Cr    0.49626    0.09256    0.02012
 80 Ni   -0.21447   -0.05146   -0.29605
 81 Fe   -0.14704    0.15003    0.23216
 82 Ni    0.44434   -0.04906    0.29466
 83 Fe    0.15894    0.14845   -0.33871
 84 Cr   -0.33132    0.36792   -0.41329
 85 Cr    0.30474   -0.10701    0.48356
 86 Cr    0.01371   -0.05189    0.24656
 87 Al    0.16735    0.24396   -0.21347
 88 Cr    0.01718    0.38488    0.38539
 89 Al    0.21938    0.26130   -0.01472
 90 Co    0.14413    0.21115    0.01226
 91 Ni   -0.27944   -0.01245    0.33725
 92 Cr    0.05861   -0.29712    0.13757
 93 Co    0.02522   -0.20420   -0.10925
 94 Ni    0.25268    0.12411   -0.11936
 95 Fe    0.05005   -0.31923    0.05571
 96 Al    0.29346   -0.54660    0.54420
 97 Al   -0.83183   -0.17231   -0.16142
 98 Fe   -0.24268   -0.02956    0.28200
 99 Co   -0.13850   -0.01755   -0.08993
100 Fe   -0.25904   -0.13278   -0.09565
101 Co   -0.26434    0.35402   -0.13065
102 Al    0.51415   -0.12214    0.14195
103 Fe    0.06988    0.35865   -0.30702
104 Co   -0.02922   -0.04117   -0.29882
105 Ni   -0.07372   -0.28828    0.04811
106 Al   -0.29523    0.58912    0.17635
107 Cr    0.18005    0.20551   -0.33080

Timing:                              incl.     excl.
-----------------------------------------------------------
Forces:                             12.437    12.437   0.3% |
Hamiltonian:                         0.850     0.040   0.0% |
 Atomic:                             0.456     0.404   0.0% |
  XC Correction:                     0.052     0.052   0.0% |
 Calculate atomic Hamiltonians:      0.127     0.127   0.0% |
 Communicate:                        0.030     0.030   0.0% |
 Initialize Hamiltonian:             0.000     0.000   0.0% |
 Poisson:                            0.000     0.000   0.0% |
 XC 3D grid:                         0.196     0.196   0.0% |
LCAO initialization:                45.635     0.846   0.0% |
 LCAO eigensolver:                   4.845     0.006   0.0% |
  Calculate projections:             0.054     0.054   0.0% |
  DenseAtomicCorrection:             0.061     0.061   0.0% |
  Distribute overlap matrix:         1.155     1.155   0.0% |
  Orbital Layouts:                   2.383     2.383   0.1% |
  Potential matrix:                  1.013     1.013   0.0% |
  Sum over cells:                    0.174     0.174   0.0% |
 LCAO to grid:                      38.680    38.680   0.9% |
 Set positions (LCAO WFS):           1.263     0.735   0.0% |
  Basic WFS set positions:           0.003     0.003   0.0% |
  Basis functions set positions:     0.001     0.001   0.0% |
  P tci:                             0.116     0.116   0.0% |
  ST tci:                            0.144     0.144   0.0% |
  mktci:                             0.265     0.265   0.0% |
PWDescriptor:                        0.152     0.152   0.0% |
SCF-cycle:                        4016.604   311.661   7.6% |--|
 Davidson:                        3540.469  1148.845  28.2% |----------|
  Apply H:                          38.935    38.282   0.9% |
   HMM T:                            0.653     0.653   0.0% |
  Subspace diag:                   307.006     0.035   0.0% |
   calc_h_matrix:                  123.910    76.697   1.9% ||
    Apply H:                        47.213    46.605   1.1% |
     HMM T:                          0.608     0.608   0.0% |
   diagonalize:                     53.577    53.577   1.3% ||
   rotate_psi:                     129.485   129.485   3.2% ||
  calc. matrices:                  708.506   625.354  15.3% |-----|
   Apply H:                         83.151    81.838   2.0% ||
    HMM T:                           1.314     1.314   0.0% |
  diagonalize:                    1043.590  1043.590  25.6% |---------|
  rotate_psi:                      293.586   293.586   7.2% |--|
 Density:                           77.007     0.002   0.0% |
  Atomic density matrices:           1.219     1.219   0.0% |
  Mix:                              53.105    53.105   1.3% ||
  Multipole moments:                 0.061     0.061   0.0% |
  Pseudo density:                   22.620    22.617   0.6% |
   Symmetrize density:               0.003     0.003   0.0% |
 Hamiltonian:                       83.393     2.746   0.1% |
  Atomic:                           15.965    11.010   0.3% |
   XC Correction:                    4.955     4.955   0.1% |
  Calculate atomic Hamiltonians:    42.518    42.518   1.0% |
  Communicate:                       6.284     6.284   0.2% |
  Poisson:                           0.938     0.938   0.0% |
  XC 3D grid:                       14.942    14.942   0.4% |
 Orthonormalize:                     4.075     0.001   0.0% |
  calc_s_matrix:                     0.493     0.493   0.0% |
  inverse-cholesky:                  0.454     0.454   0.0% |
  projections:                       2.383     2.383   0.1% |
  rotate_psi_s:                      0.745     0.745   0.0% |
Set symmetry:                        0.001     0.001   0.0% |
Other:                               3.761     3.761   0.1% |
-----------------------------------------------------------
Total:                                      4079.438 100.0%

Date: Sat Apr  8 05:40:25 2023
