
  ___ ___ ___ _ _ _  
 |   |   |_  | | | | 
 | | | | | . | | | | 
 |__ |  _|___|_____|  22.8.0
 |___|_|             

User:   c.zeng@d0025
Date:   Mon Apr 17 14:43:59 2023
Arch:   x86_64
Pid:    166566
CWD:    /home/c.zeng/projects/hea-corrosion/hea-mlp/data-curation/surface-md/dft-jobs/59
Python: 3.8.1
gpaw:   /home/c.zeng/usr/installs/gpaw/source/gpaw-22.8.0/gpaw
_gpaw:  /home/c.zeng/usr/installs/gpaw/source/gpaw-22.8.0/
        _gpaw.cpython-38-x86_64-linux-gnu.so
ase:    /home/c.zeng/.local/lib/python3.8/site-packages/ase-3.22.1-py3.8.egg/ase (version 3.22.1)
numpy:  /home/c.zeng/.local/lib/python3.8/site-packages/numpy (version 1.24.2)
scipy:  /home/c.zeng/.local/lib/python3.8/site-packages/scipy (version 1.10.1)
libxc:  4.2.3
units:  Angstrom and eV
cores: 30
OpenMP: False
OMP_NUM_THREADS: 1

Input parameters:
  convergence: {energy: 0.0001}
  kpts: [2 2 1]
  maxiter: 666
  mode: {ecut: 350.0,
         name: pw}
  occupations: {fixmagmom: False,
                name: fermi-dirac,
                width: 0.1}
  poissonsolver: {dipolelayer: xy}
  spinpol: True
  symmetry: {point_group: False}
  xc: PBE

System changes: positions, numbers, cell, pbc, initial_charges, initial_magmoms 

Initialize ...

species:
  Al:
    name: Aluminium
    id: 0292cae29f5d6237e50f6abdd43a7bdd
    Z: 13.0
    valence: 3
    core: 10
    charge: 0.0
    file: /home/c.zeng/usr/data/gpaw-setups-0.9.20000/Al.PBE.gz
    compensation charges: {type: gauss,
                           rc: 0.34,
                           lmax: 2}
    cutoffs: {filter: 1.91,
              core: 2.36}
    valence states:
      #              energy  rcut
      - 3s(2.00)    -7.753   1.085
      - 3p(1.00)    -2.712   1.085
      -  s          19.459   1.085
      -  p          24.499   1.085
      -  d           0.000   1.085
  
    # Using partial waves for Al as LCAO basis

  Ni:
    name: Nickel
    id: 0d9f38a9d6e76a2886f07bb4381f212b
    Z: 28.0
    valence: 16
    core: 12
    charge: 0.0
    file: /home/c.zeng/usr/data/gpaw-setups-0.9.20000/Ni.PBE.gz
    compensation charges: {type: gauss,
                           rc: 0.36,
                           lmax: 2}
    cutoffs: {filter: 2.14,
              core: 1.98}
    valence states:
      #              energy  rcut
      - 4s(2.00)    -5.642   1.164
      - 3p(6.00)   -71.394   1.207
      - 4p(0.00)    -1.226   1.207
      - 3d(8.00)    -8.875   1.138
      -  s          21.570   1.164
      -  d          18.337   1.138
  
    # Using partial waves for Ni as LCAO basis

  Fe:
    name: Iron
    id: 37abbd8d6c3c35915a9b583b742da910
    Z: 26.0
    valence: 8
    core: 18
    charge: 0.0
    file: /home/c.zeng/usr/data/gpaw-setups-0.9.20000/Fe.PBE.gz
    compensation charges: {type: gauss,
                           rc: 0.33,
                           lmax: 2}
    cutoffs: {filter: 2.06,
              core: 2.67}
    valence states:
      #              energy  rcut
      - 4s(2.00)    -5.291   1.164
      - 4p(0.00)    -1.326   1.058
      - 3d(6.00)    -7.505   1.058
      -  s          21.920   1.164
      -  p          25.885   1.058
      -  d          19.706   1.058
  
    # Using partial waves for Fe as LCAO basis

  Cr:
    name: Chromium
    id: 33f258bda2ca9f93018e70263a35547b
    Z: 24.0
    valence: 6
    core: 18
    charge: 0.0
    file: /home/c.zeng/usr/data/gpaw-setups-0.9.20000/Cr.PBE.gz
    compensation charges: {type: gauss,
                           rc: 0.35,
                           lmax: 2}
    cutoffs: {filter: 2.14,
              core: 3.04}
    valence states:
      #              energy  rcut
      - 4s(1.00)    -4.007   1.164
      - 4p(0.00)    -0.989   1.217
      - 3d(5.00)    -2.913   1.111
      -  s          23.205   1.164
      -  p          26.223   1.217
      -  d          24.299   1.111
  
    # Using partial waves for Cr as LCAO basis

  Co:
    name: Cobalt
    id: 339d20d5b0b93d2de9531a1bee871d91
    Z: 27.0
    valence: 9
    core: 18
    charge: 0.0
    file: /home/c.zeng/usr/data/gpaw-setups-0.9.20000/Co.PBE.gz
    compensation charges: {type: gauss,
                           rc: 0.32,
                           lmax: 2}
    cutoffs: {filter: 1.87,
              core: 2.55}
    valence states:
      #              energy  rcut
      - 4s(2.00)    -5.469   1.005
      - 4p(0.00)    -1.277   1.058
      - 3d(7.00)    -8.205   1.005
      -  s          21.742   1.005
      -  p          25.934   1.058
      -  d          19.007   1.005
  
    # Using partial waves for Co as LCAO basis

Reference energy: -4103091.665053  # eV

Spin-polarized calculation.
Magnetic moment: 158.800000

Convergence criteria:
 Maximum [total energy] change in last 3 cyles: 0.0001 eV / electron
 Maximum integral of absolute [dens]ity change: 0.0001 electrons / valence electron
 Maximum integral of absolute [eigenst]ate change: 4e-08 eV^2 / valence electron
 Maximum number of scf [iter]ations: 666
 (Square brackets indicate name in SCF output, whereas a 'c' in
 the SCF output indicates the quantity has converged.)

Symmetries present (total): 1

  ( 1  0  0)
  ( 0  1  0)
  ( 0  0  1)

4 k-points: 2 x 2 x 1 Monkhorst-Pack grid
2 k-points in the irreducible part of the Brillouin zone
       k-points in crystal coordinates                weights
   0:     0.25000000   -0.25000000    0.00000000          2/4
   1:     0.25000000    0.25000000    0.00000000          2/4

Wave functions: Plane wave expansion
  Cutoff energy: 350.000 eV
  Number of coefficients (min, max): 59263, 59339
  Pulay-stress correction: 0.000000 eV/Ang^3 (de/decut=0.000000)
  Using FFTW library
  ScaLapack parameters: grid=1x1, blocksize=None
  Wavefunction extrapolation:
    Improved wavefunction reuse through dual PAW basis 

Occupation numbers: Fermi-Dirac:
  width: 0.1000  # eV
 

Eigensolver
   Davidson(niter=2) 

Densities:
  Coarse grid: 56*56*128 grid
  Fine grid: 112*112*256 grid
  Total Charge: 0.000000 

Density mixing:
  Method: difference
  Backend: pulay
  Linear mixing parameter: 0.05
  old densities: 5
  Damping of long wavelength oscillations: 50 

Hamiltonian:
  XC and Coulomb potentials evaluated on a 112*112*256 grid
  Using the PBE Exchange-Correlation functional
  External potential:
    NoExternalPotential
 

XC parameters: PBE with 2 nearest neighbor stencil

Memory estimate:
  Process memory now: 379.47 MiB
  Calculator: 2263.81 MiB
    Density: 18.78 MiB
      Arrays: 7.39 MiB
      Localized functions: 8.44 MiB
      Mixer: 2.95 MiB
    Hamiltonian: 5.74 MiB
      Arrays: 5.49 MiB
      XC: 0.00 MiB
      Poisson: 0.00 MiB
      vbar: 0.26 MiB
    Wavefunctions: 2239.28 MiB
      Arrays psit_nG: 1414.30 MiB
      Eigensolver: 804.77 MiB
      Projections: 3.48 MiB
      Projectors: 1.15 MiB
      PW-descriptor: 15.58 MiB

Total number of cores used: 30
Parallelization over k-points: 2
Domain decomposition: 1 x 3 x 5

Number of atoms: 125
Number of atomic orbitals: 1149
Number of bands in calculation: 781
Number of valence electrons: 1136
Bands to converge: occupied

... initialized

Initializing position-dependent things.

Density initialized from atomic densities
Creating initial wave functions:
  781 bands from LCAO basis set

                                                                      
                                                                      
                                                                      
                                                                      
                                                                      
                                                                      
                                      Ni              Ni              
                         Fe    CoNi             CoCo                  
                      Cr   NiCr Ni    Ni   Cr      Fe    Ni           
               Fe Fe              Co  Co     Cr    Co                 
           Fe          Co   CoCr  Fe     CoFe        Fe               
              Co   CCr Al Ni  Al    Fe Al     NiNi                    
       Co                       Fe Crr    Co    Cr    Al              
               Fe    Cr  Ni Cr Fe     NiFelCo     Co                  
                    CrNi         CriCo      NCr  Cr      Fe           
                 Ni       CoAlCo Co    Cr           Al                
            Co    Ni    Al  Cr    Nie    Fe  Co Co   Ni               
                              Co   NiNiFNi Fe Al Fe   Ni    Cr        
                    Cr Cr    CrCo Fe    Co   Fe  Fe    Ni             
          Fe     Fe        Cr   Al  AlFe  Co       Ni                 
                      Fe Cr     CFe   CNi   CrCr                      
                 Ni Fe      Co           Al                           
                             Cr     Ni                                
                      Fe                                              
                                                                      
                                                                      
                                                                      
                                                                      
                                                                      

Positions:
   0 Al    12.948511    1.805055   10.867466    ( 0.0000,  0.0000,  0.0000)
   1 Ni     3.129602    1.780005   10.858926    ( 0.0000,  0.0000,  1.5000)
   2 Fe     5.323636    1.635963    9.294554    ( 0.0000,  0.0000,  2.0000)
   3 Cr     8.025619    1.386053    9.925843    ( 0.0000,  0.0000,  0.0000)
   4 Ni    10.664579    1.662280    9.987259    ( 0.0000,  0.0000,  1.5000)
   5 Cr    14.246027    3.955283   10.594322    ( 0.0000,  0.0000,  0.0000)
   6 Fe     4.629974    4.068290   10.660589    ( 0.0000,  0.0000,  2.0000)
   7 Co     6.868844    4.040205    9.631159    ( 0.0000,  0.0000,  2.1000)
   8 Fe     9.111239    3.735589   10.246994    ( 0.0000,  0.0000,  2.0000)
   9 Ni    11.345398    3.924143   10.266077    ( 0.0000,  0.0000,  1.5000)
  10 Ni    15.613896    6.014025   10.489420    ( 0.0000,  0.0000,  1.5000)
  11 Cr     6.132849    6.110889   10.519964    ( 0.0000,  0.0000,  0.0000)
  12 Co     8.028209    5.965403    9.301201    ( 0.0000,  0.0000,  2.1000)
  13 Cr    10.557846    6.266058    9.818820    ( 0.0000,  0.0000,  0.0000)
  14 Cr    13.041964    5.945872    9.735817    ( 0.0000,  0.0000,  0.0000)
  15 Ni    16.931285    7.997646   10.188839    ( 0.0000,  0.0000,  1.5000)
  16 Co     7.225739    8.165876   10.092002    ( 0.0000,  0.0000,  2.1000)
  17 Al     9.324324    8.443342    8.884127    ( 0.0000,  0.0000,  0.0000)
  18 Co    11.807336    8.125302    9.052631    ( 0.0000,  0.0000,  2.1000)
  19 Fe    14.521788    8.081071    9.925788    ( 0.0000,  0.0000,  2.0000)
  20 Cr    18.583719   10.145257   10.340197    ( 0.0000,  0.0000,  0.0000)
  21 Fe     8.396846   10.300122   10.789159    ( 0.0000,  0.0000,  2.0000)
  22 Co    10.250662   10.586143    9.142920    ( 0.0000,  0.0000,  2.1000)
  23 Al    12.861812   10.142723    9.723997    ( 0.0000,  0.0000,  0.0000)
  24 Ni    15.912943   10.372204   10.061848    ( 0.0000,  0.0000,  1.5000)
  25 Fe     0.549998    0.117145   12.946090    ( 0.0000,  0.0000,  2.0000)
  26 Fe     3.327245    0.225522   12.996578    ( 0.0000,  0.0000,  2.0000)
  27 Fe     4.764479   -0.087357   11.284910    ( 0.0000,  0.0000,  2.0000)
  28 Cr    13.863224   10.621115   11.862072    ( 0.0000,  0.0000,  0.0000)
  29 Fe    17.033261   10.699590   11.998233    ( 0.0000,  0.0000,  2.0000)
  30 Fe    14.165443    2.367469   12.902092    ( 0.0000,  0.0000,  2.0000)
  31 Cr     4.211100    2.623637   13.079205    ( 0.0000,  0.0000,  0.0000)
  32 Cr     6.082174    2.381726   11.569253    ( 0.0000,  0.0000,  0.0000)
  33 Al     9.060560    1.935139   12.252200    ( 0.0000,  0.0000,  0.0000)
  34 Fe    11.386151    2.382995   12.471404    ( 0.0000,  0.0000,  2.0000)
  35 Fe    15.383213    4.524568   12.654447    ( 0.0000,  0.0000,  2.0000)
  36 Al     5.367061    4.695739   13.417927    ( 0.0000,  0.0000,  0.0000)
  37 Cr     7.269198    4.383186   11.945475    ( 0.0000,  0.0000,  0.0000)
  38 Ni     9.893266    4.128349   12.557063    ( 0.0000,  0.0000,  1.5000)
  39 Fe    12.924598    4.431006   12.529771    ( 0.0000,  0.0000,  2.0000)
  40 Ni    16.496743    6.592330   12.843293    ( 0.0000,  0.0000,  1.5000)
  41 Co     7.259101    6.713005   12.975447    ( 0.0000,  0.0000,  2.1000)
  42 Fe     8.954610    6.171835   11.440391    ( 0.0000,  0.0000,  2.0000)
  43 Ni    11.229648    6.018883   12.035477    ( 0.0000,  0.0000,  1.5000)
  44 Co    14.255785    6.682904   12.150618    ( 0.0000,  0.0000,  2.1000)
  45 Al     6.014352    8.749417   12.274912    ( 0.0000,  0.0000,  0.0000)
  46 Ni     8.419253    8.939774   12.731931    ( 0.0000,  0.0000,  1.5000)
  47 Fe    10.234637    8.548924   11.113154    ( 0.0000,  0.0000,  2.0000)
  48 Co    12.729192    8.440886   11.538400    ( 0.0000,  0.0000,  2.1000)
  49 Al    15.381617    8.841207   12.376707    ( 0.0000,  0.0000,  0.0000)
  50 Co     1.176792    0.802036   15.183194    ( 0.0000,  0.0000,  2.1000)
  51 Ni     3.697196    0.844338   15.441141    ( 0.0000,  0.0000,  1.5000)
  52 Cr     5.781826    0.524887   13.710062    ( 0.0000,  0.0000,  0.0000)
  53 Co     8.602834    0.608985   14.564593    ( 0.0000,  0.0000,  2.1000)
  54 Ni    11.456663    0.528073   14.622811    ( 0.0000,  0.0000,  1.5000)
  55 Ni     2.782181    2.959650   15.422756    ( 0.0000,  0.0000,  1.5000)
  56 Ni     4.991838    3.020651   15.655255    ( 0.0000,  0.0000,  1.5000)
  57 Cr     7.139755    2.811615   14.163054    ( 0.0000,  0.0000,  0.0000)
  58 Ni     9.895880    2.738871   14.485089    ( 0.0000,  0.0000,  1.5000)
  59 Fe    12.460095    2.974774   14.642897    ( 0.0000,  0.0000,  2.0000)
  60 Cr     3.535356    4.940527   15.165597    ( 0.0000,  0.0000,  0.0000)
  61 Cr     6.899842    4.987604   15.597881    ( 0.0000,  0.0000,  0.0000)
  62 Co     8.689234    4.918801   14.285678    ( 0.0000,  0.0000,  2.1000)
  63 Cr    11.135054    4.742224   14.486222    ( 0.0000,  0.0000,  0.0000)
  64 Cr    13.737813    5.127924   14.673771    ( 0.0000,  0.0000,  0.0000)
  65 Ni     5.224120    6.727029   14.849374    ( 0.0000,  0.0000,  1.5000)
  66 Fe     7.650212    7.346998   15.519526    ( 0.0000,  0.0000,  2.0000)
  67 Co     9.676250    6.902562   13.706609    ( 0.0000,  0.0000,  2.1000)
  68 Ni    12.676461    7.119566   14.007186    ( 0.0000,  0.0000,  1.5000)
  69 Co    14.970158    7.240119   14.648536    ( 0.0000,  0.0000,  2.1000)
  70 Co     6.559832    9.384205   15.263661    ( 0.0000,  0.0000,  2.1000)
  71 Cr     8.954584    9.273950   14.975733    ( 0.0000,  0.0000,  0.0000)
  72 Al    11.157545    9.291338   13.435530    ( 0.0000,  0.0000,  0.0000)
  73 Cr    13.775810    9.354065   14.471894    ( 0.0000,  0.0000,  0.0000)
  74 Al    16.380233    9.297699   14.692094    ( 0.0000,  0.0000,  0.0000)
  75 Fe    12.395308    1.275164   17.303787    ( 0.0000,  0.0000,  2.0000)
  76 Fe     2.430604    1.227778   17.504708    ( 0.0000,  0.0000,  2.0000)
  77 Cr     4.812749    1.280898   17.466859    ( 0.0000,  0.0000,  0.0000)
  78 Co     6.871493    1.023387   16.118239    ( 0.0000,  0.0000,  2.1000)
  79 Cr     9.754045    1.347404   16.720177    ( 0.0000,  0.0000,  0.0000)
  80 Co    13.414180    3.148423   16.774214    ( 0.0000,  0.0000,  2.1000)
  81 Cr     3.349082    3.425502   18.002993    ( 0.0000,  0.0000,  0.0000)
  82 Ni     6.170802    3.324869   17.983886    ( 0.0000,  0.0000,  1.5000)
  83 Fe     8.491100    3.320097   16.407593    ( 0.0000,  0.0000,  2.0000)
  84 Ni    11.050594    3.382203   16.564931    ( 0.0000,  0.0000,  1.5000)
  85 Ni    14.727606    5.340578   17.272562    ( 0.0000,  0.0000,  1.5000)
  86 Al     4.695159    5.666196   17.338619    ( 0.0000,  0.0000,  0.0000)
  87 Cr     7.453766    5.500118   17.831736    ( 0.0000,  0.0000,  0.0000)
  88 Cr     9.648628    5.329418   16.441551    ( 0.0000,  0.0000,  0.0000)
  89 Co    12.097958    5.665838   16.604619    ( 0.0000,  0.0000,  2.1000)
  90 Fe    16.037991    7.662973   16.947757    ( 0.0000,  0.0000,  2.0000)
  91 Co     6.058386    7.711293   17.147377    ( 0.0000,  0.0000,  2.1000)
  92 Co     8.370588    7.780605   17.700686    ( 0.0000,  0.0000,  2.1000)
  93 Al    10.531849    7.650694   15.920320    ( 0.0000,  0.0000,  0.0000)
  94 Ni    13.196439    7.958259   16.440379    ( 0.0000,  0.0000,  1.5000)
  95 Ni    17.263256   10.312822   17.109730    ( 0.0000,  0.0000,  1.5000)
  96 Ni     7.340879    9.945648   17.362117    ( 0.0000,  0.0000,  1.5000)
  97 Ni     9.667046    9.865622   17.333003    ( 0.0000,  0.0000,  1.5000)
  98 Fe    11.761680    9.974798   15.851899    ( 0.0000,  0.0000,  2.0000)
  99 Co    14.756004    9.792717   16.688148    ( 0.0000,  0.0000,  2.1000)
 100 Co    -0.441264   -0.132367   19.307513    ( 0.0000,  0.0000,  2.1000)
 101 Co     2.178779    0.043789   19.538045    ( 0.0000,  0.0000,  2.1000)
 102 Cr     4.626561   -0.079236   19.711737    ( 0.0000,  0.0000,  0.0000)
 103 Co    13.356375   10.819009   18.325443    ( 0.0000,  0.0000,  2.1000)
 104 Ni    15.810294   11.078864   19.005064    ( 0.0000,  0.0000,  1.5000)
 105 Fe     0.492803    1.802920   19.924119    ( 0.0000,  0.0000,  2.0000)
 106 Fe     3.468152    2.105255   20.680189    ( 0.0000,  0.0000,  2.0000)
 107 Co     5.437149    2.407159   19.769030    ( 0.0000,  0.0000,  2.1000)
 108 Al     8.247937    2.294863   18.822391    ( 0.0000,  0.0000,  0.0000)
 109 Fe    10.684836    2.406063   18.665526    ( 0.0000,  0.0000,  2.0000)
 110 Fe     1.561328    3.963493   19.642563    ( 0.0000,  0.0000,  2.0000)
 111 Cr     4.517892    4.678869   20.441832    ( 0.0000,  0.0000,  0.0000)
 112 Cr     7.161722    4.405049   20.056322    ( 0.0000,  0.0000,  0.0000)
 113 Fe     9.303443    4.388283   18.716397    ( 0.0000,  0.0000,  2.0000)
 114 Co    12.028006    4.652092   18.688164    ( 0.0000,  0.0000,  2.1000)
 115 Fe    15.823034    6.486563   19.109587    ( 0.0000,  0.0000,  2.0000)
 116 Ni     5.971974    6.529391   19.471531    ( 0.0000,  0.0000,  1.5000)
 117 Ni     8.317123    6.703424   19.700296    ( 0.0000,  0.0000,  1.5000)
 118 Co    10.494029    6.397486   18.300222    ( 0.0000,  0.0000,  2.1000)
 119 Cr    13.209651    6.544911   18.636045    ( 0.0000,  0.0000,  0.0000)
 120 Fe     4.554299    8.628787   19.142780    ( 0.0000,  0.0000,  2.0000)
 121 Co     6.923998    8.598439   19.428096    ( 0.0000,  0.0000,  2.1000)
 122 Ni     9.891810    8.701581   19.647956    ( 0.0000,  0.0000,  1.5000)
 123 Cr    11.706196    9.066131   18.024372    ( 0.0000,  0.0000,  0.0000)
 124 Co    14.597734    8.661322   18.705248    ( 0.0000,  0.0000,  2.1000)

Unit cell:
           periodic     x           y           z      points  spacing
  1. axis:    yes   12.530300    0.000000    0.000000    56     0.1938
  2. axis:    yes    6.259130   10.841100    0.000000    56     0.1936
  3. axis:    no     0.000000    0.000000   29.353100   128     0.2293

  Lengths:  12.530300  12.518233  29.353100
  Angles:   90.000000  90.000000  59.999929

Effective grid spacing dv^(1/3) = 0.2150

     iter     time        total  log10-change:  magmom
                         energy  eigst   dens
iter:   1 14:50:50 -1192.803408                  +159.1296
iter:   2 14:53:09 -1755.824404  +0.37  -1.09    +87.4436
iter:   3 14:55:28 -3935.761045  +1.63  -0.79    +57.2688
iter:   4 14:57:48 -1042.607374  +0.40  -0.49    +26.5074
iter:   5 15:00:08  -970.829160  +0.07  -1.12    +25.2243
iter:   6 15:02:27  -975.986228  -0.34  -1.23    +25.2002
iter:   7 15:04:46  -952.103406  -0.95  -1.23    +25.5627
iter:   8 15:07:06 -1130.545745  -0.16  -1.26    +26.6735
iter:   9 15:09:25 -1405.384694  -0.46  -1.00    +25.9709
iter:  10 15:11:45  -970.890159  -1.05  -0.89    +19.8256
iter:  11 15:14:04  -934.965469  -1.59  -1.25    +20.8180
iter:  12 15:16:23  -931.405463  -1.58  -1.34    +23.1637
iter:  13 15:18:42  -933.574500  -1.61  -1.37    +25.0853
iter:  14 15:21:01  -943.071509  -1.55  -1.35    +27.1041
iter:  15 15:23:19 -1570.054653  -0.45  -1.32    +28.2918
iter:  16 15:25:39  -916.818263  -0.96  -0.85    +25.0563
iter:  17 15:27:58  -935.145076  -1.39  -1.47    +27.0466
iter:  18 15:30:17  -922.092244  -1.61  -1.37    +29.8691
iter:  19 15:32:37  -927.198807  -1.52  -1.49    +32.3900
iter:  20 15:34:56  -914.228090  -1.89  -1.44    +34.6987
iter:  21 15:37:15  -911.369277  -1.89  -1.59    +37.4009
iter:  22 15:39:34  -930.819383  -1.90  -1.67    +43.6439
iter:  23 15:41:53  -942.955318  -1.77  -1.47    +46.2163
iter:  24 15:44:12  -923.881184  -1.95  -1.41    +47.2933
iter:  25 15:46:30  -912.371178  -2.38  -1.55    +49.2215
iter:  26 15:48:49  -913.444794  -2.48  -1.74    +53.9432
iter:  27 15:51:07  -914.564926  -2.67  -1.74    +57.9796
iter:  28 15:53:26  -914.397652  -2.85  -1.73    +62.4313
iter:  29 15:55:44  -935.562656  -1.97  -1.79    +68.2821
iter:  30 15:58:03  -924.172312  -2.13  -1.51    +66.2170
iter:  31 16:00:22  -920.937047  -2.73  -1.64    +68.2432
iter:  32 16:02:41  -919.290779  -2.63  -1.74    +71.0814
iter:  33 16:05:00  -926.534095  -2.36  -1.83    +71.7877
iter:  34 16:07:20  -919.329365  -2.40  -1.69    +72.7585
iter:  35 16:09:39  -919.179878  -2.24  -1.88    +74.1746
iter:  36 16:11:58  -918.716600  -2.69  -2.05    +74.2119
iter:  37 16:14:16  -920.105525  -2.61  -2.13    +74.6407
iter:  38 16:16:35  -919.719321  -2.95  -2.10    +75.0714
iter:  39 16:18:53  -920.585921  -2.91  -2.20    +76.5657
iter:  40 16:21:12  -920.207904  -3.17  -2.14    +76.8700
iter:  41 16:23:30  -920.381192  -3.27  -2.26    +77.7165
iter:  42 16:25:49  -920.777596  -3.36  -2.34    +78.3539
iter:  43 16:28:08  -921.999329  -2.66  -2.32    +80.3379
iter:  44 16:30:27  -921.897819  -3.44  -2.19    +80.3718
iter:  45 16:32:45  -923.123404  -3.21  -2.21    +81.0823
iter:  46 16:35:04  -922.068725  -3.44  -2.06    +81.1816
iter:  47 16:37:25  -922.352443  -3.24  -2.20    +82.0367
iter:  48 16:39:45  -924.175156  -2.53  -2.17    +82.1473
iter:  49 16:42:06  -921.710418  -2.76  -1.97    +81.9136
iter:  50 16:44:26  -921.466116  -3.48  -2.25    +81.7529
iter:  51 16:46:46  -921.829269  -3.16  -2.35    +81.4701
iter:  52 16:49:06  -923.266719  -3.14  -2.30    +81.6885
iter:  53 16:51:26  -921.719486  -3.22  -2.07    +81.9873
iter:  54 16:53:47  -921.767588  -3.23  -2.39    +81.9178
iter:  55 16:56:07  -921.768414c -3.27  -2.42    +81.9391
iter:  56 16:58:27  -921.640455  -3.44  -2.43    +81.8620
iter:  57 17:00:47  -921.627235  -3.78  -2.54    +82.1448
iter:  58 17:03:08  -923.316299  -3.21  -2.58    +82.1637
iter:  59 17:05:28  -921.605247  -3.49  -2.09    +82.0309
iter:  60 17:07:49  -921.606400  -4.08  -2.62    +82.2853
iter:  61 17:10:09  -921.590706c -4.33  -2.68    +82.4112
iter:  62 17:12:29  -921.616384c -4.07  -2.74    +82.5147
iter:  63 17:14:49  -921.607385c -4.40  -2.70    +82.4670
iter:  64 17:17:11  -922.050626  -3.78  -2.79    +82.5063
iter:  65 17:19:31  -921.941790  -3.63  -2.37    +82.4972
iter:  66 17:21:51  -921.662977  -3.92  -2.45    +82.2945
iter:  67 17:24:11  -921.647550  -4.10  -2.78    +82.2640
iter:  68 17:26:32  -921.660090c -4.04  -2.85    +82.3014
iter:  69 17:28:52  -921.634248c -4.73  -2.83    +82.3848
iter:  70 17:31:13  -921.769409  -4.30  -2.95    +82.3572
iter:  71 17:33:33  -921.661008  -4.36  -2.63    +82.3970
iter:  72 17:35:54  -921.641060  -4.74  -2.84    +82.5455
iter:  73 17:38:14  -921.661991c -4.56  -3.02    +82.5997
iter:  74 17:40:35  -921.660857c -4.41  -2.96    +82.5766
iter:  75 17:42:56  -921.662345c -4.46  -3.02    +82.4929
iter:  76 17:45:17  -921.826595  -4.16  -3.00    +82.5670
iter:  77 17:47:37  -921.675358  -4.29  -2.58    +82.6405
iter:  78 17:49:58  -921.649656  -4.62  -3.00    +82.5672
iter:  79 17:52:19  -921.652767c -4.88  -3.18    +82.5831
iter:  80 17:54:39  -921.651384c -5.08  -3.20    +82.6443
iter:  81 17:57:00  -921.655448c -4.79  -3.34    +82.6808
iter:  82 17:59:21  -921.667658c -5.00  -3.20    +82.6571
iter:  83 18:01:42  -921.653939c -5.09  -3.07    +82.6137
iter:  84 18:04:03  -921.655603c -5.15  -3.25    +82.6315
iter:  85 18:06:23  -921.651392c -5.47  -3.42    +82.6241
iter:  86 18:08:45  -921.650514c -5.83  -3.59    +82.6147
iter:  87 18:11:05  -921.653197c -5.54  -3.71    +82.6250
iter:  88 18:13:26  -921.653408c -5.81  -3.51    +82.6400
iter:  89 18:15:48  -921.653465c -5.69  -3.45    +82.6606
iter:  90 18:18:08  -921.652010c -6.27  -3.54    +82.6602
iter:  91 18:20:29  -921.653429c -5.97  -3.71    +82.6663
iter:  92 18:22:49  -921.653620c -5.96  -3.80    +82.6755
iter:  93 18:25:10  -921.653008c -5.96  -3.79    +82.6758
iter:  94 18:27:31  -921.656667c -5.93  -3.84    +82.6811
iter:  95 18:29:51  -921.653921c -5.84  -3.48    +82.6939
iter:  96 18:32:13  -921.653664c -6.34  -3.65    +82.6828
iter:  97 18:34:34  -921.653507c -6.58  -4.08c   +82.6967
iter:  98 18:36:54  -921.653783c -6.69  -4.15c   +82.7026
iter:  99 18:39:15  -921.654037c -7.01  -4.13c   +82.7081
iter: 100 18:41:36  -921.654325c -6.53  -4.16c   +82.7073
iter: 101 18:43:57  -921.654347c -6.75  -3.81    +82.7099
iter: 102 18:46:17  -921.654302c -6.89  -4.07c   +82.7258
iter: 103 18:48:38  -921.654408c -7.15  -4.20c   +82.7273
iter: 104 18:50:58  -921.654708c -6.64  -4.29c   +82.7254
iter: 105 18:53:19  -921.654786c -6.70  -4.24c   +82.7232
iter: 106 18:55:39  -921.654870c -6.95  -4.28c   +82.7270
iter: 107 18:58:00  -921.655169c -6.64  -4.39c   +82.7282
iter: 108 19:00:20  -921.655026c -6.94  -3.82    +82.7290
iter: 109 19:02:41  -921.655082c -7.32  -4.52c   +82.7366
iter: 110 19:05:02  -921.655144c -7.66c -4.54c   +82.7420

Converged after 110 iterations.

Dipole moment: (64.094016, 32.387607, 0.078665) |e|*Ang

Total magnetic moment: (0.000000, 0.000000, 82.742036)
Local magnetic moments:
   0 Al ( 0.000000,  0.000000, -0.034212)
   1 Ni ( 0.000000,  0.000000,  0.367112)
   2 Fe ( 0.000000,  0.000000,  2.809359)
   3 Cr ( 0.000000,  0.000000, -2.888947)
   4 Ni ( 0.000000,  0.000000,  0.279833)
   5 Cr ( 0.000000,  0.000000, -2.781238)
   6 Fe ( 0.000000,  0.000000,  2.625023)
   7 Co ( 0.000000,  0.000000,  1.380723)
   8 Fe ( 0.000000,  0.000000,  2.595829)
   9 Ni ( 0.000000,  0.000000,  0.399821)
  10 Ni ( 0.000000,  0.000000,  0.483389)
  11 Cr ( 0.000000,  0.000000, -2.413582)
  12 Co ( 0.000000,  0.000000,  1.330431)
  13 Cr ( 0.000000,  0.000000, -2.380424)
  14 Cr ( 0.000000,  0.000000,  3.025179)
  15 Ni ( 0.000000,  0.000000,  0.147461)
  16 Co ( 0.000000,  0.000000,  1.011220)
  17 Al ( 0.000000,  0.000000, -0.034646)
  18 Co ( 0.000000,  0.000000,  1.229599)
  19 Fe ( 0.000000,  0.000000,  2.771275)
  20 Cr ( 0.000000,  0.000000, -2.581097)
  21 Fe ( 0.000000,  0.000000,  2.491210)
  22 Co ( 0.000000,  0.000000,  1.549572)
  23 Al ( 0.000000,  0.000000, -0.043230)
  24 Ni ( 0.000000,  0.000000,  0.414910)
  25 Fe ( 0.000000,  0.000000,  2.454630)
  26 Fe ( 0.000000,  0.000000,  2.196514)
  27 Fe ( 0.000000,  0.000000,  2.290760)
  28 Cr ( 0.000000,  0.000000,  2.232152)
  29 Fe ( 0.000000,  0.000000,  1.997080)
  30 Fe ( 0.000000,  0.000000,  2.367974)
  31 Cr ( 0.000000,  0.000000, -1.998593)
  32 Cr ( 0.000000,  0.000000,  0.586535)
  33 Al ( 0.000000,  0.000000, -0.025667)
  34 Fe ( 0.000000,  0.000000,  2.425669)
  35 Fe ( 0.000000,  0.000000,  2.247041)
  36 Al ( 0.000000,  0.000000, -0.002064)
  37 Cr ( 0.000000,  0.000000,  0.887574)
  38 Ni ( 0.000000,  0.000000,  0.390195)
  39 Fe ( 0.000000,  0.000000,  2.305398)
  40 Ni ( 0.000000,  0.000000,  0.433041)
  41 Co ( 0.000000,  0.000000,  1.269638)
  42 Fe ( 0.000000,  0.000000,  2.379278)
  43 Ni ( 0.000000,  0.000000,  0.355137)
  44 Co ( 0.000000,  0.000000,  1.540430)
  45 Al ( 0.000000,  0.000000, -0.029531)
  46 Ni ( 0.000000,  0.000000,  0.369236)
  47 Fe ( 0.000000,  0.000000,  2.448718)
  48 Co ( 0.000000,  0.000000,  1.499152)
  49 Al ( 0.000000,  0.000000, -0.022724)
  50 Co ( 0.000000,  0.000000,  1.612985)
  51 Ni ( 0.000000,  0.000000,  0.371320)
  52 Cr ( 0.000000,  0.000000,  1.927577)
  53 Co ( 0.000000,  0.000000,  1.200571)
  54 Ni ( 0.000000,  0.000000,  0.453868)
  55 Ni ( 0.000000,  0.000000,  0.260605)
  56 Ni ( 0.000000,  0.000000, -0.017488)
  57 Cr ( 0.000000,  0.000000, -2.443481)
  58 Ni ( 0.000000,  0.000000,  0.328450)
  59 Fe ( 0.000000,  0.000000,  2.121248)
  60 Cr ( 0.000000,  0.000000,  1.650449)
  61 Cr ( 0.000000,  0.000000, -1.325793)
  62 Co ( 0.000000,  0.000000,  0.926655)
  63 Cr ( 0.000000,  0.000000, -1.489950)
  64 Cr ( 0.000000,  0.000000, -1.631334)
  65 Ni ( 0.000000,  0.000000,  0.248405)
  66 Fe ( 0.000000,  0.000000,  2.341360)
  67 Co ( 0.000000,  0.000000,  1.194289)
  68 Ni ( 0.000000,  0.000000,  0.158130)
  69 Co ( 0.000000,  0.000000,  1.081669)
  70 Co ( 0.000000,  0.000000,  1.491695)
  71 Cr ( 0.000000,  0.000000, -2.384118)
  72 Al ( 0.000000,  0.000000, -0.029135)
  73 Cr ( 0.000000,  0.000000, -1.831344)
  74 Al ( 0.000000,  0.000000, -0.020857)
  75 Fe ( 0.000000,  0.000000,  2.595989)
  76 Fe ( 0.000000,  0.000000,  2.370757)
  77 Cr ( 0.000000,  0.000000,  1.981386)
  78 Co ( 0.000000,  0.000000,  1.461183)
  79 Cr ( 0.000000,  0.000000, -2.111422)
  80 Co ( 0.000000,  0.000000,  1.571374)
  81 Cr ( 0.000000,  0.000000, -2.652735)
  82 Ni ( 0.000000,  0.000000,  0.178329)
  83 Fe ( 0.000000,  0.000000,  1.962001)
  84 Ni ( 0.000000,  0.000000,  0.333237)
  85 Ni ( 0.000000,  0.000000,  0.118493)
  86 Al ( 0.000000,  0.000000, -0.017695)
  87 Cr ( 0.000000,  0.000000,  1.343754)
  88 Cr ( 0.000000,  0.000000,  0.532226)
  89 Co ( 0.000000,  0.000000,  0.976583)
  90 Fe ( 0.000000,  0.000000,  2.617117)
  91 Co ( 0.000000,  0.000000,  1.614917)
  92 Co ( 0.000000,  0.000000,  1.583222)
  93 Al ( 0.000000,  0.000000, -0.017665)
  94 Ni ( 0.000000,  0.000000,  0.107086)
  95 Ni ( 0.000000,  0.000000,  0.384082)
  96 Ni ( 0.000000,  0.000000,  0.627244)
  97 Ni ( 0.000000,  0.000000,  0.113049)
  98 Fe ( 0.000000,  0.000000,  2.176285)
  99 Co ( 0.000000,  0.000000,  1.374882)
 100 Co ( 0.000000,  0.000000,  1.701029)
 101 Co ( 0.000000,  0.000000,  1.591688)
 102 Cr ( 0.000000,  0.000000, -2.879429)
 103 Co ( 0.000000,  0.000000,  1.471676)
 104 Ni ( 0.000000,  0.000000,  0.428685)
 105 Fe ( 0.000000,  0.000000,  2.952079)
 106 Fe ( 0.000000,  0.000000,  3.013136)
 107 Co ( 0.000000,  0.000000,  1.347705)
 108 Al ( 0.000000,  0.000000, -0.036161)
 109 Fe ( 0.000000,  0.000000,  2.534448)
 110 Fe ( 0.000000,  0.000000,  2.824004)
 111 Cr ( 0.000000,  0.000000, -3.474759)
 112 Cr ( 0.000000,  0.000000, -3.055266)
 113 Fe ( 0.000000,  0.000000,  2.081071)
 114 Co ( 0.000000,  0.000000,  1.514274)
 115 Fe ( 0.000000,  0.000000,  2.494403)
 116 Ni ( 0.000000,  0.000000,  0.271744)
 117 Ni ( 0.000000,  0.000000,  0.509011)
 118 Co ( 0.000000,  0.000000,  1.363110)
 119 Cr ( 0.000000,  0.000000, -2.802396)
 120 Fe ( 0.000000,  0.000000,  2.837888)
 121 Co ( 0.000000,  0.000000,  1.735400)
 122 Ni ( 0.000000,  0.000000,  0.038009)
 123 Cr ( 0.000000,  0.000000, -2.012745)
 124 Co ( 0.000000,  0.000000,  1.626382)

Energy contributions relative to reference atoms: (reference = -4103091.665053)

Kinetic:       +316.784171
Potential:     -328.500936
External:        +0.000000
XC:            -946.142925
Entropy (-ST):   -5.220093
Local:          +38.814592
--------------------------
Free energy:   -924.265191
Extrapolated:  -921.655144

Dipole-layer corrected work functions: 4.601743, 4.496956 eV

Spin contamination: 54.514748 electrons
Showing all kpts
                      Up                     Down
 Kpt  Band  Eigenvalues  Occupancy  Eigenvalues  Occupancy
  0   566      0.12820    0.99877      1.16112    0.02577
  0   567      0.13992    0.99861      1.17317    0.02291
  0   568      0.15032    0.99846      1.18210    0.02100
  0   569      0.16037    0.99830      1.18986    0.01946

  1   566      0.12997    0.99874      1.16538    0.02472
  1   567      0.13394    0.99869      1.17670    0.02214
  1   568      0.14594    0.99853      1.18102    0.02122
  1   569      0.15727    0.99835      1.19924    0.01775


Fermi level: 0.79789

No gap

Forces in eV/Ang:
  0 Al    0.73763   -0.91076   -1.40174
  1 Ni    0.21525    0.09061    0.01848
  2 Fe    0.49230    0.73518    1.00865
  3 Cr   -0.15040    1.01560   -0.05176
  4 Ni   -0.27377   -0.00981    0.98072
  5 Cr    0.66902    0.28311   -0.17405
  6 Fe   -0.37948   -0.45702    0.55649
  7 Co   -0.59679   -1.46568   -0.00082
  8 Fe   -0.72475    0.14077   -0.18883
  9 Ni    1.76242    0.44368    1.06334
 10 Ni    0.78932   -0.25440   -0.31558
 11 Cr   -1.27812    0.20121    1.23276
 12 Co    1.11215    0.42136   -0.34705
 13 Cr    0.13141   -0.27072   -1.00695
 14 Cr   -0.28511   -0.05341    0.86035
 15 Ni    0.80980    0.65529    0.95061
 16 Co    0.32711   -0.03965    0.93110
 17 Al   -0.87259   -0.69205   -0.66574
 18 Co   -0.29066   -0.19222    0.80027
 19 Fe   -0.46901    0.75009    0.27664
 20 Cr   -0.91374    0.81108   -1.60534
 21 Fe    0.09155    0.66295   -0.39064
 22 Co    0.30333    0.04637    0.50075
 23 Al   -0.45393   -0.26354   -1.52211
 24 Ni   -1.13210   -1.24688   -0.11077
 25 Fe    0.54106    0.52592   -0.37756
 26 Fe   -1.65564    1.06016    0.71806
 27 Fe    1.31700    0.72923    0.41418
 28 Cr   -0.41745    1.61389    0.84501
 29 Fe    0.21008    1.07181    1.21853
 30 Fe    0.50042   -0.35643    0.82084
 31 Cr   -0.45856   -1.87213    0.29691
 32 Cr    0.11204   -0.56415    0.18564
 33 Al   -1.26625   -0.57114    0.18292
 34 Fe    0.87163   -0.61937    0.82299
 35 Fe    0.52684   -0.03051   -0.13779
 36 Al    0.67954    1.20354   -0.08802
 37 Cr    1.23783   -0.76353   -0.15189
 38 Ni   -0.20045    0.69546   -1.89211
 39 Fe   -0.59326    0.11963   -0.32335
 40 Ni    0.92827    0.61306   -0.51396
 41 Co   -0.76344   -0.52129    0.77992
 42 Fe   -1.00766    0.65892    0.19361
 43 Ni    1.49402    0.99723    0.44589
 44 Co   -1.76844   -0.26428    0.53244
 45 Al   -0.71411   -2.21045    1.13910
 46 Ni   -0.35780   -1.26183   -0.20954
 47 Fe    0.16226   -0.78987    0.65194
 48 Co   -0.11752   -0.31933    0.26935
 49 Al    0.61223   -1.34845   -0.80168
 50 Co    1.38734    0.08318    0.49616
 51 Ni    0.58215   -0.91125   -0.85944
 52 Cr    1.48969    2.90700    0.64650
 53 Co    0.12589   -0.13492   -0.80427
 54 Ni   -1.58139    0.60618    0.21279
 55 Ni   -2.81082   -1.15545   -0.50467
 56 Ni    2.32020   -0.00675   -0.10104
 57 Cr    0.15864   -0.81375   -0.42633
 58 Ni   -0.23286   -0.94015    0.32660
 59 Fe    0.58257   -1.38054   -0.00659
 60 Cr    0.07626    1.71645   -0.41755
 61 Cr   -1.30700    0.43745    1.18147
 62 Co   -0.93601    0.12678    0.11420
 63 Cr    0.11828    1.93151   -0.10999
 64 Cr    0.99782   -0.54529    0.57616
 65 Ni    0.18787    1.02091    0.94686
 66 Fe    1.06463   -1.30019   -1.19641
 67 Co    0.25446    0.88815    0.07849
 68 Ni   -1.59652    0.10260   -0.13455
 69 Co    0.62109    0.03203   -0.05761
 70 Co   -1.30368   -0.01213   -1.01243
 71 Cr   -0.23716    1.68465    0.09421
 72 Al   -0.22883   -3.13010   -0.33050
 73 Cr   -1.02183    0.50383   -0.48773
 74 Al    1.28733    0.13386    1.01918
 75 Fe   -0.17490   -0.17085   -0.37843
 76 Fe   -1.29596    0.52465    0.26249
 77 Cr    0.89013   -0.50797    1.05916
 78 Co    0.30916    0.45126    0.10591
 79 Cr   -0.86405   -0.64891   -0.54727
 80 Co    0.91482    1.66569    1.02234
 81 Cr    0.56023   -1.05602    0.39953
 82 Ni    0.47795    1.07492   -2.66519
 83 Fe   -0.66003   -0.03076    0.22534
 84 Ni   -0.10144    0.56678    0.22082
 85 Ni   -0.52813    0.29459   -0.93082
 86 Al    1.84921   -1.49102   -0.04403
 87 Cr   -0.68812    0.15447   -1.39423
 88 Cr   -0.65584    0.63347   -0.23170
 89 Co    0.61361    0.11460   -0.89972
 90 Fe   -0.74552    1.01952   -0.76027
 91 Co   -0.76894    0.62721    0.46929
 92 Co    1.48910    0.26293   -0.40577
 93 Al    1.22694   -0.42295    0.54852
 94 Ni   -0.05285   -0.80905    0.01765
 95 Ni    0.06387   -2.56738   -0.42794
 96 Ni   -0.93058    0.38319    0.40942
 97 Ni    0.58461    0.30885   -0.22768
 98 Fe   -0.07547   -0.11383    0.21152
 99 Co    0.25535    1.01334   -0.48230
100 Co   -0.24457   -0.21101   -0.66812
101 Co   -0.26263   -0.15218   -0.29849
102 Cr    0.13018    1.60009   -0.08891
103 Co   -0.32560    0.27279    0.23181
104 Ni   -0.02686   -0.82459   -0.77045
105 Fe    0.77901    0.77138   -0.52147
106 Fe   -1.38628   -0.01584   -1.00245
107 Co    0.07572   -0.81631    0.81474
108 Al   -1.39539   -1.25738    0.22405
109 Fe    0.84685   -0.56800    1.01283
110 Fe    0.85919    0.44829   -0.74550
111 Cr   -0.83552   -0.17993   -0.50759
112 Cr    0.30346   -0.12239   -0.14005
113 Fe    1.16535    0.50956    0.28555
114 Co   -0.51383   -1.98794   -0.16482
115 Fe   -0.44955    0.08771    0.69496
116 Ni   -1.25817   -0.54038   -0.04085
117 Ni    1.09159   -0.58754    0.85131
118 Co   -0.25519    1.29651    0.73796
119 Cr    0.13766    1.20393    0.42360
120 Fe   -0.51795    0.29602   -0.55942
121 Co    0.69395    1.07160   -0.26917
122 Ni   -0.84642   -0.77547   -0.97888
123 Cr    1.18517   -0.77469    0.47991
124 Co   -0.12938   -0.06671   -0.17568

Timing:                              incl.     excl.
-----------------------------------------------------------
Forces:                             37.536    37.536   0.2% |
Hamiltonian:                         1.353     0.010   0.0% |
 Atomic:                             0.360     0.001   0.0% |
  XC Correction:                     0.358     0.358   0.0% |
 Calculate atomic Hamiltonians:      0.440     0.440   0.0% |
 Communicate:                        0.122     0.122   0.0% |
 Initialize Hamiltonian:             0.000     0.000   0.0% |
 Poisson:                            0.082     0.082   0.0% |
 XC 3D grid:                         0.340     0.340   0.0% |
LCAO initialization:               253.261     0.536   0.0% |
 LCAO eigensolver:                  11.660     0.009   0.0% |
  Calculate projections:             0.000     0.000   0.0% |
  DenseAtomicCorrection:             0.000     0.000   0.0% |
  Distribute overlap matrix:         7.088     7.088   0.0% |
  Orbital Layouts:                   4.513     4.513   0.0% |
  Potential matrix:                  0.006     0.006   0.0% |
  Sum over cells:                    0.044     0.044   0.0% |
 LCAO to grid:                     239.160   239.160   1.5% ||
 Set positions (LCAO WFS):           1.905     1.636   0.0% |
  Basic WFS set positions:           0.004     0.004   0.0% |
  Basis functions set positions:     0.001     0.001   0.0% |
  P tci:                             0.000     0.000   0.0% |
  ST tci:                            0.105     0.105   0.0% |
  mktci:                             0.160     0.160   0.0% |
PWDescriptor:                        0.087     0.087   0.0% |
SCF-cycle:                       15405.543     0.896   0.0% |
 Davidson:                       15044.932  5116.238  32.6% |------------|
  Apply H:                         275.232   271.210   1.7% ||
   HMM T:                            4.022     4.022   0.0% |
  Subspace diag:                  1633.496     0.036   0.0% |
   calc_h_matrix:                  673.351   425.785   2.7% ||
    Apply H:                       247.567   243.409   1.5% ||
     HMM T:                          4.157     4.157   0.0% |
   diagonalize:                    140.946   140.946   0.9% |
   rotate_psi:                     819.163   819.163   5.2% |-|
  calc. matrices:                 3783.761  3327.944  21.2% |-------|
   Apply H:                        455.816   447.770   2.9% ||
    HMM T:                           8.046     8.046   0.1% |
  diagonalize:                    2511.534  2511.534  16.0% |-----|
  rotate_psi:                     1724.671  1724.671  11.0% |---|
 Density:                          197.778     0.003   0.0% |
  Atomic density matrices:           2.339     2.339   0.0% |
  Mix:                              65.689    65.689   0.4% |
  Multipole moments:                 0.063     0.063   0.0% |
  Pseudo density:                  129.683   129.679   0.8% |
   Symmetrize density:               0.004     0.004   0.0% |
 Hamiltonian:                      144.225     1.105   0.0% |
  Atomic:                           39.969     0.151   0.0% |
   XC Correction:                   39.819    39.819   0.3% |
  Calculate atomic Hamiltonians:    50.732    50.732   0.3% |
  Communicate:                      13.136    13.136   0.1% |
  Poisson:                           3.951     3.951   0.0% |
  XC 3D grid:                       35.331    35.331   0.2% |
 Orthonormalize:                    17.712     0.001   0.0% |
  calc_s_matrix:                     2.095     2.095   0.0% |
  inverse-cholesky:                  0.757     0.757   0.0% |
  projections:                      11.153    11.153   0.1% |
  rotate_psi_s:                      3.706     3.706   0.0% |
Set symmetry:                        0.001     0.001   0.0% |
Other:                               6.793     6.793   0.0% |
-----------------------------------------------------------
Total:                                     15704.574 100.0%

Date: Mon Apr 17 19:05:43 2023
