
  ___ ___ ___ _ _ _  
 |   |   |_  | | | | 
 | | | | | . | | | | 
 |__ |  _|___|_____|  22.8.0
 |___|_|             

User:   c.zeng@d0100
Date:   Thu Apr 13 22:35:26 2023
Arch:   x86_64
Pid:    3578
CWD:    /home/c.zeng/projects/hea-corrosion/hea-mlp/data-curation/bulk-md/dft-jobs/51
Python: 3.8.1
gpaw:   /home/c.zeng/usr/installs/gpaw/source/gpaw-22.8.0/gpaw
_gpaw:  /home/c.zeng/usr/installs/gpaw/source/gpaw-22.8.0/
        _gpaw.cpython-38-x86_64-linux-gnu.so
ase:    /home/c.zeng/.local/lib/python3.8/site-packages/ase-3.22.1-py3.8.egg/ase (version 3.22.1)
numpy:  /shared/centos7/python/3.8.1/lib/python3.8/site-packages/numpy (version 1.17.4)
scipy:  /shared/centos7/python/3.8.1/lib/python3.8/site-packages/scipy (version 1.4.1)
libxc:  4.2.3
units:  Angstrom and eV
cores: 30
OpenMP: False
OMP_NUM_THREADS: 1

Input parameters:
  convergence: {energy: 0.0001}
  kpts: [2 2 2]
  maxiter: 666
  mode: {ecut: 350.0,
         name: pw}
  occupations: {fixmagmom: False,
                name: fermi-dirac,
                width: 0.1}
  spinpol: True
  xc: PBE

System changes: positions, numbers, cell, pbc, initial_charges, initial_magmoms 

Initialize ...

species:
  Co:
    name: Cobalt
    id: 339d20d5b0b93d2de9531a1bee871d91
    Z: 27.0
    valence: 9
    core: 18
    charge: 0.0
    file: /home/c.zeng/usr/data/gpaw-setups-0.9.20000/Co.PBE.gz
    compensation charges: {type: gauss,
                           rc: 0.32,
                           lmax: 2}
    cutoffs: {filter: 1.87,
              core: 2.55}
    valence states:
      #              energy  rcut
      - 4s(2.00)    -5.469   1.005
      - 4p(0.00)    -1.277   1.058
      - 3d(7.00)    -8.205   1.005
      -  s          21.742   1.005
      -  p          25.934   1.058
      -  d          19.007   1.005
  
    # Using partial waves for Co as LCAO basis

  Ni:
    name: Nickel
    id: 0d9f38a9d6e76a2886f07bb4381f212b
    Z: 28.0
    valence: 16
    core: 12
    charge: 0.0
    file: /home/c.zeng/usr/data/gpaw-setups-0.9.20000/Ni.PBE.gz
    compensation charges: {type: gauss,
                           rc: 0.36,
                           lmax: 2}
    cutoffs: {filter: 2.14,
              core: 1.98}
    valence states:
      #              energy  rcut
      - 4s(2.00)    -5.642   1.164
      - 3p(6.00)   -71.394   1.207
      - 4p(0.00)    -1.226   1.207
      - 3d(8.00)    -8.875   1.138
      -  s          21.570   1.164
      -  d          18.337   1.138
  
    # Using partial waves for Ni as LCAO basis

  Al:
    name: Aluminium
    id: 0292cae29f5d6237e50f6abdd43a7bdd
    Z: 13.0
    valence: 3
    core: 10
    charge: 0.0
    file: /home/c.zeng/usr/data/gpaw-setups-0.9.20000/Al.PBE.gz
    compensation charges: {type: gauss,
                           rc: 0.34,
                           lmax: 2}
    cutoffs: {filter: 1.91,
              core: 2.36}
    valence states:
      #              energy  rcut
      - 3s(2.00)    -7.753   1.085
      - 3p(1.00)    -2.712   1.085
      -  s          19.459   1.085
      -  p          24.499   1.085
      -  d           0.000   1.085
  
    # Using partial waves for Al as LCAO basis

  Cr:
    name: Chromium
    id: 33f258bda2ca9f93018e70263a35547b
    Z: 24.0
    valence: 6
    core: 18
    charge: 0.0
    file: /home/c.zeng/usr/data/gpaw-setups-0.9.20000/Cr.PBE.gz
    compensation charges: {type: gauss,
                           rc: 0.35,
                           lmax: 2}
    cutoffs: {filter: 2.14,
              core: 3.04}
    valence states:
      #              energy  rcut
      - 4s(1.00)    -4.007   1.164
      - 4p(0.00)    -0.989   1.217
      - 3d(5.00)    -2.913   1.111
      -  s          23.205   1.164
      -  p          26.223   1.217
      -  d          24.299   1.111
  
    # Using partial waves for Cr as LCAO basis

  Fe:
    name: Iron
    id: 37abbd8d6c3c35915a9b583b742da910
    Z: 26.0
    valence: 8
    core: 18
    charge: 0.0
    file: /home/c.zeng/usr/data/gpaw-setups-0.9.20000/Fe.PBE.gz
    compensation charges: {type: gauss,
                           rc: 0.33,
                           lmax: 2}
    cutoffs: {filter: 2.06,
              core: 2.67}
    valence states:
      #              energy  rcut
      - 4s(2.00)    -5.291   1.164
      - 4p(0.00)    -1.326   1.058
      - 3d(6.00)    -7.505   1.058
      -  s          21.920   1.164
      -  p          25.885   1.058
      -  d          19.706   1.058
  
    # Using partial waves for Fe as LCAO basis

Reference energy: -3548577.034362  # eV

Spin-polarized calculation.
Magnetic moment: 136.400000

Convergence criteria:
 Maximum [total energy] change in last 3 cyles: 0.0001 eV / electron
 Maximum integral of absolute [dens]ity change: 0.0001 electrons / valence electron
 Maximum integral of absolute [eigenst]ate change: 4e-08 eV^2 / valence electron
 Maximum number of scf [iter]ations: 666
 (Square brackets indicate name in SCF output, whereas a 'c' in
 the SCF output indicates the quantity has converged.)

Symmetries present (total): 1

  ( 1  0  0)
  ( 0  1  0)
  ( 0  0  1)

8 k-points: 2 x 2 x 2 Monkhorst-Pack grid
4 k-points in the irreducible part of the Brillouin zone
       k-points in crystal coordinates                weights
   0:     0.25000000   -0.25000000   -0.25000000          2/8
   1:     0.25000000   -0.25000000    0.25000000          2/8
   2:     0.25000000    0.25000000   -0.25000000          2/8
   3:     0.25000000    0.25000000    0.25000000          2/8

Wave functions: Plane wave expansion
  Cutoff energy: 350.000 eV
  Number of coefficients (min, max): 18331, 18331
  Pulay-stress correction: 0.000000 eV/Ang^3 (de/decut=0.000000)
  Using FFTW library
  ScaLapack parameters: grid=1x1, blocksize=None
  Wavefunction extrapolation:
    Improved wavefunction reuse through dual PAW basis 

Occupation numbers: Fermi-Dirac:
  width: 0.1000  # eV
 

Eigensolver
   Davidson(niter=2) 

Densities:
  Coarse grid: 48*48*48 grid
  Fine grid: 96*96*96 grid
  Total Charge: 0.000000 

Density mixing:
  Method: difference
  Backend: pulay
  Linear mixing parameter: 0.05
  old densities: 5
  Damping of long wavelength oscillations: 50 

Hamiltonian:
  XC and Coulomb potentials evaluated on a 96*96*96 grid
  Using the PBE Exchange-Correlation functional
  External potential:
    NoExternalPotential
 

XC parameters: PBE with 2 nearest neighbor stencil

Memory estimate:
  Process memory now: 250.26 MiB
  Calculator: 1030.73 MiB
    Density: 5.48 MiB
      Arrays: 2.05 MiB
      Localized functions: 2.61 MiB
      Mixer: 0.82 MiB
    Hamiltonian: 1.60 MiB
      Arrays: 1.52 MiB
      XC: 0.00 MiB
      Poisson: 0.00 MiB
      vbar: 0.08 MiB
    Wavefunctions: 1023.65 MiB
      Arrays psit_nG: 754.10 MiB
      Eigensolver: 259.26 MiB
      Projections: 5.19 MiB
      Projectors: 0.71 MiB
      PW-descriptor: 4.39 MiB

Total number of cores used: 30
Parallelization over k-points: 2
Domain decomposition: 5 x 3 x 1

Number of atoms: 108
Number of atomic orbitals: 994
Number of bands in calculation: 674
Number of valence electrons: 980
Bands to converge: occupied

... initialized

Initializing position-dependent things.

Density initialized from atomic densities
Creating initial wave functions:
  674 bands from LCAO basis set

        .-------------------------.  
       /|  Cr       Fe            |  
      / |            Fe      Al   |  
     / NiAl     Ni      Ni     Fe |  
    /   | Ni     Co      NiFe     |  
   / Co |Al Cr    Fe Co           |  
  /     |   CFe Fe  CNi Al  Fe    |  
 Co   CoNi    CoAl     CoCr       |  
 |      |FeFe   CoCoCr  CCr Co   Ni  
 |   Co | CrCo     CoFe    FeCr   |  
 |    Fe|  NiNi Cr  CrCoNi  NiFe  |  
 |     Fe    ACoCo    Cr Cr  FeNi |  
 | Ni   Ni Ni  Ni  Co   CrFe     Al  
 |  CrCo.NiNi----CrCoCAl-CrFe-----.  
 |     Ni    Cr Ni    CrNi  CrFe /   
 |    /Al      Fe Cr   Fe       /    
 |   /     Co    Al      CrNi  /     
 |Ni/      Fe       Fe        /      
 | /Co        Fe             /       
 |/   Cr                    /        
 *--------Cr---------------*         

Positions:
   0 Co    10.764343    0.005965   10.683799    ( 0.0000,  0.0000,  2.1000)
   1 Ni    10.772741    1.681973    1.730614    ( 0.0000,  0.0000,  1.5000)
   2 Al     2.137687   -0.114233    1.883450    ( 0.0000,  0.0000,  0.0000)
   3 Cr     1.706008    1.765206   10.749661    ( 0.0000,  0.0000,  0.0000)
   4 Cr     3.664354    0.130931   10.747572    ( 0.0000,  0.0000,  0.0000)
   5 Fe     3.666716    1.914439    1.788285    ( 0.0000,  0.0000,  2.0000)
   6 Fe     5.427907    0.076749    1.635398    ( 0.0000,  0.0000,  2.0000)
   7 Fe     5.549202    1.720731   -0.062335    ( 0.0000,  0.0000,  2.0000)
   8 Cr     6.999487   -0.044029    0.007991    ( 0.0000,  0.0000,  0.0000)
   9 Fe     7.285112    1.750304    1.813199    ( 0.0000,  0.0000,  2.0000)
  10 Fe     8.811668   -0.103431    1.727995    ( 0.0000,  0.0000,  2.0000)
  11 Al     9.056799    1.869484   -0.092579    ( 0.0000,  0.0000,  0.0000)
  12 Co    10.797525    3.615558   10.801535    ( 0.0000,  0.0000,  2.1000)
  13 Fe    10.399263    5.398188    1.920812    ( 0.0000,  0.0000,  2.0000)
  14 Al     1.694605    3.628880    1.780366    ( 0.0000,  0.0000,  0.0000)
  15 Al     1.946925    5.494385   10.656443    ( 0.0000,  0.0000,  0.0000)
  16 Cr     3.509446    3.292613   10.579287    ( 0.0000,  0.0000,  0.0000)
  17 Cr     3.475530    5.373647    1.788638    ( 0.0000,  0.0000,  0.0000)
  18 Al     5.454078    3.638798    1.602353    ( 0.0000,  0.0000,  0.0000)
  19 Co     5.209608    5.339573   10.634749    ( 0.0000,  0.0000,  2.1000)
  20 Co     7.230797    3.418414   -0.091301    ( 0.0000,  0.0000,  2.1000)
  21 Cr     7.245096    5.322507    1.789589    ( 0.0000,  0.0000,  0.0000)
  22 Cr     9.071905    3.414970    1.821306    ( 0.0000,  0.0000,  0.0000)
  23 Cr     8.916576    5.339188    0.048245    ( 0.0000,  0.0000,  0.0000)
  24 Fe    10.662294    7.108267   10.552427    ( 0.0000,  0.0000,  2.0000)
  25 Al    10.619836    9.079293    1.742771    ( 0.0000,  0.0000,  0.0000)
  26 Ni     1.501036    7.022182    1.751229    ( 0.0000,  0.0000,  1.5000)
  27 Cr     1.794359    8.973869   10.592642    ( 0.0000,  0.0000,  0.0000)
  28 Fe     3.673696    7.146959   10.824960    ( 0.0000,  0.0000,  2.0000)
  29 Ni     3.406493    8.880662    1.639799    ( 0.0000,  0.0000,  1.5000)
  30 Co     5.321838    7.235087    1.603905    ( 0.0000,  0.0000,  2.1000)
  31 Fe     5.472731    9.027880   10.690049    ( 0.0000,  0.0000,  2.0000)
  32 Fe     7.139397    7.053243   10.797357    ( 0.0000,  0.0000,  2.0000)
  33 Cr     7.211229    8.855859    1.634051    ( 0.0000,  0.0000,  0.0000)
  34 Fe     8.712954    7.078648    2.016550    ( 0.0000,  0.0000,  2.0000)
  35 Cr     8.907168    8.786791    0.159829    ( 0.0000,  0.0000,  0.0000)
  36 Ni    10.696733    0.045795    3.407431    ( 0.0000,  0.0000,  1.5000)
  37 Ni     0.233988    1.570630    5.422905    ( 0.0000,  0.0000,  1.5000)
  38 Co     2.212909    0.063499    5.370218    ( 0.0000,  0.0000,  2.1000)
  39 Ni     1.956029    1.723966    3.697433    ( 0.0000,  0.0000,  1.5000)
  40 Co     4.027200    0.146840    3.619272    ( 0.0000,  0.0000,  2.1000)
  41 Ni     3.752548    1.929602    5.202785    ( 0.0000,  0.0000,  1.5000)
  42 Co     5.513027   -0.086186    5.553139    ( 0.0000,  0.0000,  2.1000)
  43 Ni     5.527263    2.133467    3.506192    ( 0.0000,  0.0000,  1.5000)
  44 Cr     6.931789    0.253680    3.587644    ( 0.0000,  0.0000,  0.0000)
  45 Co     7.050577    1.919024    5.292834    ( 0.0000,  0.0000,  2.1000)
  46 Al     8.722626   10.821100    5.361567    ( 0.0000,  0.0000,  0.0000)
  47 Ni     8.945581    1.811143    3.798721    ( 0.0000,  0.0000,  1.5000)
  48 Cr    10.944452    3.467912    3.610812    ( 0.0000,  0.0000,  0.0000)
  49 Fe    -0.120170    5.361171    5.621581    ( 0.0000,  0.0000,  2.0000)
  50 Fe     1.675977    3.458974    5.615732    ( 0.0000,  0.0000,  2.0000)
  51 Ni     1.600641    5.331137    3.728038    ( 0.0000,  0.0000,  1.5000)
  52 Ni     3.318240    3.635658    3.607915    ( 0.0000,  0.0000,  1.5000)
  53 Ni     3.369416    5.350479    5.236188    ( 0.0000,  0.0000,  1.5000)
  54 Co     5.336913    3.813365    5.342875    ( 0.0000,  0.0000,  2.1000)
  55 Cr     5.261845    5.396458    3.186718    ( 0.0000,  0.0000,  0.0000)
  56 Cr     7.262020    3.718999    3.668309    ( 0.0000,  0.0000,  0.0000)
  57 Co     7.127108    5.388898    5.413961    ( 0.0000,  0.0000,  2.1000)
  58 Cr     9.133065    3.505074    5.424622    ( 0.0000,  0.0000,  0.0000)
  59 Fe     8.980554    5.358090    3.785686    ( 0.0000,  0.0000,  2.0000)
  60 Ni    10.588430    7.281640    3.584561    ( 0.0000,  0.0000,  1.5000)
  61 Ni    10.666865    8.877079    5.132765    ( 0.0000,  0.0000,  1.5000)
  62 Cr     1.707855    7.192412    5.121475    ( 0.0000,  0.0000,  0.0000)
  63 Ni     1.538646    8.939931    3.498175    ( 0.0000,  0.0000,  1.5000)
  64 Co     3.619464    7.190008    3.623223    ( 0.0000,  0.0000,  2.1000)
  65 Co     3.648323    8.997248    5.176357    ( 0.0000,  0.0000,  2.1000)
  66 Co     5.303542    7.108805    5.392956    ( 0.0000,  0.0000,  2.1000)
  67 Cr     5.388042    9.020215    3.335822    ( 0.0000,  0.0000,  0.0000)
  68 Cr     6.869600    7.090927    3.698076    ( 0.0000,  0.0000,  0.0000)
  69 Cr     7.064847    8.867874    5.125307    ( 0.0000,  0.0000,  0.0000)
  70 Fe     8.700236    7.114553    5.375252    ( 0.0000,  0.0000,  2.0000)
  71 Ni     8.671799    8.995504    3.609081    ( 0.0000,  0.0000,  1.5000)
  72 Al     0.373378   10.696880    6.974760    ( 0.0000,  0.0000,  0.0000)
  73 Co    -0.046699    1.649088    8.791192    ( 0.0000,  0.0000,  2.1000)
  74 Co     1.622290    0.111503    8.957657    ( 0.0000,  0.0000,  2.1000)
  75 Fe     1.757721    1.846781    7.138712    ( 0.0000,  0.0000,  2.0000)
  76 Fe     3.614962   -0.000394    7.245662    ( 0.0000,  0.0000,  2.0000)
  77 Fe     3.528990    1.828848    8.804402    ( 0.0000,  0.0000,  2.0000)
  78 Fe     5.392338   10.651053    8.966872    ( 0.0000,  0.0000,  2.0000)
  79 Cr     5.498140    2.030425    7.347189    ( 0.0000,  0.0000,  0.0000)
  80 Ni     7.062824   10.645309    7.264353    ( 0.0000,  0.0000,  1.5000)
  81 Cr     7.285802    1.611247    8.861883    ( 0.0000,  0.0000,  0.0000)
  82 Al     8.889111   10.377093    8.873764    ( 0.0000,  0.0000,  0.0000)
  83 Ni     8.930838    1.652697    7.107276    ( 0.0000,  0.0000,  1.5000)
  84 Cr    -0.041560    3.640111    7.394961    ( 0.0000,  0.0000,  0.0000)
  85 Co     0.126364    5.488358    9.025502    ( 0.0000,  0.0000,  2.1000)
  86 Ni     1.814649    3.654223    9.059959    ( 0.0000,  0.0000,  1.5000)
  87 Fe     1.785329    5.338662    7.077097    ( 0.0000,  0.0000,  2.0000)
  88 Co     3.652847    3.567958    7.095967    ( 0.0000,  0.0000,  2.1000)
  89 Fe     3.560783    5.297741    8.871356    ( 0.0000,  0.0000,  2.0000)
  90 Al     5.189035    3.624583    8.749280    ( 0.0000,  0.0000,  0.0000)
  91 Co     5.454415    5.455466    7.009610    ( 0.0000,  0.0000,  2.1000)
  92 Fe     7.219308    3.477240    7.281192    ( 0.0000,  0.0000,  2.0000)
  93 Ni     6.879234    5.320458    8.948931    ( 0.0000,  0.0000,  1.5000)
  94 Cr     8.825405    3.752173    8.997880    ( 0.0000,  0.0000,  0.0000)
  95 Cr     8.566595    5.496320    7.189677    ( 0.0000,  0.0000,  0.0000)
  96 Co    10.914671    7.071809    7.075072    ( 0.0000,  0.0000,  2.1000)
  97 Ni    10.817500    8.817741    8.898230    ( 0.0000,  0.0000,  1.5000)
  98 Ni     1.885930    7.089605    9.043926    ( 0.0000,  0.0000,  1.5000)
  99 Co     2.089622    8.996182    7.024990    ( 0.0000,  0.0000,  2.1000)
 100 Co     3.393287    7.081187    7.029251    ( 0.0000,  0.0000,  2.1000)
 101 Ni     3.569397    9.257757    8.861030    ( 0.0000,  0.0000,  1.5000)
 102 Fe     5.178930    7.153652    8.883617    ( 0.0000,  0.0000,  2.0000)
 103 Co     5.298481    8.784910    7.061376    ( 0.0000,  0.0000,  2.1000)
 104 Co     6.987275    7.213727    7.148372    ( 0.0000,  0.0000,  2.1000)
 105 Ni     7.031419    8.810462    9.048170    ( 0.0000,  0.0000,  1.5000)
 106 Fe     8.880655    7.111510    8.964945    ( 0.0000,  0.0000,  2.0000)
 107 Fe     8.772204    8.898262    7.062912    ( 0.0000,  0.0000,  2.0000)

Unit cell:
           periodic     x           y           z      points  spacing
  1. axis:    yes   10.722400    0.000000    0.000000    48     0.2234
  2. axis:    yes    0.000000   10.722400    0.000000    48     0.2234
  3. axis:    yes    0.000000    0.000000   10.722400    48     0.2234

  Lengths:  10.722400  10.722400  10.722400
  Angles:   90.000000  90.000000  90.000000

Effective grid spacing dv^(1/3) = 0.2234

     iter     time        total  log10-change:  magmom
                         energy  eigst   dens
iter:   1 22:38:54 -1016.721589                  +136.6833
iter:   2 22:40:13  -898.692250  -0.23  -1.18    +75.5759
iter:   3 22:41:33  -895.164545  -0.81  -1.21    +63.1725
iter:   4 22:42:53  -871.119322  -1.19  -1.27    +58.8327
iter:   5 22:44:13  -857.861481  -1.57  -1.28    +55.3302
iter:   6 22:45:34  -866.008384  -1.22  -1.35    +55.4730
iter:   7 22:46:54  -848.651269  -1.22  -1.40    +53.0942
iter:   8 22:48:14  -839.264780  -1.61  -1.55    +52.2742
iter:   9 22:49:35  -838.933097  -2.07  -1.75    +52.9618
iter:  10 22:50:55  -837.966005  -2.33  -1.77    +53.9709
iter:  11 22:52:16  -838.863672  -2.49  -1.83    +54.9458
iter:  12 22:53:36  -839.150132  -2.40  -1.82    +56.3145
iter:  13 22:54:56  -839.619440  -2.40  -1.87    +57.2552
iter:  14 22:56:17  -838.686113  -2.39  -1.91    +57.1255
iter:  15 22:57:37  -838.884948  -2.58  -2.03    +58.1792
iter:  16 22:58:58  -838.832024  -2.73  -2.07    +58.6111
iter:  17 23:00:18  -838.415726  -2.95  -2.09    +59.1889
iter:  18 23:01:39  -839.007907  -2.84  -2.18    +59.4150
iter:  19 23:02:59  -838.620636  -2.96  -2.15    +59.8164
iter:  20 23:04:20  -838.537452  -3.16  -2.21    +60.4244
iter:  21 23:05:40  -838.661053  -3.01  -2.28    +60.2825
iter:  22 23:07:01  -838.684118  -3.05  -2.32    +60.5469
iter:  23 23:08:21  -838.652774c -3.04  -2.35    +60.6132
iter:  24 23:09:42  -838.450199  -3.20  -2.37    +60.8987
iter:  25 23:11:02  -838.591487  -3.33  -2.52    +61.0286
iter:  26 23:12:23  -838.445877  -3.50  -2.49    +61.0970
iter:  27 23:13:43  -838.424974  -3.87  -2.59    +61.5004
iter:  28 23:15:04  -838.428669c -4.02  -2.68    +61.5306
iter:  29 23:16:24  -838.449251c -4.17  -2.70    +61.7134
iter:  30 23:17:45  -838.443238c -4.42  -2.72    +61.7621
iter:  31 23:19:05  -838.475257c -4.40  -2.77    +61.8765
iter:  32 23:20:26  -838.498366c -4.22  -2.76    +61.8632
iter:  33 23:21:46  -838.505552c -4.24  -2.77    +61.8697
iter:  34 23:23:07  -838.541436c -4.03  -2.80    +62.0167
iter:  35 23:24:27  -838.564934c -3.88  -2.78    +61.9561
iter:  36 23:25:48  -838.547881c -3.97  -2.79    +61.9301
iter:  37 23:27:08  -838.540318c -4.21  -2.82    +61.9253
iter:  38 23:28:29  -838.529434c -4.36  -2.89    +61.9259
iter:  39 23:29:49  -838.527319c -4.67  -2.98    +61.9575
iter:  40 23:31:10  -838.526916c -5.06  -3.04    +61.8989
iter:  41 23:32:30  -838.535886c -5.06  -3.08    +61.9257
iter:  42 23:33:50  -838.564853c -4.32  -3.11    +61.8628
iter:  43 23:35:11  -838.552954c -4.73  -3.05    +61.9153
iter:  44 23:36:31  -838.557371c -4.66  -3.17    +61.8701
iter:  45 23:37:51  -838.559215c -4.89  -3.33    +61.8472
iter:  46 23:39:12  -838.559888c -5.13  -3.35    +61.8446
iter:  47 23:40:32  -838.561392c -5.32  -3.50    +61.8100
iter:  48 23:41:53  -838.564517c -5.53  -3.53    +61.8173
iter:  49 23:43:13  -838.569577c -5.29  -3.60    +61.7657
iter:  50 23:44:34  -838.574792c -5.24  -3.58    +61.7599
iter:  51 23:45:54  -838.592460c -4.35  -3.56    +61.6981
iter:  52 23:47:15  -838.607921c -4.22  -3.40    +61.6607
iter:  53 23:48:35  -838.624960c -3.97  -3.28    +61.6055
iter:  54 23:49:56  -838.628571c -4.51  -3.14    +61.6067
iter:  55 23:51:17  -838.630928c -4.88  -3.10    +61.6076
iter:  56 23:52:37  -838.634126c -5.23  -3.08    +61.6434
iter:  57 23:53:57  -838.631485c -5.31  -3.05    +61.6475
iter:  58 23:55:18  -838.634736c -4.90  -3.08    +61.6615
iter:  59 23:56:39  -838.645902c -4.32  -3.04    +61.6670
iter:  60 23:57:59  -838.643910c -4.19  -2.92    +61.6839
iter:  61 23:59:20  -838.612883c -4.82  -2.92    +61.5469
iter:  62 00:00:44  -838.615834c -5.01  -3.20    +61.4681
iter:  63 00:02:18  -838.617192c -4.92  -3.16    +61.4096
iter:  64 00:03:42  -838.609453c -4.93  -3.14    +61.3280
iter:  65 00:05:09  -838.618538c -4.80  -3.34    +61.2966
iter:  66 00:06:41  -838.610562c -5.01  -3.26    +61.2910
iter:  67 00:08:08  -838.610105c -5.23  -3.39    +61.3187
iter:  68 00:09:49  -838.609119c -5.54  -3.40    +61.2813
iter:  69 00:11:32  -838.609371c -5.52  -3.52    +61.2559
iter:  70 00:13:15  -838.608445c -5.70  -3.50    +61.2583
iter:  71 00:15:00  -838.608550c -5.72  -3.58    +61.2522
iter:  72 00:16:43  -838.609096c -5.74  -3.58    +61.2386
iter:  73 00:18:27  -838.609395c -5.66  -3.60    +61.2179
iter:  74 00:20:12  -838.607812c -5.77  -3.59    +61.2429
iter:  75 00:21:55  -838.608070c -5.92  -3.68    +61.2485
iter:  76 00:23:39  -838.608053c -6.02  -3.72    +61.2218
iter:  77 00:25:24  -838.607547c -6.19  -3.73    +61.2144
iter:  78 00:27:09  -838.607141c -6.24  -3.81    +61.2136
iter:  79 00:28:53  -838.607078c -6.40  -3.82    +61.2171
iter:  80 00:30:39  -838.607820c -6.13  -3.88    +61.2061
iter:  81 00:32:24  -838.607282c -6.23  -3.81    +61.2130
iter:  82 00:34:06  -838.606972c -6.15  -3.87    +61.2281
iter:  83 00:35:46  -838.607068c -6.31  -3.91    +61.2300
iter:  84 00:37:32  -838.607173c -6.37  -3.95    +61.2251
iter:  85 00:39:17  -838.606816c -6.74  -3.97    +61.2178
iter:  86 00:41:01  -838.606509c -6.74  -4.08c   +61.2257
iter:  87 00:42:46  -838.606596c -7.06  -4.07c   +61.2254
iter:  88 00:44:32  -838.606621c -6.99  -4.14c   +61.2206
iter:  89 00:46:14  -838.606455c -6.92  -4.13c   +61.2207
iter:  90 00:47:57  -838.606381c -6.77  -4.15c   +61.2234
iter:  91 00:49:40  -838.606376c -6.86  -4.13c   +61.2277
iter:  92 00:51:22  -838.606609c -6.85  -4.19c   +61.2229
iter:  93 00:53:06  -838.606324c -6.89  -4.15c   +61.2247
iter:  94 00:54:50  -838.606153c -7.11  -4.21c   +61.2278
iter:  95 00:56:34  -838.606225c -7.23  -4.28c   +61.2263
iter:  96 00:58:19  -838.606164c -7.34  -4.30c   +61.2230
iter:  97 01:00:04  -838.606109c -7.19  -4.33c   +61.2204
iter:  98 01:01:46  -838.605984c -7.47c -4.32c   +61.2237

Converged after 98 iterations.

Dipole moment: (-20.012157, -11.429639, 18.216499) |e|*Ang

Total magnetic moment: (0.000000, 0.000000, 61.223738)
Local magnetic moments:
   0 Co ( 0.000000,  0.000000,  0.349448)
   1 Ni ( 0.000000,  0.000000,  0.104220)
   2 Al ( 0.000000,  0.000000, -0.007685)
   3 Cr ( 0.000000,  0.000000,  0.936734)
   4 Cr ( 0.000000,  0.000000, -1.252199)
   5 Fe ( 0.000000,  0.000000,  1.889944)
   6 Fe ( 0.000000,  0.000000,  1.358155)
   7 Fe ( 0.000000,  0.000000,  1.374258)
   8 Cr ( 0.000000,  0.000000, -0.862507)
   9 Fe ( 0.000000,  0.000000,  1.564961)
  10 Fe ( 0.000000,  0.000000,  1.807454)
  11 Al ( 0.000000,  0.000000, -0.021688)
  12 Co ( 0.000000,  0.000000, -0.253725)
  13 Fe ( 0.000000,  0.000000,  1.864739)
  14 Al ( 0.000000,  0.000000, -0.005970)
  15 Al ( 0.000000,  0.000000, -0.021013)
  16 Cr ( 0.000000,  0.000000, -0.999787)
  17 Cr ( 0.000000,  0.000000, -1.350796)
  18 Al ( 0.000000,  0.000000, -0.012732)
  19 Co ( 0.000000,  0.000000,  1.064743)
  20 Co ( 0.000000,  0.000000,  0.786017)
  21 Cr ( 0.000000,  0.000000, -0.566968)
  22 Cr ( 0.000000,  0.000000,  0.873174)
  23 Cr ( 0.000000,  0.000000, -1.180092)
  24 Fe ( 0.000000,  0.000000,  2.000861)
  25 Al ( 0.000000,  0.000000, -0.016434)
  26 Ni ( 0.000000,  0.000000,  0.189853)
  27 Cr ( 0.000000,  0.000000, -1.921376)
  28 Fe ( 0.000000,  0.000000,  2.043333)
  29 Ni ( 0.000000,  0.000000,  0.028204)
  30 Co ( 0.000000,  0.000000,  0.793598)
  31 Fe ( 0.000000,  0.000000,  1.466655)
  32 Fe ( 0.000000,  0.000000,  1.352276)
  33 Cr ( 0.000000,  0.000000, -0.440993)
  34 Fe ( 0.000000,  0.000000,  1.490734)
  35 Cr ( 0.000000,  0.000000, -0.883966)
  36 Ni ( 0.000000,  0.000000,  0.298878)
  37 Ni ( 0.000000,  0.000000,  0.228005)
  38 Co ( 0.000000,  0.000000,  1.527681)
  39 Ni ( 0.000000,  0.000000,  0.369715)
  40 Co ( 0.000000,  0.000000,  1.368315)
  41 Ni ( 0.000000,  0.000000,  0.528715)
  42 Co ( 0.000000,  0.000000,  1.385858)
  43 Ni ( 0.000000,  0.000000,  0.151537)
  44 Cr ( 0.000000,  0.000000, -1.007684)
  45 Co ( 0.000000,  0.000000,  0.660630)
  46 Al ( 0.000000,  0.000000, -0.011153)
  47 Ni ( 0.000000,  0.000000,  0.054186)
  48 Cr ( 0.000000,  0.000000, -1.769459)
  49 Fe ( 0.000000,  0.000000,  1.950399)
  50 Fe ( 0.000000,  0.000000,  2.143556)
  51 Ni ( 0.000000,  0.000000,  0.193426)
  52 Ni ( 0.000000,  0.000000,  0.248245)
  53 Ni ( 0.000000,  0.000000,  0.401887)
  54 Co ( 0.000000,  0.000000,  1.458023)
  55 Cr ( 0.000000,  0.000000,  1.029209)
  56 Cr ( 0.000000,  0.000000, -0.946824)
  57 Co ( 0.000000,  0.000000,  0.749778)
  58 Cr ( 0.000000,  0.000000,  1.049094)
  59 Fe ( 0.000000,  0.000000,  0.547990)
  60 Ni ( 0.000000,  0.000000,  0.177115)
  61 Ni ( 0.000000,  0.000000,  0.249510)
  62 Cr ( 0.000000,  0.000000, -1.706443)
  63 Ni ( 0.000000,  0.000000,  0.188409)
  64 Co ( 0.000000,  0.000000,  1.225981)
  65 Co ( 0.000000,  0.000000,  1.529913)
  66 Co ( 0.000000,  0.000000,  1.327242)
  67 Cr ( 0.000000,  0.000000,  0.448594)
  68 Cr ( 0.000000,  0.000000, -0.445311)
  69 Cr ( 0.000000,  0.000000, -0.440343)
  70 Fe ( 0.000000,  0.000000,  1.931895)
  71 Ni ( 0.000000,  0.000000,  0.103624)
  72 Al ( 0.000000,  0.000000, -0.036174)
  73 Co ( 0.000000,  0.000000,  0.979818)
  74 Co ( 0.000000,  0.000000,  0.883020)
  75 Fe ( 0.000000,  0.000000,  2.051618)
  76 Fe ( 0.000000,  0.000000,  2.462436)
  77 Fe ( 0.000000,  0.000000,  1.512157)
  78 Fe ( 0.000000,  0.000000,  1.792841)
  79 Cr ( 0.000000,  0.000000, -0.997585)
  80 Ni ( 0.000000,  0.000000,  0.344594)
  81 Cr ( 0.000000,  0.000000,  0.721731)
  82 Al ( 0.000000,  0.000000, -0.009681)
  83 Ni ( 0.000000,  0.000000,  0.133355)
  84 Cr ( 0.000000,  0.000000, -1.462566)
  85 Co ( 0.000000,  0.000000,  0.951339)
  86 Ni ( 0.000000,  0.000000,  0.138253)
  87 Fe ( 0.000000,  0.000000,  2.175858)
  88 Co ( 0.000000,  0.000000,  1.128456)
  89 Fe ( 0.000000,  0.000000,  2.120004)
  90 Al ( 0.000000,  0.000000, -0.039757)
  91 Co ( 0.000000,  0.000000,  1.567702)
  92 Fe ( 0.000000,  0.000000,  1.092642)
  93 Ni ( 0.000000,  0.000000,  0.321374)
  94 Cr ( 0.000000,  0.000000,  1.053511)
  95 Cr ( 0.000000,  0.000000, -1.482235)
  96 Co ( 0.000000,  0.000000,  1.473088)
  97 Ni ( 0.000000,  0.000000,  0.244538)
  98 Ni ( 0.000000,  0.000000,  0.394066)
  99 Co ( 0.000000,  0.000000,  1.473685)
 100 Co ( 0.000000,  0.000000,  1.637452)
 101 Ni ( 0.000000,  0.000000,  0.414836)
 102 Fe ( 0.000000,  0.000000,  2.504264)
 103 Co ( 0.000000,  0.000000,  1.570312)
 104 Co ( 0.000000,  0.000000,  1.275089)
 105 Ni ( 0.000000,  0.000000,  0.293142)
 106 Fe ( 0.000000,  0.000000,  2.173259)
 107 Fe ( 0.000000,  0.000000,  2.337214)

Energy contributions relative to reference atoms: (reference = -3548577.034362)

Kinetic:       +354.675461
Potential:     -352.950090
External:        +0.000000
XC:            -874.127076
Entropy (-ST):   -4.443294
Local:          +36.017368
--------------------------
Free energy:   -840.827630
Extrapolated:  -838.605984

Spin contamination: 24.097833 electrons
Showing only first 2 kpts
                      Up                     Down
 Kpt  Band  Eigenvalues  Occupancy  Eigenvalues  Occupancy
  0   488      9.51028    0.99368     10.37408    0.02713
  0   489      9.51820    0.99317     10.38376    0.02469
  0   490      9.53002    0.99232     10.39970    0.02113
  0   491      9.54167    0.99138     10.41376    0.01841

  1   488      9.50975    0.99372     10.37644    0.02651
  1   489      9.51620    0.99330     10.38647    0.02404
  1   490      9.52981    0.99233     10.39536    0.02204
  1   491      9.54589    0.99101     10.41455    0.01826


Fermi level: 10.01611

No gap

Forces in eV/Ang:
  0 Co   -0.31975   -0.76332   -0.05698
  1 Ni    0.02090    0.38346    0.69296
  2 Al   -2.07340    2.36339    1.20874
  3 Cr    0.01611   -0.44005   -1.06159
  4 Cr    0.37858    0.42154   -1.34944
  5 Fe   -0.01321   -0.29096    0.16278
  6 Fe   -0.74124    0.13736    0.87665
  7 Fe   -1.01802    0.85024   -0.49588
  8 Cr    1.67254    0.21513   -0.44028
  9 Fe   -0.11149    0.37755   -0.14260
 10 Fe    0.01261    1.54212    0.40736
 11 Al    0.54975   -1.47344    0.26861
 12 Co   -0.62508    0.11430   -0.89694
 13 Fe    1.00385    0.05332   -0.36282
 14 Al    0.55055   -0.48044   -0.21611
 15 Al   -1.64414   -1.13379    0.41663
 16 Cr    0.12345    0.10595    1.47429
 17 Cr    1.14566    0.81097    0.81373
 18 Al   -0.18981   -1.58891   -0.33128
 19 Co    0.16650    0.04742    0.68409
 20 Co   -0.40196    0.97634    0.38423
 21 Cr   -0.15363    0.41694   -0.04871
 22 Cr   -0.49233    0.85251    1.02676
 23 Cr    0.35682    0.31264   -0.48231
 24 Fe   -0.02309    0.80256    1.76647
 25 Al    1.10119   -1.47149    1.06484
 26 Ni    0.90232    0.55955    0.38436
 27 Cr   -0.18697   -0.40467   -0.25419
 28 Fe   -0.91237    0.57264   -1.17844
 29 Ni    1.85650   -0.90978    0.95739
 30 Co    0.41768   -0.52754    0.97991
 31 Fe   -2.02531   -0.79176    0.89598
 32 Fe   -0.16828   -0.21502   -0.45301
 33 Cr   -0.70043    0.10045    1.14574
 34 Fe    0.35547    0.05361   -0.82230
 35 Cr   -0.78993   -0.34757   -1.70895
 36 Ni   -0.00019    0.02713    1.05753
 37 Ni   -1.78096    0.90612   -1.43363
 38 Co   -0.73168   -0.13373   -0.88052
 39 Ni   -0.70559   -0.50560   -1.11798
 40 Co   -0.77565   -0.13461    0.08745
 41 Ni    0.37567   -0.30289    1.48471
 42 Co   -0.91811    0.84770   -0.71888
 43 Ni   -1.56348   -0.24643   -0.26957
 44 Cr    0.12827   -0.99046   -0.72252
 45 Co   -0.02792    0.36091    1.23077
 46 Al    1.09629   -0.59655    0.10022
 47 Ni    0.41246    0.17571   -1.74672
 48 Cr   -2.52385   -0.41540    1.71257
 49 Fe   -0.06947    0.24280   -1.28695
 50 Fe    0.42446    0.97776   -1.59435
 51 Ni    0.01242    0.60738   -1.29702
 52 Ni    1.03130    0.19954   -0.34889
 53 Ni    1.29320    0.28379    0.85652
 54 Co    0.23595   -0.74419   -0.28772
 55 Cr   -0.13703    0.25372    2.05294
 56 Cr    0.54591   -0.04890    0.16791
 57 Co   -0.15929   -0.54007   -0.55202
 58 Cr   -0.69173   -0.13833    0.32524
 59 Fe   -0.12469   -0.40692   -0.42201
 60 Ni   -0.71200   -1.80824   -0.65875
 61 Ni   -0.60113    1.43275    2.49678
 62 Cr    0.53613    0.38943    1.14902
 63 Ni    2.34781    0.19038   -0.21616
 64 Co   -0.44952    0.14960   -0.90557
 65 Co    0.22742   -0.51664    0.24195
 66 Co   -0.71953   -0.16786   -0.53359
 67 Cr   -0.02431   -0.64177    0.42054
 68 Cr    1.03109   -0.19621   -0.84725
 69 Cr   -1.50715   -0.02718    1.45502
 70 Fe    1.62693    0.54752   -0.10455
 71 Ni    1.28173    0.10133   -0.51622
 72 Al   -2.00344   -2.14300    0.48752
 73 Co   -0.25471    0.99523    0.65963
 74 Co    1.74648   -0.63762    0.48800
 75 Fe    1.71795    0.39883    1.33863
 76 Fe    0.53961    1.51312   -1.75589
 77 Fe    0.09861   -0.57909    0.46833
 78 Fe   -0.01730    0.87795   -0.48512
 79 Cr    0.19465   -3.87683   -3.29640
 80 Ni    0.40218   -0.47659   -0.69116
 81 Cr   -1.07642    1.21057    0.25854
 82 Al    1.17207    0.98780    0.68423
 83 Ni    0.23606    0.41993    0.18511
 84 Cr   -0.55839   -0.58350   -0.61775
 85 Co   -1.10302   -1.05630   -1.18931
 86 Ni   -0.86088   -0.75549   -1.26610
 87 Fe    0.17283   -0.03168    1.04161
 88 Co   -1.16557    0.45736   -0.81729
 89 Fe   -0.08166    0.95639   -0.69721
 90 Al    2.06637    1.98825    3.43780
 91 Co   -1.68992   -0.64855    0.62603
 92 Fe    0.00655    0.50003   -1.20738
 93 Ni    1.15605    0.64902    0.27727
 94 Cr    0.92695    0.08120   -0.92670
 95 Cr    2.18004   -0.35889    0.23234
 96 Co   -0.86775    1.42163    0.70523
 97 Ni   -0.54276    0.56502   -0.78669
 98 Ni    0.39978    1.41377   -1.42850
 99 Co   -1.46699   -0.93276    0.21005
100 Co    0.83399    0.25328    0.06206
101 Ni   -0.35125   -2.85107    1.61942
102 Fe    0.26724    0.18491    0.30575
103 Co   -0.44934    0.99038    0.41621
104 Co    0.65989    0.16109    0.34056
105 Ni    0.70892   -0.08935   -1.11672
106 Fe   -0.36166   -0.04907   -0.53922
107 Fe    0.94631   -1.31294   -0.71602

Timing:                              incl.     excl.
-----------------------------------------------------------
Forces:                             20.432    20.432   0.2% |
Hamiltonian:                         0.538     0.004   0.0% |
 Atomic:                             0.313     0.104   0.0% |
  XC Correction:                     0.210     0.210   0.0% |
 Calculate atomic Hamiltonians:      0.139     0.139   0.0% |
 Communicate:                        0.000     0.000   0.0% |
 Initialize Hamiltonian:             0.000     0.000   0.0% |
 Poisson:                            0.000     0.000   0.0% |
 XC 3D grid:                         0.081     0.081   0.0% |
LCAO initialization:               118.628     0.872   0.0% |
 LCAO eigensolver:                  13.249     0.012   0.0% |
  Calculate projections:             0.374     0.374   0.0% |
  DenseAtomicCorrection:             0.566     0.566   0.0% |
  Distribute overlap matrix:         1.745     1.745   0.0% |
  Orbital Layouts:                   6.080     6.080   0.1% |
  Potential matrix:                  3.854     3.854   0.0% |
  Sum over cells:                    0.618     0.618   0.0% |
 LCAO to grid:                     102.902   102.902   1.2% |
 Set positions (LCAO WFS):           1.605     0.745   0.0% |
  Basic WFS set positions:           0.002     0.002   0.0% |
  Basis functions set positions:     0.000     0.000   0.0% |
  P tci:                             0.490     0.490   0.0% |
  ST tci:                            0.147     0.147   0.0% |
  mktci:                             0.221     0.221   0.0% |
PWDescriptor:                        0.045     0.045   0.0% |
SCF-cycle:                        8659.136   253.483   2.9% ||
 Davidson:                        8237.915  2032.163  23.1% |--------|
  Apply H:                          64.958    63.034   0.7% |
   HMM T:                            1.924     1.924   0.0% |
  Subspace diag:                   772.293     0.070   0.0% |
   calc_h_matrix:                  289.828   195.984   2.2% ||
    Apply H:                        93.844    91.870   1.0% |
     HMM T:                          1.974     1.974   0.0% |
   diagonalize:                    128.347   128.347   1.5% ||
   rotate_psi:                     354.047   354.047   4.0% |-|
  calc. matrices:                 1576.759  1438.879  16.3% |------|
   Apply H:                        137.880   133.794   1.5% ||
    HMM T:                           4.086     4.086   0.0% |
  diagonalize:                    3023.450  3023.450  34.4% |-------------|
  rotate_psi:                      768.293   768.293   8.7% |--|
 Density:                           88.574     0.002   0.0% |
  Atomic density matrices:           1.757     1.757   0.0% |
  Mix:                              33.397    33.397   0.4% |
  Multipole moments:                 0.034     0.034   0.0% |
  Pseudo density:                   53.384    53.380   0.6% |
   Symmetrize density:               0.004     0.004   0.0% |
 Hamiltonian:                       70.904     0.419   0.0% |
  Atomic:                           34.134    12.126   0.1% |
   XC Correction:                   22.008    22.008   0.3% |
  Calculate atomic Hamiltonians:    26.701    26.701   0.3% |
  Communicate:                       0.498     0.498   0.0% |
  Poisson:                           0.049     0.049   0.0% |
  XC 3D grid:                        9.103     9.103   0.1% |
 Orthonormalize:                     8.260     0.001   0.0% |
  calc_s_matrix:                     1.143     1.143   0.0% |
  inverse-cholesky:                  0.478     0.478   0.0% |
  projections:                       4.824     4.824   0.1% |
  rotate_psi_s:                      1.814     1.814   0.0% |
Set symmetry:                        0.001     0.001   0.0% |
Other:                               2.702     2.702   0.0% |
-----------------------------------------------------------
Total:                                      8801.482 100.0%

Date: Fri Apr 14 01:02:08 2023
