
  ___ ___ ___ _ _ _  
 |   |   |_  | | | | 
 | | | | | . | | | | 
 |__ |  _|___|_____|  22.8.0
 |___|_|             

User:   c.zeng@d0024
Date:   Wed Apr 19 02:25:35 2023
Arch:   x86_64
Pid:    131812
CWD:    /home/c.zeng/projects/hea-corrosion/hea-mlp/data-curation/surface-mcmc/dft-jobs/161
Python: 3.8.1
gpaw:   /home/c.zeng/usr/installs/gpaw/source/gpaw-22.8.0/gpaw
_gpaw:  /home/c.zeng/usr/installs/gpaw/source/gpaw-22.8.0/
        _gpaw.cpython-38-x86_64-linux-gnu.so
ase:    /home/c.zeng/.local/lib/python3.8/site-packages/ase-3.22.1-py3.8.egg/ase (version 3.22.1)
numpy:  /home/c.zeng/.local/lib/python3.8/site-packages/numpy (version 1.24.2)
scipy:  /home/c.zeng/.local/lib/python3.8/site-packages/scipy (version 1.10.1)
libxc:  4.2.3
units:  Angstrom and eV
cores: 30
OpenMP: False
OMP_NUM_THREADS: 1

Input parameters:
  convergence: {energy: 0.0001}
  kpts: [2 2 1]
  maxiter: 666
  mode: {ecut: 350.0,
         name: pw}
  occupations: {fixmagmom: False,
                name: fermi-dirac,
                width: 0.1}
  poissonsolver: {dipolelayer: xy}
  spinpol: True
  symmetry: {point_group: False}
  xc: PBE

System changes: positions, numbers, cell, pbc, initial_charges, initial_magmoms 

Initialize ...

species:
  Ni:
    name: Nickel
    id: 0d9f38a9d6e76a2886f07bb4381f212b
    Z: 28.0
    valence: 16
    core: 12
    charge: 0.0
    file: /home/c.zeng/usr/data/gpaw-setups-0.9.20000/Ni.PBE.gz
    compensation charges: {type: gauss,
                           rc: 0.36,
                           lmax: 2}
    cutoffs: {filter: 2.14,
              core: 1.98}
    valence states:
      #              energy  rcut
      - 4s(2.00)    -5.642   1.164
      - 3p(6.00)   -71.394   1.207
      - 4p(0.00)    -1.226   1.207
      - 3d(8.00)    -8.875   1.138
      -  s          21.570   1.164
      -  d          18.337   1.138
  
    # Using partial waves for Ni as LCAO basis

  Cr:
    name: Chromium
    id: 33f258bda2ca9f93018e70263a35547b
    Z: 24.0
    valence: 6
    core: 18
    charge: 0.0
    file: /home/c.zeng/usr/data/gpaw-setups-0.9.20000/Cr.PBE.gz
    compensation charges: {type: gauss,
                           rc: 0.35,
                           lmax: 2}
    cutoffs: {filter: 2.14,
              core: 3.04}
    valence states:
      #              energy  rcut
      - 4s(1.00)    -4.007   1.164
      - 4p(0.00)    -0.989   1.217
      - 3d(5.00)    -2.913   1.111
      -  s          23.205   1.164
      -  p          26.223   1.217
      -  d          24.299   1.111
  
    # Using partial waves for Cr as LCAO basis

  Fe:
    name: Iron
    id: 37abbd8d6c3c35915a9b583b742da910
    Z: 26.0
    valence: 8
    core: 18
    charge: 0.0
    file: /home/c.zeng/usr/data/gpaw-setups-0.9.20000/Fe.PBE.gz
    compensation charges: {type: gauss,
                           rc: 0.33,
                           lmax: 2}
    cutoffs: {filter: 2.06,
              core: 2.67}
    valence states:
      #              energy  rcut
      - 4s(2.00)    -5.291   1.164
      - 4p(0.00)    -1.326   1.058
      - 3d(6.00)    -7.505   1.058
      -  s          21.920   1.164
      -  p          25.885   1.058
      -  d          19.706   1.058
  
    # Using partial waves for Fe as LCAO basis

  Al:
    name: Aluminium
    id: 0292cae29f5d6237e50f6abdd43a7bdd
    Z: 13.0
    valence: 3
    core: 10
    charge: 0.0
    file: /home/c.zeng/usr/data/gpaw-setups-0.9.20000/Al.PBE.gz
    compensation charges: {type: gauss,
                           rc: 0.34,
                           lmax: 2}
    cutoffs: {filter: 1.91,
              core: 2.36}
    valence states:
      #              energy  rcut
      - 3s(2.00)    -7.753   1.085
      - 3p(1.00)    -2.712   1.085
      -  s          19.459   1.085
      -  p          24.499   1.085
      -  d           0.000   1.085
  
    # Using partial waves for Al as LCAO basis

  Co:
    name: Cobalt
    id: 339d20d5b0b93d2de9531a1bee871d91
    Z: 27.0
    valence: 9
    core: 18
    charge: 0.0
    file: /home/c.zeng/usr/data/gpaw-setups-0.9.20000/Co.PBE.gz
    compensation charges: {type: gauss,
                           rc: 0.32,
                           lmax: 2}
    cutoffs: {filter: 1.87,
              core: 2.55}
    valence states:
      #              energy  rcut
      - 4s(2.00)    -5.469   1.005
      - 4p(0.00)    -1.277   1.058
      - 3d(7.00)    -8.205   1.005
      -  s          21.742   1.005
      -  p          25.934   1.058
      -  d          19.007   1.005
  
    # Using partial waves for Co as LCAO basis

Reference energy: -3927717.499734  # eV

Spin-polarized calculation.
Magnetic moment: 149.100000

Convergence criteria:
 Maximum [total energy] change in last 3 cyles: 0.0001 eV / electron
 Maximum integral of absolute [dens]ity change: 0.0001 electrons / valence electron
 Maximum integral of absolute [eigenst]ate change: 4e-08 eV^2 / valence electron
 Maximum number of scf [iter]ations: 666
 (Square brackets indicate name in SCF output, whereas a 'c' in
 the SCF output indicates the quantity has converged.)

Symmetries present (total): 1

  ( 1  0  0)
  ( 0  1  0)
  ( 0  0  1)

4 k-points: 2 x 2 x 1 Monkhorst-Pack grid
2 k-points in the irreducible part of the Brillouin zone
       k-points in crystal coordinates                weights
   0:     0.25000000   -0.25000000    0.00000000          2/4
   1:     0.25000000    0.25000000    0.00000000          2/4

Wave functions: Plane wave expansion
  Cutoff energy: 350.000 eV
  Number of coefficients (min, max): 60143, 60161
  Pulay-stress correction: 0.000000 eV/Ang^3 (de/decut=0.000000)
  Using FFTW library
  ScaLapack parameters: grid=1x1, blocksize=None
  Wavefunction extrapolation:
    Improved wavefunction reuse through dual PAW basis 

Occupation numbers: Fermi-Dirac:
  width: 0.1000  # eV
 

Eigensolver
   Davidson(niter=2) 

Densities:
  Coarse grid: 56*56*128 grid
  Fine grid: 112*112*256 grid
  Total Charge: 0.000000 

Density mixing:
  Method: difference
  Backend: pulay
  Linear mixing parameter: 0.05
  old densities: 5
  Damping of long wavelength oscillations: 50 

Hamiltonian:
  XC and Coulomb potentials evaluated on a 112*112*256 grid
  Using the PBE Exchange-Correlation functional
  External potential:
    NoExternalPotential
 

XC parameters: PBE with 2 nearest neighbor stencil

Memory estimate:
  Process memory now: 377.76 MiB
  Calculator: 2209.57 MiB
    Density: 18.91 MiB
      Arrays: 7.39 MiB
      Localized functions: 8.57 MiB
      Mixer: 2.95 MiB
    Hamiltonian: 5.75 MiB
      Arrays: 5.49 MiB
      XC: 0.00 MiB
      Poisson: 0.00 MiB
      vbar: 0.26 MiB
    Wavefunctions: 2184.92 MiB
      Arrays psit_nG: 1382.48 MiB
      Eigensolver: 782.37 MiB
      Projections: 3.31 MiB
      Projectors: 1.16 MiB
      PW-descriptor: 15.59 MiB

Total number of cores used: 30
Parallelization over k-points: 2
Domain decomposition: 1 x 3 x 5

Number of atoms: 125
Number of atomic orbitals: 1116
Number of bands in calculation: 753
Number of valence electrons: 1098
Bands to converge: occupied

... initialized

Initializing position-dependent things.

Density initialized from atomic densities
Creating initial wave functions:
  753 bands from LCAO basis set

                                                               
                                                               
                                                               
                                                               
                          Ni          Ni     Ni    Co          
                            Fe    Co    Cr    Co    Ni         
                                                               
                       Al    CFe   FFe   CCr   FCr   Cr        
                   Fe   CFe    Al    Co    Ni    Cr            
        Ni                       Cr                            
               Ni   FAl  CFCr  CCo   NFe    Cr    Ni           
          Ni    Ni   FAl   NCo   CCr   NFe   Cr                
           Ni    Co    Fe Fe  FeCo  Co       Al   Fe           
                Al    Co    ACo   FAl   CNi   Co    Cr         
            Fe   AFe   ANi    Al    Co    Fe                   
        Fe    Co    Fe    Co Ni Co Cr    Ni    Ni    Co        
             Co    Al   CNi    Cr    Fe    Ni    Ni            
         Cr    Cr   CAl   AFe   CFe   Ni     Ni                
                Fe          Ni                                 
               Cr     Cr          Co    Co                     
           Cr    Cr    Fe    Al     Ni                         
                                                               
                                                               
                                                               
                                                               
                                                               

Positions:
   0 Ni    12.638410    1.500640   10.473714    ( 0.0000,  0.0000,  0.0000)
   1 Cr     2.522937    1.464200   10.500925    ( 0.0000,  0.0000,  0.0000)
   2 Cr     5.053910    1.499679   10.110352    ( 0.0000,  0.0000,  0.0000)
   3 Fe     7.557679    1.474012   10.651858    ( 0.0000,  0.0000,  2.0000)
   4 Al    10.063098    1.480808   10.510582    ( 0.0000,  0.0000,  0.0000)
   5 Co    13.876684    3.701125   10.575129    ( 0.0000,  0.0000,  2.1000)
   6 Cr     3.765065    3.676845   10.563946    ( 0.0000,  0.0000,  2.1000)
   7 Cr     6.296333    3.639618   10.618367    ( 0.0000,  0.0000,  1.5000)
   8 Ni     8.839996    3.605986   10.672787    ( 0.0000,  0.0000,  2.0000)
   9 Co    11.352953    3.684964   10.549299    ( 0.0000,  0.0000,  1.5000)
  10 Ni    15.161276    5.824565   10.498577    ( 0.0000,  0.0000,  1.5000)
  11 Co     5.025278    5.836147   10.574572    ( 0.0000,  0.0000,  1.5000)
  12 Al     7.581095    5.809082   10.450437    ( 0.0000,  0.0000,  0.0000)
  13 Cr    10.115365    5.826084   10.611674    ( 0.0000,  0.0000,  0.0000)
  14 Ni    12.590175    5.838835   10.516863    ( 0.0000,  0.0000,  0.0000)
  15 Ni    16.389239    7.986063   10.611380    ( 0.0000,  0.0000,  2.0000)
  16 Co     6.336726    8.007129   10.633278    ( 0.0000,  0.0000,  2.0000)
  17 Cr     8.860477    8.041112   10.593798    ( 0.0000,  0.0000,  2.0000)
  18 Cr    11.352548    8.028917   10.631722    ( 0.0000,  0.0000,  2.1000)
  19 Ni    13.851584    7.983364   10.505680    ( 0.0000,  0.0000,  2.0000)
  20 Co    17.745314   10.116747   10.074659    ( 0.0000,  0.0000,  0.0000)
  21 Ni     7.636083   10.176440   10.530337    ( 0.0000,  0.0000,  1.5000)
  22 Cr    10.089221   10.193890   10.552029    ( 0.0000,  0.0000,  2.1000)
  23 Ni    12.605039   10.182297   10.523703    ( 0.0000,  0.0000,  2.1000)
  24 Ni    15.064141   10.171206   10.358709    ( 0.0000,  0.0000,  0.0000)
  25 Fe     6.302566   10.804692   12.567941    ( 0.0000,  0.0000,  0.0000)
  26 Co     8.851494   10.898072   12.591335    ( 0.0000,  0.0000,  2.0000)
  27 Fe     5.076351    0.044825   12.536856    ( 0.0000,  0.0000,  0.0000)
  28 Al    13.909654   10.893450   12.608008    ( 0.0000,  0.0000,  1.5000)
  29 Fe    16.352727   10.867270   12.510966    ( 0.0000,  0.0000,  0.0000)
  30 Cr     1.347779    2.234477   12.606775    ( 0.0000,  0.0000,  0.0000)
  31 Cr     3.839937    2.209280   12.530604    ( 0.0000,  0.0000,  2.1000)
  32 Al     6.320342    2.230959   12.618927    ( 0.0000,  0.0000,  0.0000)
  33 Fe     8.782195    2.170075   12.671851    ( 0.0000,  0.0000,  0.0000)
  34 Fe    11.261675    2.259871   12.615258    ( 0.0000,  0.0000,  0.0000)
  35 Co     2.575110    4.392020   12.601990    ( 0.0000,  0.0000,  1.5000)
  36 Al     5.033696    4.384579   12.606305    ( 0.0000,  0.0000,  2.1000)
  37 Ni     7.564379    4.363294   12.629230    ( 0.0000,  0.0000,  2.0000)
  38 Cr    10.052143    4.418954   12.638359    ( 0.0000,  0.0000,  2.0000)
  39 Fe    12.588573    4.408563   12.597529    ( 0.0000,  0.0000,  2.0000)
  40 Al     3.825223    6.539248   12.601110    ( 0.0000,  0.0000,  0.0000)
  41 Al     6.285427    6.556719   12.584144    ( 0.0000,  0.0000,  0.0000)
  42 Cr     8.820218    6.557845   12.561307    ( 0.0000,  0.0000,  2.0000)
  43 Al    11.348710    6.570170   12.593977    ( 0.0000,  0.0000,  2.0000)
  44 Fe    13.909132    6.548655   12.525790    ( 0.0000,  0.0000,  0.0000)
  45 Cr    17.626555    8.699096   12.604162    ( 0.0000,  0.0000,  0.0000)
  46 Al     7.618200    8.725899   12.612235    ( 0.0000,  0.0000,  1.5000)
  47 Fe    10.087472    8.739109   12.626412    ( 0.0000,  0.0000,  1.5000)
  48 Cr    12.639844    8.757204   12.602842    ( 0.0000,  0.0000,  2.1000)
  49 Co    15.116728    8.758580   12.586668    ( 0.0000,  0.0000,  0.0000)
  50 Fe     1.234973    0.732950   14.688585    ( 0.0000,  0.0000,  2.1000)
  51 Co     3.756660    0.776875   14.661198    ( 0.0000,  0.0000,  2.0000)
  52 Fe     6.353364    0.739044   14.685297    ( 0.0000,  0.0000,  2.0000)
  53 Co     8.843197    0.707504   14.667421    ( 0.0000,  0.0000,  1.5000)
  54 Co    11.308149    0.724265   14.667803    ( 0.0000,  0.0000,  2.1000)
  55 Fe     2.562577    2.918904   14.681980    ( 0.0000,  0.0000,  0.0000)
  56 Fe     5.047514    2.876224   14.673262    ( 0.0000,  0.0000,  2.0000)
  57 Ni     7.587094    2.887588   14.717057    ( 0.0000,  0.0000,  2.1000)
  58 Al    10.059655    2.923122   14.721842    ( 0.0000,  0.0000,  2.1000)
  59 Co    12.581173    2.902022   14.699768    ( 0.0000,  0.0000,  2.0000)
  60 Al     3.748435    5.096399   14.714592    ( 0.0000,  0.0000,  2.0000)
  61 Co     6.262723    5.033089   14.723016    ( 0.0000,  0.0000,  0.0000)
  62 Co     8.857244    5.082347   14.703790    ( 0.0000,  0.0000,  1.5000)
  63 Al    11.325799    5.051271   14.695776    ( 0.0000,  0.0000,  0.0000)
  64 Ni    13.876183    5.054495   14.660318    ( 0.0000,  0.0000,  2.1000)
  65 Fe     5.052567    7.279870   14.704259    ( 0.0000,  0.0000,  2.0000)
  66 Ni     7.623886    7.324091   14.709690    ( 0.0000,  0.0000,  0.0000)
  67 Co    10.091768    7.250248   14.682744    ( 0.0000,  0.0000,  1.5000)
  68 Ni    12.609710    7.231017   14.738808    ( 0.0000,  0.0000,  0.0000)
  69 Cr    15.165859    7.289737   14.678898    ( 0.0000,  0.0000,  0.0000)
  70 Cr     6.290924    9.483294   14.711891    ( 0.0000,  0.0000,  0.0000)
  71 Cr     8.799610    9.526006   14.705668    ( 0.0000,  0.0000,  2.0000)
  72 Ni    11.328536    9.524116   14.771390    ( 0.0000,  0.0000,  0.0000)
  73 Ni    13.905777    9.475951   14.693692    ( 0.0000,  0.0000,  2.0000)
  74 Ni    16.402593    9.490986   14.643939    ( 0.0000,  0.0000,  1.5000)
  75 Co    12.559989    1.424700   16.738106    ( 0.0000,  0.0000,  0.0000)
  76 Ni     2.519368    1.415325   16.732030    ( 0.0000,  0.0000,  2.1000)
  77 Co     5.058418    1.426623   16.724633    ( 0.0000,  0.0000,  2.1000)
  78 Fe     7.588593    1.431310   16.719262    ( 0.0000,  0.0000,  1.5000)
  79 Fe    10.080282    1.446990   16.712775    ( 0.0000,  0.0000,  2.1000)
  80 Fe    13.906517    3.636537   16.770219    ( 0.0000,  0.0000,  0.0000)
  81 Ni     3.830827    3.632472   16.750288    ( 0.0000,  0.0000,  2.1000)
  82 Al     6.307138    3.580352   16.791881    ( 0.0000,  0.0000,  2.0000)
  83 Co     8.837036    3.649693   16.760356    ( 0.0000,  0.0000,  1.5000)
  84 Cr    11.316239    3.632713   16.757567    ( 0.0000,  0.0000,  0.0000)
  85 Cr    15.124416    5.819298   16.794875    ( 0.0000,  0.0000,  1.5000)
  86 Fe     5.069314    5.825133   16.817741    ( 0.0000,  0.0000,  2.0000)
  87 Fe     7.591000    5.828182   16.790531    ( 0.0000,  0.0000,  1.5000)
  88 Co    10.100423    5.832104   16.795022    ( 0.0000,  0.0000,  2.1000)
  89 Fe    12.591819    5.816097   16.796049    ( 0.0000,  0.0000,  1.5000)
  90 Cr    16.393148    8.022678   16.766491    ( 0.0000,  0.0000,  0.0000)
  91 Co     6.343718    8.036435   16.784337    ( 0.0000,  0.0000,  2.1000)
  92 Al     8.869407    8.031059   16.785541    ( 0.0000,  0.0000,  1.5000)
  93 Al    11.350811    8.006966   16.850353    ( 0.0000,  0.0000,  0.0000)
  94 Cr    13.848456    8.043231   16.790120    ( 0.0000,  0.0000,  1.5000)
  95 Cr    17.664975   10.214378   16.704673    ( 0.0000,  0.0000,  1.5000)
  96 Co     7.577805   10.200216   16.752871    ( 0.0000,  0.0000,  0.0000)
  97 Fe    10.073950   10.240525   16.814835    ( 0.0000,  0.0000,  0.0000)
  98 Co    12.634825   10.205702   16.792879    ( 0.0000,  0.0000,  2.1000)
  99 Fe    15.128204   10.222671   16.717207    ( 0.0000,  0.0000,  2.1000)
 100 Ni     6.295996   10.895646   18.725164    ( 0.0000,  0.0000,  2.1000)
 101 Ni     2.531103    0.010731   18.808028    ( 0.0000,  0.0000,  0.0000)
 102 Ni    11.354102   10.922176   18.789712    ( 0.0000,  0.0000,  2.0000)
 103 Ni    13.893055   10.918669   18.754371    ( 0.0000,  0.0000,  1.5000)
 104 Co    16.407321   10.902924   18.697866    ( 0.0000,  0.0000,  2.0000)
 105 Ni     1.242615    2.122916   18.813664    ( 0.0000,  0.0000,  0.0000)
 106 Ni     3.777583    2.163727   18.725751    ( 0.0000,  0.0000,  2.0000)
 107 Al     6.316494    2.112186   18.751024    ( 0.0000,  0.0000,  1.5000)
 108 Cr     8.821019    2.135678   18.724841    ( 0.0000,  0.0000,  1.5000)
 109 Cr    11.346910    2.127920   18.772482    ( 0.0000,  0.0000,  0.0000)
 110 Ni    15.041821    4.389824   19.217240    ( 0.0000,  0.0000,  0.0000)
 111 Fe     5.122707    4.340730   18.947661    ( 0.0000,  0.0000,  0.0000)
 112 Fe     7.593428    4.391189   18.757570    ( 0.0000,  0.0000,  0.0000)
 113 Al    10.074524    4.387147   18.958463    ( 0.0000,  0.0000,  0.0000)
 114 Co    12.568500    4.377597   18.792178    ( 0.0000,  0.0000,  2.1000)
 115 Cr    16.401190    6.592941   18.854788    ( 0.0000,  0.0000,  0.0000)
 116 Al     6.333626    6.597181   18.774830    ( 0.0000,  0.0000,  2.1000)
 117 Fe     8.832315    6.612293   18.776708    ( 0.0000,  0.0000,  2.0000)
 118 Fe    11.357713    6.592056   18.807559    ( 0.0000,  0.0000,  1.5000)
 119 Cr    13.843649    6.600634   18.766083    ( 0.0000,  0.0000,  2.1000)
 120 Ni    17.672908    8.762055   18.787393    ( 0.0000,  0.0000,  1.5000)
 121 Fe     7.589466    8.752057   18.793733    ( 0.0000,  0.0000,  0.0000)
 122 Co    10.105305    8.758351   18.804653    ( 0.0000,  0.0000,  2.1000)
 123 Cr    12.605169    8.778467   18.827842    ( 0.0000,  0.0000,  2.0000)
 124 Co    15.105383    8.773889   18.800925    ( 0.0000,  0.0000,  1.5000)

Unit cell:
           periodic     x           y           z      points  spacing
  1. axis:    yes   12.614700    0.000000    0.000000    56     0.1951
  2. axis:    yes    6.308550   10.926700    0.000000    56     0.1951
  3. axis:    no     0.000000    0.000000   29.353100   128     0.2293

  Lengths:  12.614700  12.617075  29.353100
  Angles:   90.000000  90.000000  59.999934

Effective grid spacing dv^(1/3) = 0.2160

     iter     time        total  log10-change:  magmom
                         energy  eigst   dens
iter:   1 02:32:18 -1067.409615                  +148.4716
iter:   2 02:34:29 -1715.885379  +0.30  -1.14    +106.6947
iter:   3 02:36:42 -1849.278149  +0.86  -0.83    +76.5699
iter:   4 02:38:54 -1111.794053  -0.22  -0.80    +50.3455
iter:   5 02:41:06  -988.859774  -1.20  -1.16    +37.2985
iter:   6 02:43:18  -971.041294  -1.67  -1.29    +29.7690
iter:   7 02:45:30  -956.276825  -1.85  -1.31    +27.9780
iter:   8 02:47:42 -1121.508682  -0.62  -1.34    +29.3981
iter:   9 02:49:54 -1119.520692  -0.83  -1.05    +27.8880
iter:  10 02:52:06  -938.605442  -1.34  -1.04    +24.4869
iter:  11 02:54:18  -920.993289  -1.78  -1.40    +26.4275
iter:  12 02:56:30  -934.533144  -1.51  -1.48    +27.2814
iter:  13 02:58:42  -931.653449  -1.64  -1.44    +27.5445
iter:  14 03:00:54  -959.538481  -1.52  -1.45    +28.5448
iter:  15 03:03:06  -925.095222  -1.90  -1.35    +29.9299
iter:  16 03:05:18  -926.761841  -1.62  -1.55    +31.6554
iter:  17 03:07:30  -931.189779  -1.67  -1.57    +32.3995
iter:  18 03:09:42  -919.680028  -2.10  -1.54    +32.8572
iter:  19 03:11:54  -918.826218  -1.95  -1.69    +34.8930
iter:  20 03:14:06  -917.108890  -2.23  -1.71    +36.5344
iter:  21 03:16:17  -915.426735  -2.35  -1.74    +39.0918
iter:  22 03:18:30  -917.408121  -2.52  -1.80    +41.2209
iter:  23 03:20:42  -917.911431  -2.51  -1.77    +43.7140
iter:  24 03:22:53  -920.132230  -2.25  -1.77    +45.4372
iter:  25 03:25:06  -917.738042  -2.43  -1.78    +47.3078
iter:  26 03:27:18  -915.874331  -2.70  -1.82    +49.3329
iter:  27 03:29:30  -916.113970  -2.91  -1.91    +52.4836
iter:  28 03:31:42  -916.312084  -3.39  -1.92    +53.2353
iter:  29 03:33:53  -916.320499  -3.15  -1.92    +56.6395
iter:  30 03:36:05  -919.617478  -2.40  -1.97    +62.2411
iter:  31 03:38:17  -919.089447  -2.43  -1.92    +61.6353
iter:  32 03:40:29  -919.349070  -2.71  -1.92    +63.7973
iter:  33 03:42:41  -920.046940  -2.45  -1.99    +65.1650
iter:  34 03:44:53  -931.052324  -2.22  -2.01    +66.3095
iter:  35 03:47:05  -918.920442  -2.42  -1.65    +65.6987
iter:  36 03:49:17  -918.460493  -3.11  -2.07    +66.9486
iter:  37 03:51:28  -923.722507  -2.57  -2.26    +69.0039
iter:  38 03:53:40  -918.840863  -2.81  -1.83    +69.2832
iter:  39 03:55:52  -918.669177  -3.28  -2.23    +70.5451
iter:  40 03:58:05  -919.018114  -3.26  -2.40    +72.4902
iter:  41 04:00:17  -920.245529  -3.04  -2.39    +73.0632
iter:  42 04:02:29  -919.128599  -3.39  -2.16    +74.1077
iter:  43 04:04:41  -920.378737  -3.16  -2.52    +76.0346
iter:  44 04:06:53  -919.757705  -3.24  -2.18    +75.1266
iter:  45 04:09:05  -919.655050  -3.46  -2.34    +76.6471
iter:  46 04:11:17  -919.670851c -4.13  -2.51    +76.8267
iter:  47 04:13:29  -920.085313  -3.57  -2.50    +77.9478
iter:  48 04:15:41  -919.934450  -3.37  -2.47    +76.6579
iter:  49 04:17:53  -919.836754  -3.62  -2.39    +77.8885
iter:  50 04:20:04  -920.011288  -3.81  -2.54    +78.0152
iter:  51 04:22:16  -920.674133  -3.38  -2.46    +78.9817
iter:  52 04:24:28  -920.228498  -3.76  -2.35    +78.9708
iter:  53 04:26:40  -920.876331  -3.14  -2.56    +79.3173
iter:  54 04:28:52  -920.415561  -2.96  -2.27    +79.1694
iter:  55 04:31:04  -920.503717  -3.09  -2.38    +79.3863
iter:  56 04:33:16  -920.051381  -3.57  -2.35    +79.4722
iter:  57 04:35:28  -920.092972  -3.84  -2.66    +79.4571
iter:  58 04:37:40  -920.179067  -3.78  -2.83    +79.2391
iter:  59 04:39:51  -920.371180  -3.78  -2.85    +79.2658
iter:  60 04:42:03  -920.144162  -3.82  -2.73    +79.4446
iter:  61 04:44:15  -920.130993  -4.40  -2.81    +79.6365
iter:  62 04:46:27  -920.214097c -4.39  -2.91    +79.7618
iter:  63 04:48:38  -920.222973c -5.01  -2.84    +79.7368
iter:  64 04:50:49  -920.356242  -3.93  -2.75    +79.8850
iter:  65 04:53:01  -920.320774  -4.50  -2.70    +79.8156
iter:  66 04:55:12  -920.374892c -4.39  -2.81    +79.8017
iter:  67 04:57:24  -920.769669  -3.55  -2.79    +79.7344
iter:  68 04:59:36  -920.548917  -4.48  -2.47    +79.7255
iter:  69 05:01:48  -920.821645  -3.53  -2.63    +79.4975
iter:  70 05:04:00  -920.604944  -3.82  -2.43    +79.4493
iter:  71 05:06:12  -920.511629  -4.21  -2.58    +79.1706
iter:  72 05:08:24  -920.610300c -3.79  -2.77    +78.9748
iter:  73 05:10:36  -920.534692c -4.40  -2.65    +79.0204
iter:  74 05:12:49  -920.569494c -4.42  -2.84    +78.8192
iter:  75 05:15:01  -920.594849c -4.43  -2.83    +78.8317
iter:  76 05:17:13  -920.704714  -3.92  -2.87    +78.7558
iter:  77 05:19:26  -920.736210  -3.87  -2.70    +78.7488
iter:  78 05:21:38  -920.660056c -4.16  -2.65    +78.5175
iter:  79 05:23:50  -920.663620c -4.38  -3.00    +78.3719
iter:  80 05:26:02  -920.692247c -4.12  -2.96    +78.3972
iter:  81 05:28:14  -920.706394c -4.51  -2.98    +78.3683
iter:  82 05:30:26  -920.705190c -4.47  -2.97    +78.2549
iter:  83 05:32:37  -920.794443c -4.26  -3.06    +78.1910
iter:  84 05:34:49  -920.743491c -4.54  -2.79    +78.2135
iter:  85 05:37:02  -920.760367c -4.66  -2.97    +78.0605
iter:  86 05:39:14  -920.780687c -4.64  -2.97    +77.8609
iter:  87 05:41:27  -920.803692c -4.68  -2.98    +77.7430
iter:  88 05:43:39  -920.806270c -5.21  -2.91    +77.7049
iter:  89 05:45:50  -921.307864  -3.68  -2.91    +77.6036
iter:  90 05:48:03  -920.846796  -3.95  -2.39    +77.6639
iter:  91 05:50:15  -920.876878  -4.52  -2.84    +77.6219
iter:  92 05:52:27  -920.902594c -4.33  -2.77    +77.4480
iter:  93 05:54:38  -920.929397c -4.52  -2.78    +77.2012
iter:  94 05:56:50  -920.960927c -4.61  -2.75    +77.1374
iter:  95 05:59:02  -921.142602  -3.82  -2.76    +77.0736
iter:  96 06:01:14  -921.069988  -3.91  -2.52    +77.1097
iter:  97 06:03:25  -921.035108c -4.09  -2.70    +77.2002
iter:  98 06:05:38  -920.980080c -3.93  -2.73    +77.3468
iter:  99 06:07:50  -921.338866  -3.66  -2.69    +77.1584
iter: 100 06:10:03  -921.485830  -3.55  -2.36    +77.0462
iter: 101 06:12:15  -926.355228  -2.61  -2.32    +76.7744
iter: 102 06:14:18  -921.151383  -2.95  -1.88    +76.3440
iter: 103 06:16:21  -921.050844  -3.85  -2.50    +75.8649
iter: 104 06:18:24  -921.074574c -3.80  -2.58    +75.6794
iter: 105 06:20:30  -920.944979  -4.06  -2.69    +75.8326
iter: 106 06:22:35  -921.007629  -3.80  -2.73    +76.0323
iter: 107 06:24:41  -921.322841  -3.55  -2.71    +75.8431
iter: 108 06:26:47  -921.038276  -3.82  -2.48    +75.7746
iter: 109 06:28:53  -920.928612  -4.56  -2.63    +75.6004
iter: 110 06:30:59  -920.988515c -3.78  -2.90    +75.5935
iter: 111 06:33:05  -920.923587c -4.35  -2.75    +75.6464
iter: 112 06:35:11  -920.942104c -4.41  -2.97    +75.5812
iter: 113 06:37:18  -920.950345c -4.35  -2.95    +75.7715
iter: 114 06:39:24  -921.087238  -4.12  -3.02    +75.7926
iter: 115 06:41:30  -920.977074  -4.26  -2.63    +75.8173
iter: 116 06:43:36  -920.964857  -4.80  -2.90    +75.8497
iter: 117 06:45:43  -920.965501c -5.01  -3.03    +75.7928
iter: 118 06:47:49  -920.964921c -5.19  -3.03    +75.8016
iter: 119 06:49:56  -920.960337c -5.19  -3.08    +75.7706
iter: 120 06:52:03  -920.980481c -4.83  -3.22    +75.7584
iter: 121 06:54:09  -920.989988c -4.62  -3.08    +75.7504
iter: 122 06:56:16  -921.008214c -4.39  -3.02    +75.7282
iter: 123 06:58:22  -920.977524c -4.59  -2.88    +75.7707
iter: 124 07:00:29  -920.972168c -4.90  -3.28    +75.6842
iter: 125 07:02:35  -920.974587c -5.02  -3.43    +75.7175
iter: 126 07:04:41  -920.978353c -5.33  -3.47    +75.6865
iter: 127 07:06:48  -920.982994c -4.92  -3.41    +75.6281
iter: 128 07:08:55  -920.997465c -5.11  -3.30    +75.6516
iter: 129 07:11:01  -920.987588c -5.47  -3.08    +75.6513
iter: 130 07:13:08  -920.993277c -5.16  -3.32    +75.6191
iter: 131 07:15:15  -920.997398c -4.95  -3.18    +75.6312
iter: 132 07:17:21  -920.986909c -5.08  -3.11    +75.6880
iter: 133 07:19:28  -920.984805c -5.14  -3.33    +75.7050
iter: 134 07:21:34  -920.991141c -5.49  -3.49    +75.7068
iter: 135 07:23:41  -920.985078c -5.53  -3.27    +75.7127
iter: 136 07:25:48  -920.986810c -5.59  -3.61    +75.7122
iter: 137 07:27:54  -920.985990c -5.99  -3.46    +75.7149
iter: 138 07:30:01  -920.986191c -6.37  -3.67    +75.7142
iter: 139 07:32:08  -920.985628c -5.90  -3.58    +75.7160
iter: 140 07:34:14  -920.987042c -6.17  -3.75    +75.7148
iter: 141 07:36:21  -920.985895c -6.23  -3.60    +75.7108
iter: 142 07:38:28  -920.986337c -6.24  -3.92    +75.7104
iter: 143 07:40:34  -920.986361c -6.39  -3.89    +75.6990
iter: 144 07:42:41  -920.987486c -5.92  -4.04c   +75.6936
iter: 145 07:44:48  -920.986341c -5.98  -3.96    +75.7020
iter: 146 07:46:54  -920.986489c -6.43  -4.09c   +75.6929
iter: 147 07:49:01  -920.986601c -6.48  -3.85    +75.6976
iter: 148 07:51:07  -920.986993c -6.06  -4.03c   +75.7103
iter: 149 07:53:14  -920.987391c -6.13  -3.99    +75.6970
iter: 150 07:55:21  -920.987453c -6.16  -4.08c   +75.6949
iter: 151 07:57:27  -920.988591c -5.89  -4.07c   +75.6813
iter: 152 07:59:34  -920.992741c -5.42  -3.99    +75.6635
iter: 153 08:01:40  -920.988053c -5.59  -3.45    +75.6964
iter: 154 08:03:47  -920.985852c -5.46  -3.98    +75.7014
iter: 155 08:05:53  -920.987843c -5.82  -4.03c   +75.6768
iter: 156 08:08:00  -920.989016c -5.95  -4.06c   +75.6848
iter: 157 08:10:06  -920.988322c -6.53  -3.95    +75.6793
iter: 158 08:12:13  -920.994436c -5.05  -4.05c   +75.7215
iter: 159 08:14:19  -920.986598c -4.84  -3.62    +75.6486
iter: 160 08:16:26  -920.986784c -6.20  -3.94    +75.6376
iter: 161 08:18:32  -920.987644c -6.54  -4.18c   +75.6516
iter: 162 08:20:39  -920.987480c -7.19  -4.03c   +75.6471
iter: 163 08:22:46  -920.988589c -6.39  -4.11c   +75.6732
iter: 164 08:24:53  -920.986400c -5.68  -4.03c   +75.5913
iter: 165 08:26:59  -920.986584c -6.46  -4.03c   +75.5961
iter: 166 08:29:06  -920.986684c -7.00  -3.99    +75.6047
iter: 167 08:31:12  -920.986905c -6.63  -4.12c   +75.6188
iter: 168 08:33:19  -920.986737c -7.07  -4.17c   +75.6082
iter: 169 08:35:25  -920.987409c -6.58  -4.21c   +75.6230
iter: 170 08:37:32  -920.986794c -6.97  -4.11c   +75.6106
iter: 171 08:39:39  -920.987675c -6.57  -4.38c   +75.6333
iter: 172 08:41:46  -920.986644c -6.31  -4.51c   +75.5976
iter: 173 08:43:53  -920.986437c -6.46  -4.41c   +75.5867
iter: 174 08:45:59  -920.986661c -6.79  -4.17c   +75.5890
iter: 175 08:48:05  -920.986896c -6.84  -4.24c   +75.6005
iter: 176 08:50:12  -920.987149c -6.95  -4.25c   +75.6072
iter: 177 08:52:19  -920.986743c -6.69  -4.16c   +75.5988
iter: 178 08:54:25  -920.997822c -5.42  -3.98    +75.6154
iter: 179 08:56:33  -920.987937c -5.42  -3.22    +75.6141
iter: 180 08:58:39  -920.987776c -5.92  -3.66    +75.6456
iter: 181 09:00:46  -920.989892c -5.87  -4.31c   +75.6787
iter: 182 09:02:52  -920.987370c -5.40  -4.15c   +75.6002
iter: 183 09:04:59  -920.986610c -6.45  -3.99    +75.5883
iter: 184 09:07:06  -920.987046c -7.17  -4.16c   +75.5942
iter: 185 09:09:13  -920.987102c -7.11  -4.13c   +75.6040
iter: 186 09:11:20  -920.987107c -7.76c -4.20c   +75.6018

Converged after 186 iterations.

Dipole moment: (54.774191, 43.737686, -0.021469) |e|*Ang

Total magnetic moment: (0.000000, 0.000000, 75.601798)
Local magnetic moments:
   0 Ni ( 0.000000,  0.000000,  0.388276)
   1 Cr ( 0.000000,  0.000000,  2.145773)
   2 Cr ( 0.000000,  0.000000, -2.719310)
   3 Fe ( 0.000000,  0.000000,  2.271505)
   4 Al ( 0.000000,  0.000000, -0.052593)
   5 Co ( 0.000000,  0.000000,  1.347872)
   6 Cr ( 0.000000,  0.000000, -1.835545)
   7 Cr ( 0.000000,  0.000000,  2.346412)
   8 Ni ( 0.000000,  0.000000,  0.216715)
   9 Co ( 0.000000,  0.000000,  1.415806)
  10 Ni ( 0.000000,  0.000000,  0.363847)
  11 Co ( 0.000000,  0.000000,  0.586005)
  12 Al ( 0.000000,  0.000000, -0.012214)
  13 Cr ( 0.000000,  0.000000, -1.943373)
  14 Ni ( 0.000000,  0.000000,  0.338166)
  15 Ni ( 0.000000,  0.000000,  0.195150)
  16 Co ( 0.000000,  0.000000,  0.652809)
  17 Cr ( 0.000000,  0.000000,  1.397982)
  18 Cr ( 0.000000,  0.000000,  1.918318)
  19 Ni ( 0.000000,  0.000000,  0.296801)
  20 Co ( 0.000000,  0.000000,  1.739619)
  21 Ni ( 0.000000,  0.000000,  0.252724)
  22 Cr ( 0.000000,  0.000000, -2.091934)
  23 Ni ( 0.000000,  0.000000,  0.040089)
  24 Ni ( 0.000000,  0.000000,  0.479633)
  25 Fe ( 0.000000,  0.000000,  2.425266)
  26 Co ( 0.000000,  0.000000,  0.925859)
  27 Fe ( 0.000000,  0.000000,  2.054730)
  28 Al ( 0.000000,  0.000000, -0.053913)
  29 Fe ( 0.000000,  0.000000,  2.377954)
  30 Cr ( 0.000000,  0.000000, -2.099652)
  31 Cr ( 0.000000,  0.000000,  0.617517)
  32 Al ( 0.000000,  0.000000, -0.042525)
  33 Fe ( 0.000000,  0.000000,  2.193802)
  34 Fe ( 0.000000,  0.000000,  2.356216)
  35 Co ( 0.000000,  0.000000,  0.582949)
  36 Al ( 0.000000,  0.000000, -0.017758)
  37 Ni ( 0.000000,  0.000000,  0.224685)
  38 Cr ( 0.000000,  0.000000,  0.175370)
  39 Fe ( 0.000000,  0.000000,  2.085322)
  40 Al ( 0.000000,  0.000000, -0.017248)
  41 Al ( 0.000000,  0.000000, -0.013580)
  42 Cr ( 0.000000,  0.000000,  0.742422)
  43 Al ( 0.000000,  0.000000, -0.013482)
  44 Fe ( 0.000000,  0.000000,  2.413566)
  45 Cr ( 0.000000,  0.000000, -1.605779)
  46 Al ( 0.000000,  0.000000, -0.019309)
  47 Fe ( 0.000000,  0.000000,  1.597648)
  48 Cr ( 0.000000,  0.000000, -1.974341)
  49 Co ( 0.000000,  0.000000,  0.958689)
  50 Fe ( 0.000000,  0.000000,  2.249805)
  51 Co ( 0.000000,  0.000000,  1.170406)
  52 Fe ( 0.000000,  0.000000,  2.412307)
  53 Co ( 0.000000,  0.000000,  1.314909)
  54 Co ( 0.000000,  0.000000,  1.139706)
  55 Fe ( 0.000000,  0.000000,  2.105569)
  56 Fe ( 0.000000,  0.000000,  2.117154)
  57 Ni ( 0.000000,  0.000000,  0.398936)
  58 Al ( 0.000000,  0.000000, -0.035996)
  59 Co ( 0.000000,  0.000000,  0.810651)
  60 Al ( 0.000000,  0.000000, -0.026764)
  61 Co ( 0.000000,  0.000000,  1.160064)
  62 Co ( 0.000000,  0.000000,  1.084007)
  63 Al ( 0.000000,  0.000000, -0.024034)
  64 Ni ( 0.000000,  0.000000,  0.239131)
  65 Fe ( 0.000000,  0.000000,  1.305444)
  66 Ni ( 0.000000,  0.000000,  0.064424)
  67 Co ( 0.000000,  0.000000,  0.867408)
  68 Ni ( 0.000000,  0.000000,  0.162703)
  69 Cr ( 0.000000,  0.000000, -1.643608)
  70 Cr ( 0.000000,  0.000000,  0.323975)
  71 Cr ( 0.000000,  0.000000, -1.475392)
  72 Ni ( 0.000000,  0.000000,  0.298516)
  73 Ni ( 0.000000,  0.000000,  0.263046)
  74 Ni ( 0.000000,  0.000000,  0.179416)
  75 Co ( 0.000000,  0.000000,  1.232691)
  76 Ni ( 0.000000,  0.000000,  0.522407)
  77 Co ( 0.000000,  0.000000,  1.288764)
  78 Fe ( 0.000000,  0.000000,  1.970774)
  79 Fe ( 0.000000,  0.000000,  1.954403)
  80 Fe ( 0.000000,  0.000000,  2.522300)
  81 Ni ( 0.000000,  0.000000,  0.446639)
  82 Al ( 0.000000,  0.000000, -0.061025)
  83 Co ( 0.000000,  0.000000,  0.937307)
  84 Cr ( 0.000000,  0.000000, -1.835942)
  85 Cr ( 0.000000,  0.000000,  0.831275)
  86 Fe ( 0.000000,  0.000000,  2.024521)
  87 Fe ( 0.000000,  0.000000,  2.282250)
  88 Co ( 0.000000,  0.000000,  1.009095)
  89 Fe ( 0.000000,  0.000000,  2.032194)
  90 Cr ( 0.000000,  0.000000,  0.021240)
  91 Co ( 0.000000,  0.000000,  0.807954)
  92 Al ( 0.000000,  0.000000, -0.052472)
  93 Al ( 0.000000,  0.000000, -0.035679)
  94 Cr ( 0.000000,  0.000000,  0.974477)
  95 Cr ( 0.000000,  0.000000, -1.010281)
  96 Co ( 0.000000,  0.000000,  1.083573)
  97 Fe ( 0.000000,  0.000000,  2.428120)
  98 Co ( 0.000000,  0.000000,  1.032819)
  99 Fe ( 0.000000,  0.000000,  2.195190)
 100 Ni ( 0.000000,  0.000000,  0.334692)
 101 Ni ( 0.000000,  0.000000,  0.551290)
 102 Ni ( 0.000000,  0.000000,  0.403186)
 103 Ni ( 0.000000,  0.000000,  0.298148)
 104 Co ( 0.000000,  0.000000,  1.315390)
 105 Ni ( 0.000000,  0.000000,  0.500675)
 106 Ni ( 0.000000,  0.000000,  0.549810)
 107 Al ( 0.000000,  0.000000, -0.037922)
 108 Cr ( 0.000000,  0.000000, -2.390323)
 109 Cr ( 0.000000,  0.000000,  2.104927)
 110 Ni ( 0.000000,  0.000000,  0.332308)
 111 Fe ( 0.000000,  0.000000,  2.558622)
 112 Fe ( 0.000000,  0.000000,  2.074598)
 113 Al ( 0.000000,  0.000000, -0.041166)
 114 Co ( 0.000000,  0.000000,  1.291509)
 115 Cr ( 0.000000,  0.000000, -2.363267)
 116 Al ( 0.000000,  0.000000, -0.066181)
 117 Fe ( 0.000000,  0.000000,  2.301010)
 118 Fe ( 0.000000,  0.000000,  2.210324)
 119 Cr ( 0.000000,  0.000000, -1.865225)
 120 Ni ( 0.000000,  0.000000,  0.257890)
 121 Fe ( 0.000000,  0.000000,  2.652107)
 122 Co ( 0.000000,  0.000000,  1.174690)
 123 Cr ( 0.000000,  0.000000, -2.368062)
 124 Co ( 0.000000,  0.000000,  1.003049)

Energy contributions relative to reference atoms: (reference = -3927717.499734)

Kinetic:       +385.082876
Potential:     -370.678696
External:        +0.000000
XC:            -971.141108
Entropy (-ST):   -5.134356
Local:          +38.316999
--------------------------
Free energy:   -923.554285
Extrapolated:  -920.987107

Dipole-layer corrected work functions: 4.831958, 4.860143 eV

Spin contamination: 36.597521 electrons
Showing all kpts
                      Up                     Down
 Kpt  Band  Eigenvalues  Occupancy  Eigenvalues  Occupancy
  0   547     -0.10473    0.99690      0.84910    0.02263
  0   548     -0.09144    0.99646      0.85975    0.02039
  0   549     -0.07973    0.99602      0.86680    0.01903
  0   550     -0.07074    0.99565      0.87250    0.01800

  1   547     -0.09650    0.99663      0.85524    0.02131
  1   548     -0.08185    0.99610      0.86992    0.01846
  1   549     -0.07344    0.99576      0.87508    0.01755
  1   550     -0.06539    0.99541      0.88642    0.01569


Fermi level: 0.47255

No gap

Forces in eV/Ang:
  0 Ni   -0.27885   -0.33473    0.53926
  1 Cr   -0.18621    0.04864   -0.15946
  2 Cr    0.58237   -0.42768    0.71939
  3 Fe    0.02346   -0.63659   -0.77229
  4 Al    0.49823   -0.31206   -0.84140
  5 Co   -0.15451   -0.06552    0.43124
  6 Cr   -0.69244    0.30448   -0.20859
  7 Cr   -0.44544   -0.09001   -1.47235
  8 Ni   -0.13331    0.22622   -0.35283
  9 Co    0.46169   -0.03475    0.59786
 10 Ni   -0.20603    0.08947    0.34902
 11 Co    0.18654    0.00181    0.22243
 12 Al   -0.44944   -0.16626   -1.12059
 13 Cr   -0.01436   -0.37015   -0.94737
 14 Ni    0.22367   -0.14482    0.17648
 15 Ni    0.21264    0.43865   -0.29638
 16 Co   -0.34378    0.30132   -0.02009
 17 Cr   -0.03734   -0.20734   -0.59737
 18 Cr    0.84826    0.47900   -1.04202
 19 Ni    0.09990    0.28398    0.32262
 20 Co   -0.06972    0.03565    1.79072
 21 Ni   -0.90928    0.15276    0.00216
 22 Cr    0.28255   -0.14927    0.37485
 23 Ni    0.26244    0.04386   -0.07206
 24 Ni    0.55727    0.06325    0.74676
 25 Fe   -0.47265    1.12951   -0.71607
 26 Co    0.25039    0.37062    0.30292
 27 Fe   -0.74140   -0.46604    0.09596
 28 Al    0.27749   -0.27595   -0.18783
 29 Fe    0.97767   -0.17985    0.06848
 30 Cr   -0.33538   -0.03182   -0.30850
 31 Cr   -1.08769   -0.79119   -0.05363
 32 Al    0.24178   -0.67491    0.59321
 33 Fe    0.41069   -0.04336   -0.21970
 34 Fe    1.16713   -0.43085   -0.33613
 35 Co   -0.42339   -0.04272   -0.32286
 36 Al    0.29964   -0.35728    0.36998
 37 Ni   -0.09245    0.49765    0.47368
 38 Cr   -0.47367   -0.25307   -1.13205
 39 Fe    0.57399   -0.64743   -0.46147
 40 Al   -1.89753    0.70102   -1.05731
 41 Al    1.15337   -0.55630    0.84431
 42 Cr    1.02177   -0.23439    1.01739
 43 Al    0.72258    0.27177    1.05253
 44 Fe   -0.20136   -0.07648    0.32611
 45 Cr   -0.23139    1.83590   -0.55905
 46 Al   -0.18611    0.85792    0.16583
 47 Fe    0.30464    0.52178    0.77754
 48 Cr   -0.80567   -0.51165    0.13635
 49 Co    0.16508   -0.29120   -0.37698
 50 Fe   -0.14508    0.33764    0.02624
 51 Co    0.11554   -0.35960   -0.17718
 52 Fe   -0.58901   -0.34989    0.24315
 53 Co    0.10727   -0.14889    0.02996
 54 Co    0.49504   -0.14652   -0.39398
 55 Fe   -0.70897   -0.49477   -0.09530
 56 Fe   -0.13194   -0.03240    0.31262
 57 Ni   -0.18747    0.38991   -0.08438
 58 Al   -0.75276   -1.14632   -0.34146
 59 Co    0.22607   -0.29340    0.09292
 60 Al    0.21247   -0.68001    0.78947
 61 Co    0.55168    0.49579   -0.17195
 62 Co   -0.61841    0.61071   -0.19277
 63 Al    1.03551    1.22610    0.42862
 64 Ni   -0.12698    0.40246    0.09824
 65 Fe    0.14921    0.31679    0.32386
 66 Ni   -0.48359   -0.47298   -0.07540
 67 Co   -0.39056    0.21708    0.00650
 68 Ni    0.10536    0.44792   -0.44879
 69 Cr   -0.92612    0.86754    0.31547
 70 Cr   -0.35877   -0.19690    0.44911
 71 Cr    1.06657    0.38894   -0.20093
 72 Ni    0.19983   -0.42670   -0.61676
 73 Ni   -0.25676   -0.32105    0.08972
 74 Ni   -0.06018   -0.34660   -0.06546
 75 Co    0.34793    0.03570   -0.31526
 76 Ni   -0.10145    0.40997   -0.08110
 77 Co   -0.36571   -0.14679   -0.43302
 78 Fe    0.26495   -0.25825   -0.19785
 79 Fe    0.02000   -0.21884    0.08961
 80 Fe   -0.18764   -0.34060    0.51712
 81 Ni   -0.35209    0.00870    0.54714
 82 Al   -0.01537    0.84514   -1.28609
 83 Co    0.21333    0.23611    0.24533
 84 Cr    0.49555   -0.45322    1.37241
 85 Cr   -0.28485    0.13026    1.23182
 86 Fe   -0.05707   -0.00321   -0.27061
 87 Fe    0.13301   -0.17693   -0.94133
 88 Co   -0.37145   -0.48753   -0.16066
 89 Fe    0.41226   -0.38138    0.00572
 90 Cr    0.26776   -0.11779    0.21489
 91 Co   -0.52924    0.00582   -0.69662
 92 Al   -1.01918   -0.14036   -0.64514
 93 Al    0.20393    0.14063   -1.75872
 94 Cr    0.89761    0.46131   -0.29093
 95 Cr    0.26970   -0.04334    0.24294
 96 Co   -0.10163    0.25219    0.19038
 97 Fe    0.11304    0.43452   -0.36393
 98 Co   -0.10806    0.08652    0.01242
 99 Fe    0.01940   -0.15763    0.28793
100 Ni   -0.03209    0.04819    0.16482
101 Ni   -0.05637   -0.24877   -0.14912
102 Ni   -0.18216   -0.11298   -0.01136
103 Ni    0.15700   -0.13131    0.04340
104 Co   -0.09818   -0.40380   -0.05437
105 Ni    0.14294    0.52830   -0.35834
106 Ni   -0.00926    0.35685    0.21649
107 Al   -0.88085   -0.69715    1.97770
108 Cr    0.75251   -0.02112    0.14170
109 Cr    0.25558    0.18748    0.05666
110 Ni    0.11360   -0.07564   -1.54645
111 Fe   -0.85288    0.29748   -0.46200
112 Fe   -0.31043   -0.32863    0.12020
113 Al    0.17660    0.41805    0.59093
114 Co    0.51303   -0.06516   -0.15855
115 Cr   -0.53756   -0.34669    0.05615
116 Al    0.14265    0.03858    1.32620
117 Fe    0.47756   -0.33047    0.42197
118 Fe   -0.04882   -0.25542    0.54939
119 Cr    0.32352   -0.98606   -0.16437
120 Ni   -0.14549    0.14204   -0.02547
121 Fe    0.01267    0.81839    0.26733
122 Co   -0.10700    0.25065    0.03897
123 Cr    0.18106    0.80068    0.75047
124 Co    0.38212   -0.13692   -0.55610

Timing:                              incl.     excl.
-----------------------------------------------------------
Forces:                             35.002    35.002   0.1% |
Hamiltonian:                         1.374     0.010   0.0% |
 Atomic:                             0.377     0.001   0.0% |
  XC Correction:                     0.376     0.376   0.0% |
 Calculate atomic Hamiltonians:      0.450     0.450   0.0% |
 Communicate:                        0.111     0.111   0.0% |
 Initialize Hamiltonian:             0.000     0.000   0.0% |
 Poisson:                            0.088     0.088   0.0% |
 XC 3D grid:                         0.337     0.337   0.0% |
LCAO initialization:               252.157     0.547   0.0% |
 LCAO eigensolver:                  11.779     0.010   0.0% |
  Calculate projections:             0.000     0.000   0.0% |
  DenseAtomicCorrection:             0.000     0.000   0.0% |
  Distribute overlap matrix:         7.405     7.405   0.0% |
  Orbital Layouts:                   4.336     4.336   0.0% |
  Potential matrix:                  0.003     0.003   0.0% |
  Sum over cells:                    0.025     0.025   0.0% |
 LCAO to grid:                     237.821   237.821   1.0% |
 Set positions (LCAO WFS):           2.010     1.722   0.0% |
  Basic WFS set positions:           0.004     0.004   0.0% |
  Basis functions set positions:     0.001     0.001   0.0% |
  P tci:                             0.000     0.000   0.0% |
  ST tci:                            0.110     0.110   0.0% |
  mktci:                             0.173     0.173   0.0% |
PWDescriptor:                        0.114     0.114   0.0% |
SCF-cycle:                       24088.739     1.329   0.0% |
 Davidson:                       23471.452  7918.787  32.5% |------------|
  Apply H:                         433.850   426.831   1.8% ||
   HMM T:                            7.019     7.019   0.0% |
  Subspace diag:                  2584.167     0.060   0.0% |
   calc_h_matrix:                 1053.011   680.375   2.8% ||
    Apply H:                       372.636   365.507   1.5% ||
     HMM T:                          7.129     7.129   0.0% |
   diagonalize:                    215.448   215.448   0.9% |
   rotate_psi:                    1315.648  1315.648   5.4% |-|
  calc. matrices:                 6065.275  5361.006  22.0% |--------|
   Apply H:                        704.269   690.333   2.8% ||
    HMM T:                          13.937    13.937   0.1% |
  diagonalize:                    3692.667  3692.667  15.1% |-----|
  rotate_psi:                     2776.705  2776.705  11.4% |----|
 Density:                          350.295     0.005   0.0% |
  Atomic density matrices:           4.249     4.249   0.0% |
  Mix:                             123.979   123.979   0.5% |
  Multipole moments:                 0.124     0.124   0.0% |
  Pseudo density:                  221.939   221.933   0.9% |
   Symmetrize density:               0.007     0.007   0.0% |
 Hamiltonian:                      248.915     1.854   0.0% |
  Atomic:                           68.722     0.227   0.0% |
   XC Correction:                   68.495    68.495   0.3% |
  Calculate atomic Hamiltonians:    98.078    98.078   0.4% |
  Communicate:                      14.500    14.500   0.1% |
  Poisson:                           6.434     6.434   0.0% |
  XC 3D grid:                       59.327    59.327   0.2% |
 Orthonormalize:                    16.748     0.001   0.0% |
  calc_s_matrix:                     2.030     2.030   0.0% |
  inverse-cholesky:                  0.727     0.727   0.0% |
  projections:                      10.381    10.381   0.0% |
  rotate_psi_s:                      3.610     3.610   0.0% |
Set symmetry:                        0.001     0.001   0.0% |
Other:                               6.893     6.893   0.0% |
-----------------------------------------------------------
Total:                                     24384.281 100.0%

Date: Wed Apr 19 09:11:59 2023
