
  ___ ___ ___ _ _ _  
 |   |   |_  | | | | 
 | | | | | . | | | | 
 |__ |  _|___|_____|  22.8.0
 |___|_|             

User:   c.zeng@d0036
Date:   Thu Apr 20 04:30:10 2023
Arch:   x86_64
Pid:    146511
CWD:    /home/c.zeng/projects/hea-corrosion/hea-mlp/data-curation/surface-mcmc/dft-jobs/46
Python: 3.8.1
gpaw:   /home/c.zeng/usr/installs/gpaw/source/gpaw-22.8.0/gpaw
_gpaw:  /home/c.zeng/usr/installs/gpaw/source/gpaw-22.8.0/
        _gpaw.cpython-38-x86_64-linux-gnu.so
ase:    /home/c.zeng/.local/lib/python3.8/site-packages/ase-3.22.1-py3.8.egg/ase (version 3.22.1)
numpy:  /home/c.zeng/.local/lib/python3.8/site-packages/numpy (version 1.24.2)
scipy:  /home/c.zeng/.local/lib/python3.8/site-packages/scipy (version 1.10.1)
libxc:  4.2.3
units:  Angstrom and eV
cores: 30
OpenMP: False
OMP_NUM_THREADS: 1

Input parameters:
  convergence: {energy: 0.0001}
  kpts: [2 2 1]
  maxiter: 666
  mode: {ecut: 350.0,
         name: pw}
  occupations: {fixmagmom: False,
                name: fermi-dirac,
                width: 0.1}
  poissonsolver: {dipolelayer: xy}
  spinpol: True
  symmetry: {point_group: False}
  xc: PBE

System changes: positions, numbers, cell, pbc, initial_charges, initial_magmoms 

Initialize ...

species:
  Cr:
    name: Chromium
    id: 33f258bda2ca9f93018e70263a35547b
    Z: 24.0
    valence: 6
    core: 18
    charge: 0.0
    file: /home/c.zeng/usr/data/gpaw-setups-0.9.20000/Cr.PBE.gz
    compensation charges: {type: gauss,
                           rc: 0.35,
                           lmax: 2}
    cutoffs: {filter: 2.14,
              core: 3.04}
    valence states:
      #              energy  rcut
      - 4s(1.00)    -4.007   1.164
      - 4p(0.00)    -0.989   1.217
      - 3d(5.00)    -2.913   1.111
      -  s          23.205   1.164
      -  p          26.223   1.217
      -  d          24.299   1.111
  
    # Using partial waves for Cr as LCAO basis

  Co:
    name: Cobalt
    id: 339d20d5b0b93d2de9531a1bee871d91
    Z: 27.0
    valence: 9
    core: 18
    charge: 0.0
    file: /home/c.zeng/usr/data/gpaw-setups-0.9.20000/Co.PBE.gz
    compensation charges: {type: gauss,
                           rc: 0.32,
                           lmax: 2}
    cutoffs: {filter: 1.87,
              core: 2.55}
    valence states:
      #              energy  rcut
      - 4s(2.00)    -5.469   1.005
      - 4p(0.00)    -1.277   1.058
      - 3d(7.00)    -8.205   1.005
      -  s          21.742   1.005
      -  p          25.934   1.058
      -  d          19.007   1.005
  
    # Using partial waves for Co as LCAO basis

  Ni:
    name: Nickel
    id: 0d9f38a9d6e76a2886f07bb4381f212b
    Z: 28.0
    valence: 16
    core: 12
    charge: 0.0
    file: /home/c.zeng/usr/data/gpaw-setups-0.9.20000/Ni.PBE.gz
    compensation charges: {type: gauss,
                           rc: 0.36,
                           lmax: 2}
    cutoffs: {filter: 2.14,
              core: 1.98}
    valence states:
      #              energy  rcut
      - 4s(2.00)    -5.642   1.164
      - 3p(6.00)   -71.394   1.207
      - 4p(0.00)    -1.226   1.207
      - 3d(8.00)    -8.875   1.138
      -  s          21.570   1.164
      -  d          18.337   1.138
  
    # Using partial waves for Ni as LCAO basis

  Fe:
    name: Iron
    id: 37abbd8d6c3c35915a9b583b742da910
    Z: 26.0
    valence: 8
    core: 18
    charge: 0.0
    file: /home/c.zeng/usr/data/gpaw-setups-0.9.20000/Fe.PBE.gz
    compensation charges: {type: gauss,
                           rc: 0.33,
                           lmax: 2}
    cutoffs: {filter: 2.06,
              core: 2.67}
    valence states:
      #              energy  rcut
      - 4s(2.00)    -5.291   1.164
      - 4p(0.00)    -1.326   1.058
      - 3d(6.00)    -7.505   1.058
      -  s          21.920   1.164
      -  p          25.885   1.058
      -  d          19.706   1.058
  
    # Using partial waves for Fe as LCAO basis

Reference energy: -4451268.207082  # eV

Spin-polarized calculation.
Magnetic moment: 175.600000

Convergence criteria:
 Maximum [total energy] change in last 3 cyles: 0.0001 eV / electron
 Maximum integral of absolute [dens]ity change: 0.0001 electrons / valence electron
 Maximum integral of absolute [eigenst]ate change: 4e-08 eV^2 / valence electron
 Maximum number of scf [iter]ations: 666
 (Square brackets indicate name in SCF output, whereas a 'c' in
 the SCF output indicates the quantity has converged.)

Symmetries present (total): 1

  ( 1  0  0)
  ( 0  1  0)
  ( 0  0  1)

4 k-points: 2 x 2 x 1 Monkhorst-Pack grid
2 k-points in the irreducible part of the Brillouin zone
       k-points in crystal coordinates                weights
   0:     0.25000000   -0.25000000    0.00000000          2/4
   1:     0.25000000    0.25000000    0.00000000          2/4

Wave functions: Plane wave expansion
  Cutoff energy: 350.000 eV
  Number of coefficients (min, max): 58495, 58567
  Pulay-stress correction: 0.000000 eV/Ang^3 (de/decut=0.000000)
  Using FFTW library
  ScaLapack parameters: grid=1x1, blocksize=None
  Wavefunction extrapolation:
    Improved wavefunction reuse through dual PAW basis 

Occupation numbers: Fermi-Dirac:
  width: 0.1000  # eV
 

Eigensolver
   Davidson(niter=2) 

Densities:
  Coarse grid: 54*54*128 grid
  Fine grid: 108*108*256 grid
  Total Charge: 0.000000 

Density mixing:
  Method: difference
  Backend: pulay
  Linear mixing parameter: 0.05
  old densities: 5
  Damping of long wavelength oscillations: 50 

Hamiltonian:
  XC and Coulomb potentials evaluated on a 108*108*256 grid
  Using the PBE Exchange-Correlation functional
  External potential:
    NoExternalPotential
 

XC parameters: PBE with 2 nearest neighbor stencil

Memory estimate:
  Process memory now: 367.09 MiB
  Calculator: 2405.48 MiB
    Density: 16.73 MiB
      Arrays: 6.75 MiB
      Localized functions: 7.29 MiB
      Mixer: 2.70 MiB
    Hamiltonian: 5.22 MiB
      Arrays: 5.01 MiB
      XC: 0.00 MiB
      Poisson: 0.00 MiB
      vbar: 0.21 MiB
    Wavefunctions: 2383.52 MiB
      Arrays psit_nG: 1501.35 MiB
      Eigensolver: 862.84 MiB
      Projections: 3.85 MiB
      Projectors: 0.98 MiB
      PW-descriptor: 14.51 MiB

Total number of cores used: 30
Parallelization over k-points: 2
Domain decomposition: 1 x 3 x 5

Number of atoms: 125
Number of atomic orbitals: 1218
Number of bands in calculation: 840
Number of valence electrons: 1217
Bands to converge: occupied

... initialized

Initializing position-dependent things.

Density initialized from atomic densities
Creating initial wave functions:
  840 bands from LCAO basis set

                                                                  
                                                                  
                                                                  
                                                                  
                                   Co    Co           Ni          
                         Ni    Ni    Fe    Co    Cr               
                    Co    Cr     Cr    Ni    Co                   
                                Fe    Ni    Ni    Cr    Fe        
                Cr    Ni   NCr   FCo    NCo   Fe    Fe            
            Co    Ni   CCo   NCo   FNi   Fe     Ni                
       Ni                 CoCr    Cr     Cr    Fe    Fe           
                   Fe   CFe   FFe   FNi   CCo   Cr    Cr          
              Ni   FFe    CNi   FFe   CCo   Ni                    
                               Ni    Ni    Cr    Co    Cr         
               Cr   CFe   FCr   NFNi  CCNi  CFe   Co    Cr        
           Cr   CNi   FCo  CNCr   NFe   CFe         Fe            
            Fe    Fe          Fe    Cr        Ni                  
                       CNi   Fe    Cr    Ni     Cr                
             Fe    Cr    CCo   Co    CCo   Ni                     
              Co    Co    Cr     Ni    Cr                         
                                                                  
                                                                  
                                                                  
                                                                  
                                                                  

Positions:
   0 Cr    12.462288    1.423821   10.629080    ( 0.0000,  0.0000,  0.0000)
   1 Co     2.499576    1.440301   10.626527    ( 0.0000,  0.0000,  2.0000)
   2 Co     4.968611    1.438835   10.615079    ( 0.0000,  0.0000,  1.5000)
   3 Cr     7.462726    1.421460   10.639178    ( 0.0000,  0.0000,  2.1000)
   4 Ni     9.958813    1.440808   10.614286    ( 0.0000,  0.0000,  1.5000)
   5 Ni    13.701699    3.595687   10.631928    ( 0.0000,  0.0000,  0.0000)
   6 Co     3.731720    3.588498   10.658463    ( 0.0000,  0.0000,  2.0000)
   7 Cr     6.206181    3.578862   10.616048    ( 0.0000,  0.0000,  0.0000)
   8 Co     8.708678    3.588487   10.610441    ( 0.0000,  0.0000,  0.0000)
   9 Co    11.213254    3.596560   10.610265    ( 0.0000,  0.0000,  0.0000)
  10 Cr    14.928341    5.748260   10.633307    ( 0.0000,  0.0000,  1.5000)
  11 Co     4.975718    5.742741   10.620568    ( 0.0000,  0.0000,  0.0000)
  12 Fe     7.478433    5.755029   10.612261    ( 0.0000,  0.0000,  0.0000)
  13 Cr     9.958968    5.766540   10.606596    ( 0.0000,  0.0000,  0.0000)
  14 Ni    12.428955    5.759114   10.623679    ( 0.0000,  0.0000,  2.0000)
  15 Fe    16.172575    7.907763   10.614962    ( 0.0000,  0.0000,  0.0000)
  16 Co     6.230875    7.897556   10.631399    ( 0.0000,  0.0000,  1.5000)
  17 Co     8.712063    7.918800   10.624912    ( 0.0000,  0.0000,  1.5000)
  18 Cr    11.196407    7.900649   10.627583    ( 0.0000,  0.0000,  2.0000)
  19 Ni    13.685743    7.894915   10.608768    ( 0.0000,  0.0000,  0.0000)
  20 Cr    17.413095   10.061737   10.609531    ( 0.0000,  0.0000,  0.0000)
  21 Ni     7.473454   10.060875   10.626761    ( 0.0000,  0.0000,  1.5000)
  22 Co     9.959304   10.058201   10.606068    ( 0.0000,  0.0000,  0.0000)
  23 Co    12.452485   10.052985   10.619834    ( 0.0000,  0.0000,  1.5000)
  24 Co    14.933506   10.061047   10.614433    ( 0.0000,  0.0000,  2.0000)
  25 Co    12.449050   -0.000629   12.627234    ( 0.0000,  0.0000,  2.1000)
  26 Fe     2.492433    0.000558   12.634954    ( 0.0000,  0.0000,  2.1000)
  27 Cr     4.974333    0.000141   12.611941    ( 0.0000,  0.0000,  2.1000)
  28 Co     7.468637   -0.006559   12.638564    ( 0.0000,  0.0000,  0.0000)
  29 Cr    16.167928   10.788301   12.619514    ( 0.0000,  0.0000,  2.0000)
  30 Fe     1.266555    2.151225   12.633662    ( 0.0000,  0.0000,  2.0000)
  31 Fe     3.735748    2.148121   12.651127    ( 0.0000,  0.0000,  2.1000)
  32 Ni     6.204229    2.151322   12.625297    ( 0.0000,  0.0000,  2.0000)
  33 Fe     8.713864    2.159169   12.632341    ( 0.0000,  0.0000,  0.0000)
  34 Cr    11.209280    2.157261   12.630668    ( 0.0000,  0.0000,  2.0000)
  35 Cr     2.491537    4.311041   12.649513    ( 0.0000,  0.0000,  1.5000)
  36 Fe     4.975141    4.309004   12.661988    ( 0.0000,  0.0000,  1.5000)
  37 Ni     7.471546    4.302515   12.629612    ( 0.0000,  0.0000,  0.0000)
  38 Ni     9.959331    4.321389   12.624211    ( 0.0000,  0.0000,  2.0000)
  39 Fe    12.447216    4.322736   12.648779    ( 0.0000,  0.0000,  0.0000)
  40 Cr     3.727002    6.455713   12.638564    ( 0.0000,  0.0000,  2.0000)
  41 Fe     6.230130    6.458548   12.645726    ( 0.0000,  0.0000,  1.5000)
  42 Fe     8.722502    6.475815   12.624504    ( 0.0000,  0.0000,  2.1000)
  43 Co    11.197735    6.469758   12.643995    ( 0.0000,  0.0000,  1.5000)
  44 Fe    13.683348    6.470059   12.640003    ( 0.0000,  0.0000,  2.1000)
  45 Cr    17.413993    8.621565   12.620189    ( 0.0000,  0.0000,  0.0000)
  46 Ni     7.471608    8.621834   12.638564    ( 0.0000,  0.0000,  1.5000)
  47 Ni     9.955597    8.628593   12.628115    ( 0.0000,  0.0000,  2.1000)
  48 Cr    12.449432    8.615173   12.619279    ( 0.0000,  0.0000,  1.5000)
  49 Co    14.929575    8.617340   12.626089    ( 0.0000,  0.0000,  2.0000)
  50 Cr     1.254097    0.717223   14.680102    ( 0.0000,  0.0000,  2.1000)
  51 Ni     3.731090    0.711950   14.670063    ( 0.0000,  0.0000,  2.0000)
  52 Co     6.214925    0.718289   14.674818    ( 0.0000,  0.0000,  0.0000)
  53 Cr     8.714063    0.718519   14.689084    ( 0.0000,  0.0000,  2.0000)
  54 Fe    11.204771    0.717512   14.682421    ( 0.0000,  0.0000,  0.0000)
  55 Cr     2.496837    2.862958   14.687264    ( 0.0000,  0.0000,  2.0000)
  56 Fe     4.979214    2.867151   14.683800    ( 0.0000,  0.0000,  2.1000)
  57 Cr     7.478991    2.885690   14.679133    ( 0.0000,  0.0000,  2.1000)
  58 Ni     9.958294    2.881486   14.688056    ( 0.0000,  0.0000,  2.1000)
  59 Ni    12.441997    2.882424   14.688409    ( 0.0000,  0.0000,  0.0000)
  60 Fe     3.731806    5.017201   14.686589    ( 0.0000,  0.0000,  2.1000)
  61 Cr     6.225452    5.035536   14.687205    ( 0.0000,  0.0000,  0.0000)
  62 Fe     8.715945    5.032324   14.674525    ( 0.0000,  0.0000,  2.1000)
  63 Cr    11.195745    5.039006   14.696011    ( 0.0000,  0.0000,  2.0000)
  64 Ni    13.700079    5.031203   14.681012    ( 0.0000,  0.0000,  2.1000)
  65 Co     4.981869    7.184260   14.692048    ( 0.0000,  0.0000,  2.0000)
  66 Fe     7.477161    7.188130   14.678135    ( 0.0000,  0.0000,  1.5000)
  67 Fe     9.952805    7.179334   14.674554    ( 0.0000,  0.0000,  0.0000)
  68 Cr    12.443073    7.188992   14.681100    ( 0.0000,  0.0000,  2.0000)
  69 Cr    14.930068    7.191493   14.686618    ( 0.0000,  0.0000,  0.0000)
  70 Cr     6.231394    9.346900   14.677343    ( 0.0000,  0.0000,  0.0000)
  71 Cr     8.712453    9.336671   14.666629    ( 0.0000,  0.0000,  1.5000)
  72 Cr    11.193692    9.342761   14.657881    ( 0.0000,  0.0000,  1.5000)
  73 Fe    13.688080    9.336294   14.678986    ( 0.0000,  0.0000,  2.1000)
  74 Fe    16.181709    9.338601   14.679603    ( 0.0000,  0.0000,  2.0000)
  75 Co    12.451515    1.431333   16.739956    ( 0.0000,  0.0000,  2.0000)
  76 Ni     2.493173    1.440441   16.729476    ( 0.0000,  0.0000,  1.5000)
  77 Fe     4.973378    1.437348   16.717295    ( 0.0000,  0.0000,  1.5000)
  78 Ni     7.475017    1.438609   16.711571    ( 0.0000,  0.0000,  2.0000)
  79 Fe     9.955789    1.433845   16.723048    ( 0.0000,  0.0000,  2.1000)
  80 Co    13.696559    3.594351   16.715270    ( 0.0000,  0.0000,  2.1000)
  81 Fe     3.730077    3.579487   16.736903    ( 0.0000,  0.0000,  2.0000)
  82 Fe     6.225541    3.599416   16.704614    ( 0.0000,  0.0000,  1.5000)
  83 Fe     8.709257    3.594792   16.716150    ( 0.0000,  0.0000,  2.1000)
  84 Ni    11.199463    3.603674   16.739691    ( 0.0000,  0.0000,  2.0000)
  85 Ni    14.943900    5.737718   16.712745    ( 0.0000,  0.0000,  1.5000)
  86 Co     4.972339    5.736543   16.726893    ( 0.0000,  0.0000,  1.5000)
  87 Ni     7.458804    5.749316   16.714624    ( 0.0000,  0.0000,  2.1000)
  88 Fe     9.954095    5.748637   16.721228    ( 0.0000,  0.0000,  2.0000)
  89 Fe    12.462014    5.747344   16.728743    ( 0.0000,  0.0000,  2.0000)
  90 Fe    16.183410    7.912818   16.742715    ( 0.0000,  0.0000,  2.0000)
  91 Ni     6.219087    7.908313   16.727040    ( 0.0000,  0.0000,  2.1000)
  92 Fe     8.705037    7.899237   16.717853    ( 0.0000,  0.0000,  1.5000)
  93 Ni    11.200247    7.900293   16.707726    ( 0.0000,  0.0000,  2.0000)
  94 Fe    13.685904    7.915049   16.733058    ( 0.0000,  0.0000,  2.0000)
  95 Fe    17.435836   10.053955   16.714183    ( 0.0000,  0.0000,  2.1000)
  96 Fe     7.479895   10.064335   16.723694    ( 0.0000,  0.0000,  2.1000)
  97 Ni     9.948438   10.062297   16.717999    ( 0.0000,  0.0000,  2.0000)
  98 Ni    12.430846   10.066016   16.706229    ( 0.0000,  0.0000,  2.1000)
  99 Cr    14.931465   10.060206   16.719819    ( 0.0000,  0.0000,  2.0000)
 100 Ni     0.001393   -0.001477   18.721348    ( 0.0000,  0.0000,  2.1000)
 101 Co     8.706806   10.779893   18.727160    ( 0.0000,  0.0000,  2.1000)
 102 Co    11.204107   10.781618   18.717855    ( 0.0000,  0.0000,  1.5000)
 103 Co     7.469960    0.013195   18.707875    ( 0.0000,  0.0000,  2.0000)
 104 Ni    16.181919   10.775754   18.709108    ( 0.0000,  0.0000,  2.1000)
 105 Co     1.248004    2.161303   18.718354    ( 0.0000,  0.0000,  2.1000)
 106 Ni     3.733315    2.155634   18.745800    ( 0.0000,  0.0000,  1.5000)
 107 Co     6.228574    2.157186   18.698042    ( 0.0000,  0.0000,  2.0000)
 108 Co     8.707430    2.146688   18.721378    ( 0.0000,  0.0000,  1.5000)
 109 Ni    11.204420    2.145825   18.737698    ( 0.0000,  0.0000,  0.0000)
 110 Cr     2.490030    4.312410   18.723374    ( 0.0000,  0.0000,  2.1000)
 111 Ni     4.985099    4.302214   18.737992    ( 0.0000,  0.0000,  1.5000)
 112 Cr     7.468273    4.307150   18.718736    ( 0.0000,  0.0000,  1.5000)
 113 Co     9.951365    4.318112   18.731387    ( 0.0000,  0.0000,  1.5000)
 114 Co    12.445275    4.305296   18.744537    ( 0.0000,  0.0000,  0.0000)
 115 Co     3.740863    6.459076   18.741044    ( 0.0000,  0.0000,  0.0000)
 116 Cr     6.217689    6.472786   18.736054    ( 0.0000,  0.0000,  1.5000)
 117 Cr     8.709004    6.465931   18.718354    ( 0.0000,  0.0000,  0.0000)
 118 Ni    11.207929    6.465576   18.705468    ( 0.0000,  0.0000,  2.1000)
 119 Co    13.697451    6.465489   18.739900    ( 0.0000,  0.0000,  0.0000)
 120 Ni     4.983428    8.632721   18.739518    ( 0.0000,  0.0000,  1.5000)
 121 Ni     7.469224    8.629196   18.723022    ( 0.0000,  0.0000,  1.5000)
 122 Fe     9.951770    8.622740   18.693815    ( 0.0000,  0.0000,  2.1000)
 123 Co    12.435945    8.632257   18.713130    ( 0.0000,  0.0000,  0.0000)
 124 Cr    14.940770    8.642831   18.751406    ( 0.0000,  0.0000,  0.0000)

Unit cell:
           periodic     x           y           z      points  spacing
  1. axis:    yes   12.446800    0.000000    0.000000    54     0.1996
  2. axis:    yes    6.223010   10.778600    0.000000    54     0.1996
  3. axis:    no     0.000000    0.000000   29.353100   128     0.2293

  Lengths:  12.446800  12.446046  29.353100
  Angles:   90.000000  90.000000  60.000070

Effective grid spacing dv^(1/3) = 0.2193

     iter     time        total  log10-change:  magmom
                         energy  eigst   dens
iter:   1 04:41:16 -1141.096972                  +175.5309
iter:   2 04:45:10 -2056.529814  +0.52  -1.18    +141.1233
iter:   3 04:49:03 -1989.607747  +0.96  -0.86    +114.3673
iter:   4 04:52:57 -1172.400968  -0.39  -0.85    +79.7709
iter:   5 04:56:50 -1044.818569  -1.26  -1.21    +61.4226
iter:   6 05:00:44 -1030.885584  -1.78  -1.33    +45.7352
iter:   7 05:04:38 -1016.618540  -1.69  -1.36    +41.3144
iter:   8 05:08:28 -1177.307563  -1.05  -1.38    +42.7553
iter:   9 05:12:21 -1127.903630  -1.01  -1.12    +40.1709
iter:  10 05:16:15 -1008.374271  -1.66  -1.16    +33.9253
iter:  11 05:20:09 -1000.243165  -1.95  -1.44    +34.1914
iter:  12 05:24:02 -1001.803120  -1.69  -1.46    +35.0731
iter:  13 05:27:56 -1007.510673  -1.65  -1.51    +36.7908
iter:  14 05:31:50  -991.545632  -1.51  -1.47    +37.7997
iter:  15 05:35:44 -1059.147647  -1.50  -1.71    +40.1286
iter:  16 05:39:37 -1063.700399  -1.50  -1.34    +38.6510
iter:  17 05:43:31  -992.741123  -1.92  -1.30    +36.4857
iter:  18 05:47:22  -989.624204  -2.32  -1.71    +37.9480
iter:  19 05:51:16  -997.014262  -1.91  -1.78    +39.6424
iter:  20 05:55:09  -989.111672  -2.16  -1.73    +40.8684
iter:  21 05:59:03  -988.915892  -2.78  -1.82    +43.3958
iter:  22 06:02:56 -1000.994068  -2.49  -1.88    +43.6887
iter:  23 06:06:50  -988.451474  -2.68  -1.66    +45.0236
iter:  24 06:10:43  -990.131643  -2.59  -2.01    +45.6087
iter:  25 06:14:37  -988.804229  -2.77  -1.96    +48.4152
iter:  26 06:18:31  -992.183813  -2.39  -2.14    +52.9427
iter:  27 06:22:25  -989.571146  -2.72  -2.02    +53.7155
iter:  28 06:26:19  -994.292072  -2.81  -2.22    +55.6402
iter:  29 06:30:13  -989.717027  -3.13  -1.92    +56.3976
iter:  30 06:34:07  -990.151896  -3.19  -2.33    +59.3269
iter:  31 06:38:01  -990.470916  -3.46  -2.37    +61.2990
iter:  32 06:41:55  -991.641838  -2.75  -2.40    +66.9595
iter:  33 06:45:49  -991.640681  -3.35  -2.32    +67.8745
iter:  34 06:49:38  -992.764476  -3.18  -2.38    +69.7085
iter:  35 06:53:32  -992.324053  -3.74  -2.24    +69.2718
iter:  36 06:57:26  -992.828023  -3.51  -2.30    +70.8024
iter:  37 07:01:19  -992.761507  -3.13  -2.23    +73.8849
iter:  38 07:05:13  -992.812249c -3.42  -2.28    +74.5853
iter:  39 07:09:05  -993.049011  -2.95  -2.27    +75.1866
iter:  40 07:12:56  -993.455096  -3.28  -2.25    +75.0359
iter:  41 07:16:50  -996.710531  -2.77  -2.20    +75.0587
iter:  42 07:20:43  -992.526175  -3.22  -1.95    +74.3928
iter:  43 07:24:37  -992.477889  -3.52  -2.45    +74.3542
iter:  44 07:28:30  -992.556200c -3.70  -2.55    +74.5274
iter:  45 07:32:24  -992.648838  -3.62  -2.54    +74.2526
iter:  46 07:36:17  -992.862580  -3.73  -2.54    +73.6943
iter:  47 07:40:10  -992.928613  -3.65  -2.45    +73.5836
iter:  48 07:44:04  -992.730570  -3.55  -2.44    +73.8158
iter:  49 07:47:57  -992.833300  -3.84  -2.57    +73.6289
iter:  50 07:51:51  -992.684135  -3.84  -2.52    +72.7738
iter:  51 07:55:45  -992.725178  -4.06  -2.66    +72.8339
iter:  52 07:59:38  -992.640767c -4.11  -2.66    +72.6568
iter:  53 08:03:32  -992.648630c -4.43  -2.74    +72.6211
iter:  54 08:07:25  -992.719430c -4.37  -2.81    +72.6647
iter:  55 08:11:18  -993.096624  -3.84  -2.73    +72.4855
iter:  56 08:15:08  -992.793583  -3.82  -2.46    +72.5779
iter:  57 08:19:01  -992.737624  -4.29  -2.71    +72.4292
iter:  58 08:22:55  -992.870326  -4.10  -2.94    +72.1662
iter:  59 08:26:48  -992.726997  -4.47  -2.66    +72.0986
iter:  60 08:30:41  -992.721690  -4.45  -3.04    +71.8711
iter:  61 08:34:35  -992.724575c -4.90  -3.11    +71.9191
iter:  62 08:38:28  -992.760899c -4.55  -3.23    +71.8758
iter:  63 08:42:21  -992.734935c -4.98  -3.05    +71.9074
iter:  64 08:46:14  -992.742981c -5.06  -3.26    +71.8499
iter:  65 08:50:07  -992.744577c -5.60  -3.35    +71.8527
iter:  66 08:54:01  -992.757806c -5.21  -3.32    +71.7899
iter:  67 08:57:55  -992.773698c -5.10  -3.24    +71.7116
iter:  68 09:01:47  -992.763463c -5.12  -3.17    +71.7345
iter:  69 09:05:39  -992.770557c -5.12  -3.35    +71.6465
iter:  70 09:09:33  -992.783276c -4.96  -3.39    +71.4897
iter:  71 09:13:26  -992.818251c -4.26  -3.33    +71.1311
iter:  72 09:17:20  -992.808282c -5.03  -3.18    +71.3787
iter:  73 09:21:13  -992.826937c -4.68  -3.12    +71.0841
iter:  74 09:25:06  -992.818924c -5.66  -3.20    +71.1532
iter:  75 09:29:00  -992.828392c -4.59  -3.20    +70.9001
iter:  76 09:32:53  -992.905435c -4.23  -3.16    +70.7593
iter:  77 09:36:46  -992.851158c -4.52  -2.81    +70.8465
iter:  78 09:40:39  -994.063354  -3.55  -3.03    +70.7984
iter:  79 09:44:32  -992.844476  -3.86  -2.23    +70.6487
iter:  80 09:48:25  -992.857890  -4.62  -3.01    +70.9110
iter:  81 09:52:19  -992.849355c -4.89  -2.94    +70.8215
iter:  82 09:56:02  -992.849749c -4.90  -3.01    +70.6310
iter:  83 09:59:43  -992.840812c -5.20  -3.02    +70.4944
iter:  84 10:03:23  -993.564824  -3.71  -3.07    +70.4840
iter:  85 10:07:03  -992.846848  -4.00  -2.37    +70.5235
iter:  86 10:10:42  -992.834771  -5.04  -3.06    +70.5012
iter:  87 10:14:56  -992.836536c -5.48  -3.20    +70.4820
iter:  88 10:18:48  -992.831923c -5.05  -3.19    +70.4656
iter:  89 10:22:27  -992.846757c -4.99  -3.31    +70.4846
iter:  90 10:26:07  -992.832126c -5.11  -3.14    +70.4543
iter:  91 10:29:46  -992.891868c -4.67  -3.41    +70.4857
iter:  92 10:33:25  -992.842197c -4.83  -2.90    +70.5259
iter:  93 10:37:05  -992.831692c -5.45  -3.24    +70.4548
iter:  94 10:40:45  -992.831842c -6.07  -3.68    +70.4810
iter:  95 10:44:25  -992.834460c -5.58  -3.75    +70.5108
iter:  96 10:48:04  -992.831817c -6.15  -3.67    +70.4869
iter:  97 10:51:44  -992.831617c -5.82  -3.80    +70.5870
iter:  98 10:55:24  -992.833705c -5.75  -3.89    +70.6491
iter:  99 10:59:04  -992.838418c -5.41  -3.82    +70.6976
iter: 100 11:02:42  -992.841698c -5.75  -3.69    +70.6887
iter: 101 11:07:09  -992.839504c -6.13  -3.46    +70.6810
iter: 102 11:10:49  -992.845367c -5.54  -3.63    +70.6326
iter: 103 11:14:29  -992.839352c -4.79  -3.46    +70.8348
iter: 104 11:18:09  -992.851736c -4.14  -3.43    +70.4735
iter: 105 11:21:48  -992.844522c -5.33  -3.35    +70.5811
iter: 106 11:25:29  -992.851841c -5.39  -3.55    +70.5431
iter: 107 11:29:08  -992.845223c -5.65  -3.29    +70.5300
iter: 108 11:32:48  -992.867616c -5.02  -3.54    +70.4993
iter: 109 11:36:27  -992.858481c -4.84  -3.05    +70.5111
iter: 110 11:40:06  -992.846811c -4.93  -3.22    +70.4411
iter: 111 11:43:44  -992.844724c -5.39  -3.40    +70.5914
iter: 112 11:47:23  -992.847694c -5.56  -3.72    +70.5811
iter: 113 11:51:01  -992.845303c -5.97  -3.55    +70.5687
iter: 114 11:54:42  -992.846178c -6.07  -3.80    +70.5526
iter: 115 11:58:39  -992.847100c -5.87  -3.82    +70.5397
iter: 116 12:02:49  -992.845473c -6.02  -3.82    +70.5634
iter: 117 12:06:30  -992.848700c -5.62  -3.72    +70.5141
iter: 118 12:10:10  -992.850662c -5.78  -3.72    +70.4880
iter: 119 12:13:52  -992.849496c -5.86  -3.60    +70.4463
iter: 120 12:17:33  -992.863047c -5.31  -3.75    +70.4574
iter: 121 12:21:14  -992.851585c -5.47  -3.24    +70.4720
iter: 122 12:24:55  -992.850498c -5.51  -3.60    +70.4403
iter: 123 12:28:37  -992.850456c -5.87  -3.56    +70.4524
iter: 124 12:32:51  -992.851095c -6.21  -3.89    +70.4425
iter: 125 12:36:49  -992.851919c -6.48  -3.94    +70.4455
iter: 126 12:40:31  -992.853238c -6.18  -3.80    +70.4421
iter: 127 12:44:12  -992.857097c -5.93  -3.74    +70.4148
iter: 128 12:47:52  -992.852476c -5.69  -3.40    +70.3946
iter: 129 12:51:33  -992.853323c -5.73  -3.68    +70.4194
iter: 130 12:55:29  -992.855108c -5.64  -3.77    +70.4217
iter: 131 12:59:48  -992.853504c -5.95  -3.60    +70.4267
iter: 132 13:03:29  -992.852994c -6.28  -3.70    +70.4291
iter: 133 13:07:10  -992.854711c -6.05  -3.92    +70.4245
iter: 134 13:10:50  -992.853610c -6.57  -3.67    +70.4386
iter: 135 13:14:33  -992.853447c -6.56  -4.05c   +70.4156
iter: 136 13:19:01  -992.854227c -6.28  -4.05c   +70.4321
iter: 137 13:22:41  -992.856225c -6.08  -3.96    +70.4209
iter: 138 13:26:21  -992.853985c -6.40  -3.61    +70.4199
iter: 139 13:30:02  -992.856502c -5.89  -4.12c   +70.4265
iter: 140 13:33:43  -992.854205c -6.09  -3.53    +70.4208
iter: 141 13:37:25  -992.854235c -6.64  -3.86    +70.4301
iter: 142 13:41:06  -992.854232c -7.03  -4.24c   +70.4234
iter: 143 13:45:01  -992.854441c -6.86  -4.21c   +70.4260
iter: 144 13:49:21  -992.853849c -6.10  -4.15c   +70.4204
iter: 145 13:53:02  -992.854231c -6.20  -4.08c   +70.4215
iter: 146 13:56:43  -992.854571c -6.80  -4.31c   +70.4080
iter: 147 14:00:25  -992.854452c -6.93  -4.10c   +70.4126
iter: 148 14:04:06  -992.854910c -6.45  -4.35c   +70.4090
iter: 149 14:07:47  -992.854394c -6.93  -3.99    +70.4154
iter: 150 14:11:28  -992.854630c -6.77  -4.52c   +70.4156
iter: 151 14:15:09  -992.854499c -7.20  -4.24c   +70.4082
iter: 152 14:18:49  -992.854546c -7.17  -4.43c   +70.4130
iter: 153 14:22:31  -992.854567c -7.73c -4.37c   +70.4109

Converged after 153 iterations.

Dipole moment: (52.405826, 28.917014, -0.000928) |e|*Ang

Total magnetic moment: (0.000000, 0.000000, 70.410936)
Local magnetic moments:
   0 Cr ( 0.000000,  0.000000, -2.208202)
   1 Co ( 0.000000,  0.000000,  1.501991)
   2 Co ( 0.000000,  0.000000,  1.234830)
   3 Cr ( 0.000000,  0.000000,  2.021909)
   4 Ni ( 0.000000,  0.000000, -0.051160)
   5 Ni ( 0.000000,  0.000000,  0.387715)
   6 Co ( 0.000000,  0.000000,  1.207347)
   7 Cr ( 0.000000,  0.000000, -2.314517)
   8 Co ( 0.000000,  0.000000,  1.175226)
   9 Co ( 0.000000,  0.000000,  1.202626)
  10 Cr ( 0.000000,  0.000000, -1.944647)
  11 Co ( 0.000000,  0.000000,  1.194219)
  12 Fe ( 0.000000,  0.000000,  2.509662)
  13 Cr ( 0.000000,  0.000000, -2.386448)
  14 Ni ( 0.000000,  0.000000,  0.237422)
  15 Fe ( 0.000000,  0.000000,  2.114250)
  16 Co ( 0.000000,  0.000000,  1.349453)
  17 Co ( 0.000000,  0.000000,  1.380428)
  18 Cr ( 0.000000,  0.000000,  1.997550)
  19 Ni ( 0.000000,  0.000000,  0.059917)
  20 Cr ( 0.000000,  0.000000,  1.699913)
  21 Ni ( 0.000000,  0.000000,  0.377137)
  22 Co ( 0.000000,  0.000000,  1.322659)
  23 Co ( 0.000000,  0.000000, -0.955650)
  24 Co ( 0.000000,  0.000000, -1.109884)
  25 Co ( 0.000000,  0.000000,  0.556290)
  26 Fe ( 0.000000,  0.000000,  2.038433)
  27 Cr ( 0.000000,  0.000000, -0.822204)
  28 Co ( 0.000000,  0.000000, -0.635447)
  29 Cr ( 0.000000,  0.000000,  0.005026)
  30 Fe ( 0.000000,  0.000000,  1.568408)
  31 Fe ( 0.000000,  0.000000,  1.918993)
  32 Ni ( 0.000000,  0.000000,  0.157482)
  33 Fe ( 0.000000,  0.000000, -1.754335)
  34 Cr ( 0.000000,  0.000000,  0.756011)
  35 Cr ( 0.000000,  0.000000, -0.503552)
  36 Fe ( 0.000000,  0.000000,  1.756583)
  37 Ni ( 0.000000,  0.000000,  0.263652)
  38 Ni ( 0.000000,  0.000000,  0.267421)
  39 Fe ( 0.000000,  0.000000,  1.921166)
  40 Cr ( 0.000000,  0.000000, -0.082331)
  41 Fe ( 0.000000,  0.000000,  2.031731)
  42 Fe ( 0.000000,  0.000000,  2.201770)
  43 Co ( 0.000000,  0.000000,  0.570606)
  44 Fe ( 0.000000,  0.000000,  1.607716)
  45 Cr ( 0.000000,  0.000000, -1.110121)
  46 Ni ( 0.000000,  0.000000,  0.283950)
  47 Ni ( 0.000000,  0.000000,  0.139756)
  48 Cr ( 0.000000,  0.000000, -0.951396)
  49 Co ( 0.000000,  0.000000, -0.366416)
  50 Cr ( 0.000000,  0.000000, -0.164626)
  51 Ni ( 0.000000,  0.000000,  0.133501)
  52 Co ( 0.000000,  0.000000,  0.734710)
  53 Cr ( 0.000000,  0.000000, -0.304640)
  54 Fe ( 0.000000,  0.000000, -1.315191)
  55 Cr ( 0.000000,  0.000000, -1.174099)
  56 Fe ( 0.000000,  0.000000,  1.806981)
  57 Cr ( 0.000000,  0.000000, -0.636877)
  58 Ni ( 0.000000,  0.000000,  0.102500)
  59 Ni ( 0.000000,  0.000000,  0.180027)
  60 Fe ( 0.000000,  0.000000,  1.894918)
  61 Cr ( 0.000000,  0.000000, -1.480098)
  62 Fe ( 0.000000,  0.000000,  1.793843)
  63 Cr ( 0.000000,  0.000000, -1.177750)
  64 Ni ( 0.000000,  0.000000,  0.144401)
  65 Co ( 0.000000,  0.000000,  0.626338)
  66 Fe ( 0.000000,  0.000000,  1.796462)
  67 Fe ( 0.000000,  0.000000, -1.337111)
  68 Cr ( 0.000000,  0.000000, -0.510522)
  69 Cr ( 0.000000,  0.000000, -1.112858)
  70 Cr ( 0.000000,  0.000000, -0.123684)
  71 Cr ( 0.000000,  0.000000, -1.040381)
  72 Cr ( 0.000000,  0.000000,  0.735524)
  73 Fe ( 0.000000,  0.000000,  1.441079)
  74 Fe ( 0.000000,  0.000000,  1.032175)
  75 Co ( 0.000000,  0.000000,  1.329296)
  76 Ni ( 0.000000,  0.000000,  0.384232)
  77 Fe ( 0.000000,  0.000000,  2.481844)
  78 Ni ( 0.000000,  0.000000,  0.382774)
  79 Fe ( 0.000000,  0.000000,  2.144243)
  80 Co ( 0.000000,  0.000000,  1.369448)
  81 Fe ( 0.000000,  0.000000,  2.180046)
  82 Fe ( 0.000000,  0.000000,  2.089832)
  83 Fe ( 0.000000,  0.000000,  2.153900)
  84 Ni ( 0.000000,  0.000000,  0.531507)
  85 Ni ( 0.000000,  0.000000,  0.363748)
  86 Co ( 0.000000,  0.000000,  1.218709)
  87 Ni ( 0.000000,  0.000000,  0.218620)
  88 Fe ( 0.000000,  0.000000,  2.069487)
  89 Fe ( 0.000000,  0.000000,  2.232233)
  90 Fe ( 0.000000,  0.000000,  2.091149)
  91 Ni ( 0.000000,  0.000000,  0.345077)
  92 Fe ( 0.000000,  0.000000,  2.066115)
  93 Ni ( 0.000000,  0.000000,  0.382064)
  94 Fe ( 0.000000,  0.000000,  1.897111)
  95 Fe ( 0.000000,  0.000000,  2.025662)
  96 Fe ( 0.000000,  0.000000,  2.175135)
  97 Ni ( 0.000000,  0.000000,  0.470913)
  98 Ni ( 0.000000,  0.000000,  0.404841)
  99 Cr ( 0.000000,  0.000000, -0.783866)
 100 Ni ( 0.000000,  0.000000,  0.660755)
 101 Co ( 0.000000,  0.000000,  1.720145)
 102 Co ( 0.000000,  0.000000,  1.723866)
 103 Co ( 0.000000,  0.000000,  1.434421)
 104 Ni ( 0.000000,  0.000000,  0.401428)
 105 Co ( 0.000000,  0.000000,  1.667127)
 106 Ni ( 0.000000,  0.000000,  0.562795)
 107 Co ( 0.000000,  0.000000,  1.591092)
 108 Co ( 0.000000,  0.000000,  1.583151)
 109 Ni ( 0.000000,  0.000000,  0.667493)
 110 Cr ( 0.000000,  0.000000, -2.597934)
 111 Ni ( 0.000000,  0.000000,  0.388712)
 112 Cr ( 0.000000,  0.000000, -2.339578)
 113 Co ( 0.000000,  0.000000,  1.370789)
 114 Co ( 0.000000,  0.000000,  1.660505)
 115 Co ( 0.000000,  0.000000,  1.386969)
 116 Cr ( 0.000000,  0.000000,  2.201817)
 117 Cr ( 0.000000,  0.000000, -2.445236)
 118 Ni ( 0.000000,  0.000000,  0.554553)
 119 Co ( 0.000000,  0.000000,  1.528728)
 120 Ni ( 0.000000,  0.000000,  0.420871)
 121 Ni ( 0.000000,  0.000000,  0.440173)
 122 Fe ( 0.000000,  0.000000,  2.651271)
 123 Co ( 0.000000,  0.000000,  1.593740)
 124 Cr ( 0.000000,  0.000000, -2.400246)

Energy contributions relative to reference atoms: (reference = -4451268.207082)

Kinetic:       +231.834691
Potential:     -288.757634
External:        +0.000000
XC:            -978.681079
Entropy (-ST):   -5.722949
Local:          +45.610930
--------------------------
Free energy:   -995.716042
Extrapolated:  -992.854567

Dipole-layer corrected work functions: 4.952569, 4.953821 eV

Spin contamination: 44.745627 electrons
Showing all kpts
                      Up                     Down
 Kpt  Band  Eigenvalues  Occupancy  Eigenvalues  Occupancy
  0   606      0.00595    0.99267      0.81383    0.04030
  0   607      0.01758    0.99178      0.82558    0.03600
  0   608      0.02806    0.99087      0.83642    0.03242
  0   609      0.04722    0.98897      0.85068    0.02823

  1   606      0.01295    0.99214      0.83069    0.03427
  1   607      0.02629    0.99103      0.83682    0.03229
  1   608      0.04594    0.98911      0.85458    0.02718
  1   609      0.05883    0.98763      0.86081    0.02558


Fermi level: 0.49682

No gap

Forces in eV/Ang:
  0 Cr    0.01239    0.07412   -0.24154
  1 Co    0.11386    0.02026    0.15052
  2 Co   -0.36051   -0.28728    0.12489
  3 Cr    0.36069   -0.43560   -0.18573
  4 Ni   -0.13615    0.11325   -0.16399
  5 Ni   -0.13778    0.05769   -0.26386
  6 Co   -0.19034    0.00205    0.08506
  7 Cr   -0.10055    0.34989   -0.14274
  8 Co    0.31453    0.12659    0.17229
  9 Co    0.09761   -0.11254    0.28540
 10 Cr    0.13556    0.02762   -0.25880
 11 Co   -0.00981    0.01860    0.35167
 12 Fe   -0.26258    0.07934   -0.49410
 13 Cr   -0.30487   -0.26452   -0.07909
 14 Ni    0.28404   -0.27209   -0.06427
 15 Fe    0.02169   -0.15714    0.08430
 16 Co    0.10576   -0.07266   -0.05132
 17 Co   -0.43107    0.13692    0.00483
 18 Cr    0.25319    0.25818   -0.38648
 19 Ni    0.14313    0.14732   -0.00584
 20 Cr   -0.03774    0.04060   -0.20621
 21 Ni    0.14674   -0.12973   -0.02396
 22 Co   -0.08699    0.24344    0.09630
 23 Co   -0.28370    0.09139    0.33965
 24 Co   -0.06361   -0.09925    0.45682
 25 Co   -0.21618    0.00567    0.26218
 26 Fe    0.00981   -0.08769   -0.27047
 27 Cr    0.19137    0.13355   -0.46113
 28 Co    0.06155    0.11491    0.05841
 29 Cr   -0.09733   -0.10062   -0.24426
 30 Fe    0.00265    0.01568   -0.10663
 31 Fe    0.16524    0.05271   -0.27433
 32 Ni    0.14000   -0.12546    0.45504
 33 Fe   -0.04709   -0.24150   -0.14548
 34 Cr    0.03567   -0.06651    0.14299
 35 Cr    0.16170    0.07809   -0.50049
 36 Fe    0.17248   -0.16851   -0.41956
 37 Ni    0.11236    0.05567   -0.16189
 38 Ni   -0.13803   -0.15894   -0.02442
 39 Fe   -0.24747   -0.01815   -0.28997
 40 Cr    0.38790   -0.06116    0.09339
 41 Fe   -0.26054    0.18958   -0.02060
 42 Fe    0.17258    0.05820   -0.03968
 43 Co    0.07593   -0.01140    0.34367
 44 Fe   -0.21275    0.11488   -0.03797
 45 Cr    0.15128   -0.07362    0.00630
 46 Ni   -0.18647   -0.05175   -0.16291
 47 Ni    0.01805   -0.19789    0.01464
 48 Cr    0.22452    0.14628   -0.18741
 49 Co    0.12182    0.10365    0.17995
 50 Cr   -0.63718    0.05950   -0.06912
 51 Ni    0.07701    0.02877    0.01348
 52 Co    0.10513    0.14033   -0.18449
 53 Cr   -0.13048   -0.20584   -0.30881
 54 Fe    0.20512    0.09744   -0.28410
 55 Cr   -0.02510    0.18565    0.07992
 56 Fe    0.10664   -0.35233   -0.37618
 57 Cr    0.08143   -0.41532   -0.22340
 58 Ni    0.13400   -0.10975   -0.12405
 59 Ni    0.01621   -0.18152   -0.09439
 60 Fe    0.12165    0.39343    0.12403
 61 Cr   -0.18764    0.21330   -0.08823
 62 Fe   -0.09196   -0.10689   -0.12904
 63 Cr   -0.06287    0.09298   -0.13643
 64 Ni   -0.08559   -0.01263   -0.09044
 65 Co    0.01616    0.11151   -0.11184
 66 Fe   -0.16995    0.08761    0.24759
 67 Fe    0.37872    0.15484   -0.35022
 68 Cr   -0.38604   -0.13940    0.00025
 69 Cr    0.23580    0.19668   -0.19618
 70 Cr   -0.36783    0.08717   -0.00476
 71 Cr    0.10801   -0.14236    0.03214
 72 Cr    0.16926   -0.10869    0.22635
 73 Fe    0.13573    0.03559   -0.32465
 74 Fe    0.00788   -0.08819   -0.20665
 75 Co    0.02959    0.07396   -0.13741
 76 Ni   -0.09525   -0.07209    0.03621
 77 Fe    0.08431   -0.28730    0.06768
 78 Ni   -0.09603    0.04220    0.10074
 79 Fe    0.21934    0.03659    0.02788
 80 Co   -0.05596   -0.23984    0.31220
 81 Fe    0.00420    0.33855    0.35986
 82 Fe   -0.12626    0.26670    0.35972
 83 Fe   -0.03812   -0.06975    0.25903
 84 Ni    0.11526   -0.09559   -0.02817
 85 Ni    0.03507    0.22127    0.28005
 86 Co   -0.11662   -0.04636   -0.13870
 87 Ni   -0.00050    0.06983   -0.20640
 88 Fe    0.06419    0.09226    0.17700
 89 Fe    0.12762   -0.11112    0.20862
 90 Fe    0.08765   -0.22694   -0.04513
 91 Ni    0.03818   -0.13262   -0.36704
 92 Fe   -0.25358    0.03751   -0.23245
 93 Ni   -0.04202    0.12694   -0.09368
 94 Fe    0.00867    0.08643    0.16041
 95 Fe   -0.26500    0.08219    0.11900
 96 Fe    0.13580    0.01393    0.25959
 97 Ni   -0.04960    0.03667   -0.04129
 98 Ni    0.15829   -0.02893    0.16489
 99 Cr    0.00448    0.13717   -0.03651
100 Ni    0.04907    0.06110    0.18597
101 Co    0.02027    0.10555    0.11395
102 Co    0.08824    0.04296    0.07081
103 Co   -0.13103   -0.06007   -0.01804
104 Ni   -0.04940    0.12590    0.35288
105 Co   -0.21108   -0.11310   -0.23203
106 Ni    0.09089   -0.12966    0.16339
107 Co   -0.16482   -0.08308    0.11310
108 Co    0.15176   -0.06512   -0.05267
109 Ni    0.01200    0.16556    0.13864
110 Cr    0.01459   -0.03745    0.39814
111 Ni   -0.12611   -0.13178    0.15563
112 Cr   -0.28389   -0.88580    0.30979
113 Co    0.09476   -0.10232   -0.15906
114 Co   -0.15568    0.00320   -0.17660
115 Co   -0.23827    0.09531   -0.34994
116 Cr    0.10461   -0.11970    0.38908
117 Cr    0.61802    0.58872    0.37464
118 Ni    0.19990   -0.07893    0.35160
119 Co   -0.26941    0.04614   -0.27351
120 Ni   -0.05927    0.15409    0.21665
121 Ni   -0.02191    0.39714    0.19716
122 Fe    0.03081    0.18035    0.52795
123 Co    0.11287    0.09840   -0.02231
124 Cr    0.00982   -0.29214    0.45492

Timing:                              incl.     excl.
-----------------------------------------------------------
Forces:                             51.412    51.412   0.1% |
Hamiltonian:                         1.755     0.016   0.0% |
 Atomic:                             0.435     0.001   0.0% |
  XC Correction:                     0.434     0.434   0.0% |
 Calculate atomic Hamiltonians:      0.621     0.621   0.0% |
 Communicate:                        0.078     0.078   0.0% |
 Initialize Hamiltonian:             0.001     0.001   0.0% |
 Poisson:                            0.128     0.128   0.0% |
 XC 3D grid:                         0.477     0.477   0.0% |
LCAO initialization:               409.213     0.492   0.0% |
 LCAO eigensolver:                  29.262     0.019   0.0% |
  Calculate projections:             0.000     0.000   0.0% |
  DenseAtomicCorrection:             0.000     0.000   0.0% |
  Distribute overlap matrix:        14.135    14.135   0.0% |
  Orbital Layouts:                  15.036    15.036   0.0% |
  Potential matrix:                  0.008     0.008   0.0% |
  Sum over cells:                    0.063     0.063   0.0% |
 LCAO to grid:                     376.490   376.490   1.1% |
 Set positions (LCAO WFS):           2.969     2.591   0.0% |
  Basic WFS set positions:           0.004     0.004   0.0% |
  Basis functions set positions:     0.001     0.001   0.0% |
  P tci:                             0.000     0.000   0.0% |
  ST tci:                            0.147     0.147   0.0% |
  mktci:                             0.226     0.226   0.0% |
PWDescriptor:                        0.132     0.132   0.0% |
SCF-cycle:                       35126.736     1.271   0.0% |
 Davidson:                       34255.302  8652.237  24.3% |---------|
  Apply H:                         577.947   567.150   1.6% ||
   HMM T:                           10.797    10.797   0.0% |
  Subspace diag:                  3127.443     0.100   0.0% |
   calc_h_matrix:                 1343.971   812.290   2.3% ||
    Apply H:                       531.681   520.058   1.5% ||
     HMM T:                         11.623    11.623   0.0% |
   diagonalize:                    304.847   304.847   0.9% |
   rotate_psi:                    1478.525  1478.525   4.2% |-|
  calc. matrices:                 7286.946  6283.547  17.7% |------|
   Apply H:                       1003.399   981.075   2.8% ||
    HMM T:                          22.324    22.324   0.1% |
  diagonalize:                   11447.676 11447.676  32.2% |------------|
  rotate_psi:                     3163.053  3163.053   8.9% |---|
 Density:                          504.225     0.008   0.0% |
  Atomic density matrices:           5.266     5.266   0.0% |
  Mix:                             237.104   237.104   0.7% |
  Multipole moments:                 0.146     0.146   0.0% |
  Pseudo density:                  261.702   261.691   0.7% |
   Symmetrize density:               0.012     0.012   0.0% |
 Hamiltonian:                      343.353     2.595   0.0% |
  Atomic:                           67.517     0.270   0.0% |
   XC Correction:                   67.247    67.247   0.2% |
  Calculate atomic Hamiltonians:   183.238   183.238   0.5% |
  Communicate:                      11.140    11.140   0.0% |
  Poisson:                           7.525     7.525   0.0% |
  XC 3D grid:                       71.338    71.338   0.2% |
 Orthonormalize:                    22.585     0.001   0.0% |
  calc_s_matrix:                     2.956     2.956   0.0% |
  inverse-cholesky:                  1.111     1.111   0.0% |
  projections:                      13.632    13.632   0.0% |
  rotate_psi_s:                      4.885     4.885   0.0% |
Set symmetry:                        0.001     0.001   0.0% |
Other:                               8.369     8.369   0.0% |
-----------------------------------------------------------
Total:                                     35597.618 100.0%

Date: Thu Apr 20 14:23:27 2023
