
  ___ ___ ___ _ _ _  
 |   |   |_  | | | | 
 | | | | | . | | | | 
 |__ |  _|___|_____|  22.8.0
 |___|_|             

User:   c.zeng@d0054
Date:   Fri Apr 14 17:58:01 2023
Arch:   x86_64
Pid:    80181
CWD:    /home/c.zeng/projects/hea-corrosion/hea-mlp/data-curation/bulk-mcmc/dft-jobs/156
Python: 3.8.1
gpaw:   /home/c.zeng/usr/installs/gpaw/source/gpaw-22.8.0/gpaw
_gpaw:  /home/c.zeng/usr/installs/gpaw/source/gpaw-22.8.0/
        _gpaw.cpython-38-x86_64-linux-gnu.so
ase:    /home/c.zeng/.local/lib/python3.8/site-packages/ase-3.22.1-py3.8.egg/ase (version 3.22.1)
numpy:  /shared/centos7/python/3.8.1/lib/python3.8/site-packages/numpy (version 1.17.4)
scipy:  /shared/centos7/python/3.8.1/lib/python3.8/site-packages/scipy (version 1.4.1)
libxc:  4.2.3
units:  Angstrom and eV
cores: 30
OpenMP: False
OMP_NUM_THREADS: 1

Input parameters:
  convergence: {energy: 0.0001}
  kpts: [2 2 2]
  maxiter: 666
  mode: {ecut: 350.0,
         name: pw}
  occupations: {fixmagmom: False,
                name: fermi-dirac,
                width: 0.1}
  spinpol: True
  xc: PBE

System changes: positions, numbers, cell, pbc, initial_charges, initial_magmoms 

Initialize ...

species:
  Co:
    name: Cobalt
    id: 339d20d5b0b93d2de9531a1bee871d91
    Z: 27.0
    valence: 9
    core: 18
    charge: 0.0
    file: /home/c.zeng/usr/data/gpaw-setups-0.9.20000/Co.PBE.gz
    compensation charges: {type: gauss,
                           rc: 0.32,
                           lmax: 2}
    cutoffs: {filter: 1.87,
              core: 2.55}
    valence states:
      #              energy  rcut
      - 4s(2.00)    -5.469   1.005
      - 4p(0.00)    -1.277   1.058
      - 3d(7.00)    -8.205   1.005
      -  s          21.742   1.005
      -  p          25.934   1.058
      -  d          19.007   1.005
  
    # Using partial waves for Co as LCAO basis

  Fe:
    name: Iron
    id: 37abbd8d6c3c35915a9b583b742da910
    Z: 26.0
    valence: 8
    core: 18
    charge: 0.0
    file: /home/c.zeng/usr/data/gpaw-setups-0.9.20000/Fe.PBE.gz
    compensation charges: {type: gauss,
                           rc: 0.33,
                           lmax: 2}
    cutoffs: {filter: 2.06,
              core: 2.67}
    valence states:
      #              energy  rcut
      - 4s(2.00)    -5.291   1.164
      - 4p(0.00)    -1.326   1.058
      - 3d(6.00)    -7.505   1.058
      -  s          21.920   1.164
      -  p          25.885   1.058
      -  d          19.706   1.058
  
    # Using partial waves for Fe as LCAO basis

  Al:
    name: Aluminium
    id: 0292cae29f5d6237e50f6abdd43a7bdd
    Z: 13.0
    valence: 3
    core: 10
    charge: 0.0
    file: /home/c.zeng/usr/data/gpaw-setups-0.9.20000/Al.PBE.gz
    compensation charges: {type: gauss,
                           rc: 0.34,
                           lmax: 2}
    cutoffs: {filter: 1.91,
              core: 2.36}
    valence states:
      #              energy  rcut
      - 3s(2.00)    -7.753   1.085
      - 3p(1.00)    -2.712   1.085
      -  s          19.459   1.085
      -  p          24.499   1.085
      -  d           0.000   1.085
  
    # Using partial waves for Al as LCAO basis

  Cr:
    name: Chromium
    id: 33f258bda2ca9f93018e70263a35547b
    Z: 24.0
    valence: 6
    core: 18
    charge: 0.0
    file: /home/c.zeng/usr/data/gpaw-setups-0.9.20000/Cr.PBE.gz
    compensation charges: {type: gauss,
                           rc: 0.35,
                           lmax: 2}
    cutoffs: {filter: 2.14,
              core: 3.04}
    valence states:
      #              energy  rcut
      - 4s(1.00)    -4.007   1.164
      - 4p(0.00)    -0.989   1.217
      - 3d(5.00)    -2.913   1.111
      -  s          23.205   1.164
      -  p          26.223   1.217
      -  d          24.299   1.111
  
    # Using partial waves for Cr as LCAO basis

  Ni:
    name: Nickel
    id: 0d9f38a9d6e76a2886f07bb4381f212b
    Z: 28.0
    valence: 16
    core: 12
    charge: 0.0
    file: /home/c.zeng/usr/data/gpaw-setups-0.9.20000/Ni.PBE.gz
    compensation charges: {type: gauss,
                           rc: 0.36,
                           lmax: 2}
    cutoffs: {filter: 2.14,
              core: 1.98}
    valence states:
      #              energy  rcut
      - 4s(2.00)    -5.642   1.164
      - 3p(6.00)   -71.394   1.207
      - 4p(0.00)    -1.226   1.207
      - 3d(8.00)    -8.875   1.138
      -  s          21.570   1.164
      -  d          18.337   1.138
  
    # Using partial waves for Ni as LCAO basis

Reference energy: -3382523.201499  # eV

Spin-polarized calculation.
Magnetic moment: 128.800000

Convergence criteria:
 Maximum [total energy] change in last 3 cyles: 0.0001 eV / electron
 Maximum integral of absolute [dens]ity change: 0.0001 electrons / valence electron
 Maximum integral of absolute [eigenst]ate change: 4e-08 eV^2 / valence electron
 Maximum number of scf [iter]ations: 666
 (Square brackets indicate name in SCF output, whereas a 'c' in
 the SCF output indicates the quantity has converged.)

Symmetries present (total): 1

  ( 1  0  0)
  ( 0  1  0)
  ( 0  0  1)

8 k-points: 2 x 2 x 2 Monkhorst-Pack grid
4 k-points in the irreducible part of the Brillouin zone
       k-points in crystal coordinates                weights
   0:     0.25000000   -0.25000000   -0.25000000          2/8
   1:     0.25000000   -0.25000000    0.25000000          2/8
   2:     0.25000000    0.25000000   -0.25000000          2/8
   3:     0.25000000    0.25000000    0.25000000          2/8

Wave functions: Plane wave expansion
  Cutoff energy: 350.000 eV
  Number of coefficients (min, max): 18865, 18865
  Pulay-stress correction: 0.000000 eV/Ang^3 (de/decut=0.000000)
  Using FFTW library
  ScaLapack parameters: grid=1x1, blocksize=None
  Wavefunction extrapolation:
    Improved wavefunction reuse through dual PAW basis 

Occupation numbers: Fermi-Dirac:
  width: 0.1000  # eV
 

Eigensolver
   Davidson(niter=2) 

Densities:
  Coarse grid: 48*48*48 grid
  Fine grid: 96*96*96 grid
  Total Charge: 0.000000 

Density mixing:
  Method: difference
  Backend: pulay
  Linear mixing parameter: 0.05
  old densities: 5
  Damping of long wavelength oscillations: 50 

Hamiltonian:
  XC and Coulomb potentials evaluated on a 96*96*96 grid
  Using the PBE Exchange-Correlation functional
  External potential:
    NoExternalPotential
 

XC parameters: PBE with 2 nearest neighbor stencil

Memory estimate:
  Process memory now: 238.68 MiB
  Calculator: 1017.03 MiB
    Density: 5.55 MiB
      Arrays: 2.05 MiB
      Localized functions: 2.68 MiB
      Mixer: 0.82 MiB
    Hamiltonian: 1.60 MiB
      Arrays: 1.52 MiB
      XC: 0.00 MiB
      Poisson: 0.00 MiB
      vbar: 0.08 MiB
    Wavefunctions: 1009.87 MiB
      Arrays psit_nG: 747.28 MiB
      Eigensolver: 252.55 MiB
      Projections: 4.92 MiB
      Projectors: 0.73 MiB
      PW-descriptor: 4.39 MiB

Total number of cores used: 30
Parallelization over k-points: 2
Domain decomposition: 5 x 3 x 1

Number of atoms: 108
Number of atomic orbitals: 961
Number of bands in calculation: 649
Number of valence electrons: 945
Bands to converge: occupied

... initialized

Initializing position-dependent things.

Density initialized from atomic densities
Creating initial wave functions:
  649 bands from LCAO basis set

        .--------------------------.  
       /|                     Co   |  
      / |            Co Co     CrCo|  
     /  |       Cr       Ni       Cr  
    /   |Fe       Col     CCor     |  
   /i   | Fee        Fe      Co    |  
  /  CrAl   NCr       Ni           |  
 *      Ni     FeFe   AlFeCrCo   Cr|  
 |      |CoNi   CrNiAl   NiAlNi   Fe  
 | CrCo | AlNi   AlAlCo     Ni     |  
 |     Co  FeCr Cr  Fe CoNi  CrNi  |  
 |      FeNi   AlCr   CoFeFeNi  Co |  
 |Al    |FeCr   AlCrCo   CrFe     Co  
 |      .-CrCo-----NiCr-FeCoCrNi---.  
 |     /   Ni Fe    Cr FeNi    Al /   
 |    Fe       AFei       Al     /    
 |   /  Co         Al       Cr  /     
 |  /      Co       Al       Fe/      
 | / Fe     Co       Ni Ni    /       
 |/             Cr       Ni  /        
 *--------Fe----------------*         

Positions:
   0 Co    10.764147   10.861293   10.805330    ( 0.0000,  0.0000,  2.0000)
   1 Fe    10.786221    1.792513    1.813624    ( 0.0000,  0.0000,  0.0000)
   2 Fe     1.744156    0.036560    1.851269    ( 0.0000,  0.0000,  1.5000)
   3 Al     1.736571    1.831142   10.798805    ( 0.0000,  0.0000,  0.0000)
   4 Fe     3.575126    0.057318    0.061759    ( 0.0000,  0.0000,  0.0000)
   5 Co     3.594289    1.817617    1.845577    ( 0.0000,  0.0000,  2.0000)
   6 Co     5.429813   10.817005    1.865054    ( 0.0000,  0.0000,  1.5000)
   7 Cr     5.429608    1.929425    0.057134    ( 0.0000,  0.0000,  0.0000)
   8 Co     7.316909   10.723332    0.087382    ( 0.0000,  0.0000,  0.0000)
   9 Al     7.263142    1.825786    1.869404    ( 0.0000,  0.0000,  2.1000)
  10 Ni     9.063554    0.025226    1.863474    ( 0.0000,  0.0000,  1.5000)
  11 Ni     9.049217    1.829703    0.033106    ( 0.0000,  0.0000,  2.1000)
  12 Ni     0.004792    3.558981   10.794801    ( 0.0000,  0.0000,  1.5000)
  13 Al    10.759710    5.390697    1.778165    ( 0.0000,  0.0000,  0.0000)
  14 Co     1.733585    3.561849    1.761112    ( 0.0000,  0.0000,  2.0000)
  15 Fe     1.776899    5.391834   10.795505    ( 0.0000,  0.0000,  0.0000)
  16 Co     3.565452    3.619360   10.832619    ( 0.0000,  0.0000,  2.1000)
  17 Fe     3.633221    5.394614    1.719551    ( 0.0000,  0.0000,  0.0000)
  18 Ni     5.471624    3.659114    1.836033    ( 0.0000,  0.0000,  2.1000)
  19 Co     5.440212    5.373060   -0.002773    ( 0.0000,  0.0000,  2.0000)
  20 Ni     7.258997    3.609080    0.031294    ( 0.0000,  0.0000,  0.0000)
  21 Fe     7.268941    5.378362    1.785274    ( 0.0000,  0.0000,  2.0000)
  22 Al     9.030724    3.577636    1.833728    ( 0.0000,  0.0000,  2.1000)
  23 Co     9.040420    5.372281   10.801110    ( 0.0000,  0.0000,  0.0000)
  24 Co    10.791663    7.196206   10.792486    ( 0.0000,  0.0000,  1.5000)
  25 Co    10.758434    9.040387    1.848239    ( 0.0000,  0.0000,  0.0000)
  26 Cr     1.690487    7.202493    1.786032    ( 0.0000,  0.0000,  0.0000)
  27 Ni     1.652691    8.981047    0.027217    ( 0.0000,  0.0000,  0.0000)
  28 Al     3.631241    7.164437    0.034633    ( 0.0000,  0.0000,  0.0000)
  29 Al     3.625452    9.063759    1.801678    ( 0.0000,  0.0000,  0.0000)
  30 Ni     5.490852    7.187095    1.746342    ( 0.0000,  0.0000,  2.0000)
  31 Cr     5.426935    8.989152    0.009861    ( 0.0000,  0.0000,  2.0000)
  32 Co     7.229122    7.237075   -0.008698    ( 0.0000,  0.0000,  1.5000)
  33 Cr     7.249194    8.995850    1.810713    ( 0.0000,  0.0000,  0.0000)
  34 Cr     9.052073    7.204300    1.764218    ( 0.0000,  0.0000,  2.1000)
  35 Co     9.092553    8.989639   10.808760    ( 0.0000,  0.0000,  1.5000)
  36 Cr    -0.000975   10.826235    3.639789    ( 0.0000,  0.0000,  1.5000)
  37 Al    10.822772    1.771770    5.422044    ( 0.0000,  0.0000,  2.1000)
  38 Ni     1.754263   10.802084    5.428872    ( 0.0000,  0.0000,  2.1000)
  39 Fe     1.741873    1.774270    3.610801    ( 0.0000,  0.0000,  0.0000)
  40 Al     3.591183   10.794152    3.612143    ( 0.0000,  0.0000,  2.0000)
  41 Cr     3.593088    1.736744    5.455177    ( 0.0000,  0.0000,  0.0000)
  42 Al     5.437150   10.794563    5.400804    ( 0.0000,  0.0000,  2.0000)
  43 Fe     5.451931    1.783251    3.601387    ( 0.0000,  0.0000,  1.5000)
  44 Al     7.226222    0.007781    3.626209    ( 0.0000,  0.0000,  0.0000)
  45 Co     7.236069    1.766512    5.381392    ( 0.0000,  0.0000,  2.1000)
  46 Fe     9.034587   10.848850    5.403844    ( 0.0000,  0.0000,  2.1000)
  47 Ni     9.031558    1.804946    3.616730    ( 0.0000,  0.0000,  1.5000)
  48 Ni    10.773885    3.543973    3.617867    ( 0.0000,  0.0000,  1.5000)
  49 Ni    10.772186    5.358409    5.454917    ( 0.0000,  0.0000,  0.0000)
  50 Fe     1.757531    3.575678    5.428937    ( 0.0000,  0.0000,  2.1000)
  51 Fe     1.621766    5.386986    3.572550    ( 0.0000,  0.0000,  0.0000)
  52 Co     3.634303    3.633188    3.540792    ( 0.0000,  0.0000,  0.0000)
  53 Cr     3.550606    5.397969    5.404753    ( 0.0000,  0.0000,  2.0000)
  54 Cr     5.402221    3.610887    5.370193    ( 0.0000,  0.0000,  2.0000)
  55 Cr     5.460241    5.433590    3.575613    ( 0.0000,  0.0000,  2.0000)
  56 Cr     7.250157    3.615183    3.623169    ( 0.0000,  0.0000,  1.5000)
  57 Co     7.248707    5.410715    5.362099    ( 0.0000,  0.0000,  1.5000)
  58 Fe     9.058230    3.565236    5.380082    ( 0.0000,  0.0000,  2.1000)
  59 Fe     9.074071    5.365323    3.589008    ( 0.0000,  0.0000,  2.1000)
  60 Co    10.732086    7.267719    3.615162    ( 0.0000,  0.0000,  2.0000)
  61 Fe    10.775779    9.094782    5.426621    ( 0.0000,  0.0000,  2.1000)
  62 Al     1.686775    7.280195    5.496879    ( 0.0000,  0.0000,  0.0000)
  63 Fe     1.734277    9.054854    3.595598    ( 0.0000,  0.0000,  1.5000)
  64 Al     3.592936    7.268141    3.470210    ( 0.0000,  0.0000,  0.0000)
  65 Cr     3.586606    9.093570    5.438989    ( 0.0000,  0.0000,  0.0000)
  66 Al     5.383004    7.229273    5.440602    ( 0.0000,  0.0000,  0.0000)
  67 Fe     5.438189    9.045072    3.590069    ( 0.0000,  0.0000,  1.5000)
  68 Fe     7.326074    7.204776    3.545683    ( 0.0000,  0.0000,  0.0000)
  69 Ni     7.279632    9.072199    5.413107    ( 0.0000,  0.0000,  2.0000)
  70 Ni     9.092152    7.237465    5.436987    ( 0.0000,  0.0000,  0.0000)
  71 Cr     9.065675    9.066703    3.636153    ( 0.0000,  0.0000,  0.0000)
  72 Ni    10.809723   10.839544    7.207860    ( 0.0000,  0.0000,  2.0000)
  73 Ni    10.806033    1.798562    8.996921    ( 0.0000,  0.0000,  2.1000)
  74 Co     1.743366    0.025229    8.997224    ( 0.0000,  0.0000,  2.1000)
  75 Co     1.767453    1.793054    7.239326    ( 0.0000,  0.0000,  2.1000)
  76 Ni     3.586833    0.005591    7.224978    ( 0.0000,  0.0000,  2.0000)
  77 Ni     3.553431    1.854828    8.998555    ( 0.0000,  0.0000,  2.0000)
  78 Co     5.409460   10.815988    8.971428    ( 0.0000,  0.0000,  0.0000)
  79 Cr     5.421081    1.784279    7.188372    ( 0.0000,  0.0000,  2.0000)
  80 Co     7.245937   10.799746    7.160228    ( 0.0000,  0.0000,  2.1000)
  81 Al     7.320999    1.765083    8.948813    ( 0.0000,  0.0000,  0.0000)
  82 Cr     9.091124   10.807104    8.993610    ( 0.0000,  0.0000,  1.5000)
  83 Ni     9.075738    1.781649    7.163106    ( 0.0000,  0.0000,  1.5000)
  84 Cr    10.826451    3.561578    7.207611    ( 0.0000,  0.0000,  1.5000)
  85 Cr     0.036832    5.383155    8.996207    ( 0.0000,  0.0000,  2.0000)
  86 Ni     1.771305    3.603573    9.016896    ( 0.0000,  0.0000,  2.1000)
  87 Co     1.802046    5.346615    7.250741    ( 0.0000,  0.0000,  0.0000)
  88 Ni     3.593250    3.620096    7.230713    ( 0.0000,  0.0000,  1.5000)
  89 Cr     3.560215    5.391985    9.052268    ( 0.0000,  0.0000,  2.0000)
  90 Fe     5.376880    3.650263    8.987215    ( 0.0000,  0.0000,  1.5000)
  91 Ni     5.354319    5.395567    7.215694    ( 0.0000,  0.0000,  2.1000)
  92 Co     7.220974    3.645372    7.098821    ( 0.0000,  0.0000,  0.0000)
  93 Ni     7.211073    5.388295    9.040181    ( 0.0000,  0.0000,  0.0000)
  94 Cr     9.095052    3.598119    8.980636    ( 0.0000,  0.0000,  2.0000)
  95 Al     9.078205    5.402416    7.227759    ( 0.0000,  0.0000,  0.0000)
  96 Cr    10.763411    7.244682    7.260285    ( 0.0000,  0.0000,  1.5000)
  97 Cr    10.795093    9.034566    8.977574    ( 0.0000,  0.0000,  2.0000)
  98 Fe     1.740045    7.178947    8.984662    ( 0.0000,  0.0000,  2.1000)
  99 Fe     1.734429    9.080207    7.236696    ( 0.0000,  0.0000,  1.5000)
 100 Fe     3.580482    7.154277    7.248285    ( 0.0000,  0.0000,  0.0000)
 101 Cr     3.612835    8.970898    8.958086    ( 0.0000,  0.0000,  0.0000)
 102 Al     5.410943    7.155878    9.067049    ( 0.0000,  0.0000,  0.0000)
 103 Fe     5.466441    9.064062    7.220963    ( 0.0000,  0.0000,  2.1000)
 104 Fe     7.307203    7.271549    7.289738    ( 0.0000,  0.0000,  0.0000)
 105 Ni     7.271073    9.044683    9.027879    ( 0.0000,  0.0000,  1.5000)
 106 Cr     9.081743    7.219805    9.041166    ( 0.0000,  0.0000,  2.1000)
 107 Co     9.063684    9.083009    7.213865    ( 0.0000,  0.0000,  2.0000)

Unit cell:
           periodic     x           y           z      points  spacing
  1. axis:    yes   10.820500    0.000000    0.000000    48     0.2254
  2. axis:    yes    0.000000   10.820500    0.000000    48     0.2254
  3. axis:    yes    0.000000    0.000000   10.820500    48     0.2254

  Lengths:  10.820500  10.820500  10.820500
  Angles:   90.000000  90.000000  90.000000

Effective grid spacing dv^(1/3) = 0.2254

     iter     time        total  log10-change:  magmom
                         energy  eigst   dens
iter:   1 18:03:03  -895.027925                  +128.4417
iter:   2 18:05:23  -866.929762  -0.40  -1.31    +96.0238
iter:   3 18:07:43  -843.442412  -0.94  -1.28    +68.1381
iter:   4 18:10:04  -832.527314  -1.27  -1.37    +57.2589
iter:   5 18:12:24  -826.041170  -1.84  -1.40    +52.5084
iter:   6 18:14:44  -828.214763  -1.95  -1.47    +49.8992
iter:   7 18:17:03  -825.962257  -1.71  -1.48    +48.4962
iter:   8 18:19:20  -826.709349  -1.73  -1.54    +47.8945
iter:   9 18:21:40  -828.005566  -1.76  -1.62    +48.0742
iter:  10 18:24:01  -822.675956  -2.01  -1.66    +47.7529
iter:  11 18:26:21  -824.801539  -2.24  -1.82    +48.5806
iter:  12 18:28:41  -822.849862  -2.37  -1.79    +49.2357
iter:  13 18:31:02  -823.450316  -2.54  -1.89    +50.2334
iter:  14 18:33:23  -823.732215  -2.53  -1.91    +51.2438
iter:  15 18:35:43  -824.978653  -2.46  -1.95    +52.0427
iter:  16 18:38:04  -824.138224  -2.47  -1.92    +53.4979
iter:  17 18:40:24  -824.416217  -2.69  -1.99    +54.3432
iter:  18 18:42:44  -824.992174  -2.57  -2.06    +55.1198
iter:  19 18:45:04  -824.656994  -2.71  -2.07    +55.6888
iter:  20 18:47:24  -824.355200  -2.94  -2.11    +56.5551
iter:  21 18:49:44  -824.655324  -3.11  -2.19    +57.2077
iter:  22 18:52:05  -824.754573  -3.09  -2.20    +57.5885
iter:  23 18:54:26  -824.667693  -3.36  -2.20    +58.1941
iter:  24 18:56:46  -824.907078  -3.28  -2.26    +58.6951
iter:  25 18:59:06  -824.949482  -3.38  -2.27    +58.8780
iter:  26 19:01:25  -825.067988  -3.25  -2.29    +58.8904
iter:  27 19:03:43  -825.197384  -3.24  -2.32    +59.0534
iter:  28 19:06:04  -825.479632  -3.03  -2.31    +59.2590
iter:  29 19:08:25  -825.386494  -3.11  -2.32    +59.1475
iter:  30 19:10:41  -825.305766  -3.26  -2.36    +59.1461
iter:  31 19:12:49  -825.269986  -3.35  -2.44    +59.0190
iter:  32 19:14:56  -825.188426  -3.77  -2.46    +59.1690
iter:  33 19:17:03  -825.223930c -3.90  -2.56    +59.1448
iter:  34 19:19:10  -825.234950c -4.30  -2.58    +59.1222
iter:  35 19:21:17  -825.348417  -3.77  -2.62    +59.1125
iter:  36 19:23:23  -825.365928  -3.94  -2.55    +59.0773
iter:  37 19:25:30  -825.473319  -3.60  -2.65    +59.0214
iter:  38 19:27:36  -825.387801  -3.78  -2.63    +58.7846
iter:  39 19:29:42  -825.444539c -3.72  -2.79    +58.6789
iter:  40 19:31:48  -825.400663c -4.03  -2.76    +58.6853
iter:  41 19:33:55  -825.430655c -4.16  -2.91    +58.5217
iter:  42 19:36:00  -825.408654c -4.61  -2.89    +58.4682
iter:  43 19:38:06  -825.431373c -4.72  -3.03    +58.2873
iter:  44 19:40:12  -825.470234c -4.42  -3.04    +58.0663
iter:  45 19:42:18  -825.477643c -4.73  -2.98    +58.0276
iter:  46 19:44:24  -825.496323c -4.65  -3.07    +57.9396
iter:  47 19:46:30  -825.508819c -4.53  -3.08    +57.8939
iter:  48 19:49:19  -825.511970c -4.70  -3.14    +57.7820
iter:  49 19:51:53  -825.534689c -4.30  -3.27    +57.7034
iter:  50 19:53:59  -825.522326c -4.79  -3.10    +57.6034
iter:  51 19:56:05  -825.529887c -5.16  -3.32    +57.5105
iter:  52 19:58:12  -825.556767c -4.37  -3.35    +57.2822
iter:  53 20:00:17  -825.578569c -4.35  -3.20    +57.1995
iter:  54 20:02:23  -825.575706c -4.58  -3.12    +57.2307
iter:  55 20:04:30  -825.578062c -4.92  -3.26    +57.2985
iter:  56 20:06:36  -825.577712c -5.13  -3.30    +57.3368
iter:  57 20:08:42  -825.578979c -4.89  -3.36    +57.3561
iter:  58 20:10:48  -825.577105c -5.21  -3.39    +57.3689
iter:  59 20:12:55  -825.578655c -5.45  -3.54    +57.4026
iter:  60 20:15:02  -825.580088c -5.64  -3.55    +57.4491
iter:  61 20:17:07  -825.582420c -5.57  -3.59    +57.5196
iter:  62 20:19:13  -825.582554c -6.04  -3.58    +57.5387
iter:  63 20:21:19  -825.585181c -5.58  -3.65    +57.6140
iter:  64 20:23:25  -825.585287c -5.97  -3.63    +57.6338
iter:  65 20:25:31  -825.586778c -5.58  -3.75    +57.6950
iter:  66 20:27:38  -825.588106c -5.67  -3.77    +57.7367
iter:  67 20:29:44  -825.589135c -5.99  -3.90    +57.7719
iter:  68 20:31:50  -825.590680c -5.85  -3.91    +57.8266
iter:  69 20:33:55  -825.590168c -6.59  -3.92    +57.8099
iter:  70 20:36:14  -825.594288c -5.38  -3.84    +57.9226
iter:  71 20:39:17  -825.586521c -4.89  -3.74    +57.7049
iter:  72 20:41:26  -825.587998c -6.28  -3.97    +57.7439
iter:  73 20:43:32  -825.588441c -6.50  -3.94    +57.7693
iter:  74 20:45:38  -825.589690c -6.25  -3.98    +57.8163
iter:  75 20:47:45  -825.590541c -6.41  -4.02c   +57.8377
iter:  76 20:49:51  -825.593370c -5.50  -4.05c   +57.9196
iter:  77 20:51:57  -825.593077c -6.70  -3.89    +57.9199
iter:  78 20:54:03  -825.595175c -5.93  -3.89    +57.9748
iter:  79 20:56:10  -825.592602c -5.90  -3.85    +57.8981
iter:  80 20:58:16  -825.587093c -5.02  -3.89    +57.7384
iter:  81 21:00:23  -825.586108c -5.37  -4.06c   +57.6789
iter:  82 21:02:28  -825.586400c -6.33  -3.89    +57.7099
iter:  83 21:04:36  -825.587370c -6.38  -4.13c   +57.7448
iter:  84 21:06:41  -825.584789c -5.74  -4.15c   +57.6422
iter:  85 21:08:47  -825.581152c -5.22  -4.03c   +57.4676
iter:  86 21:10:54  -825.581438c -6.14  -3.91    +57.4566
iter:  87 21:12:59  -825.582270c -5.85  -3.86    +57.4586
iter:  88 21:15:05  -825.584125c -5.34  -3.84    +57.5008
iter:  89 21:17:11  -825.585566c -5.60  -3.81    +57.5558
iter:  90 21:19:17  -825.583625c -5.92  -3.72    +57.5185
iter:  91 21:21:23  -825.585741c -5.55  -3.87    +57.6202
iter:  92 21:23:29  -825.586210c -6.02  -3.79    +57.6127
iter:  93 21:25:34  -825.586709c -5.72  -3.84    +57.6938
iter:  94 21:27:40  -825.587237c -6.26  -3.98    +57.7044
iter:  95 21:29:46  -825.588574c -6.04  -4.09c   +57.7649
iter:  96 21:32:33  -825.590713c -5.74  -4.14c   +57.8442
iter:  97 21:35:12  -825.584026c -4.85  -4.04c   +57.5732
iter:  98 21:37:18  -825.579486c -4.69  -4.00c   +57.2940
iter:  99 21:39:25  -825.578912c -5.17  -3.77    +57.1886
iter: 100 21:41:32  -825.579295c -5.53  -3.69    +57.1427
iter: 101 21:43:38  -825.579850c -6.21  -3.66    +57.1815
iter: 102 21:45:45  -825.580589c -5.66  -3.68    +57.2724
iter: 103 21:47:52  -825.580652c -6.55  -3.71    +57.2624
iter: 104 21:49:59  -825.585478c -5.25  -3.71    +57.3022
iter: 105 21:52:05  -825.580444c -4.98  -3.37    +57.2802
iter: 106 21:54:12  -825.579713c -5.39  -3.50    +57.3327
iter: 107 21:56:18  -825.579223c -5.82  -3.64    +57.3538
iter: 108 21:58:24  -825.580062c -5.93  -3.85    +57.4027
iter: 109 22:00:31  -825.580678c -5.91  -3.90    +57.4324
iter: 110 22:02:37  -825.580951c -5.81  -3.86    +57.4678
iter: 111 22:05:17  -825.581565c -6.01  -3.81    +57.4950
iter: 112 22:08:05  -825.581688c -6.25  -4.01c   +57.5211
iter: 113 22:10:11  -825.582764c -6.00  -4.15c   +57.5665
iter: 114 22:12:18  -825.582047c -6.65  -4.07c   +57.5318
iter: 115 22:14:25  -825.581435c -6.39  -4.27c   +57.4954
iter: 116 22:16:31  -825.582506c -6.33  -4.28c   +57.5587
iter: 117 22:18:38  -825.579537c -5.29  -4.28c   +57.3671
iter: 118 22:20:44  -825.578182c -5.32  -4.13c   +57.2420
iter: 119 22:22:50  -825.578121c -5.58  -3.96    +57.1887
iter: 120 22:24:56  -825.578630c -6.35  -3.88    +57.2277
iter: 121 22:27:03  -825.579820c -5.79  -3.91    +57.3122
iter: 122 22:29:09  -825.578901c -6.27  -3.94    +57.2477
iter: 123 22:31:16  -825.580714c -5.57  -3.90    +57.3574
iter: 124 22:33:22  -825.576648c -5.20  -3.77    +57.2111
iter: 125 22:35:29  -825.579137c -5.39  -3.85    +57.3644
iter: 126 22:37:35  -825.579302c -6.09  -3.95    +57.3952
iter: 127 22:39:42  -825.579946c -6.09  -3.99    +57.4203
iter: 128 22:41:55  -825.580767c -5.85  -3.88    +57.4497
iter: 129 22:45:01  -825.580274c -6.36  -3.89    +57.4552
iter: 130 22:47:13  -825.580820c -6.19  -4.03c   +57.4891
iter: 131 22:49:19  -825.581184c -6.18  -4.20c   +57.5145
iter: 132 22:51:26  -825.581173c -6.76  -4.19c   +57.5056
iter: 133 22:53:33  -825.581336c -6.58  -4.24c   +57.5311
iter: 134 22:55:39  -825.581381c -6.92  -4.29c   +57.5272
iter: 135 22:57:45  -825.582060c -6.22  -4.34c   +57.5411
iter: 136 22:59:52  -825.581549c -6.62  -4.23c   +57.5378
iter: 137 23:01:59  -825.581183c -5.99  -4.41c   +57.5551
iter: 138 23:04:05  -825.581565c -6.67  -4.20c   +57.5705
iter: 139 23:06:11  -825.580869c -6.24  -4.30c   +57.5422
iter: 140 23:08:17  -825.579931c -5.66  -4.19c   +57.4960
iter: 141 23:10:23  -825.579365c -5.56  -4.01c   +57.4393
iter: 142 23:12:30  -825.579313c -5.82  -3.88    +57.4033
iter: 143 23:14:36  -825.579321c -6.40  -3.83    +57.4235
iter: 144 23:16:42  -825.579448c -6.73  -3.95    +57.4134
iter: 145 23:18:48  -825.580481c -5.99  -3.93    +57.4142
iter: 146 23:20:54  -825.579027c -5.80  -3.79    +57.4156
iter: 147 23:23:00  -825.579615c -6.06  -3.84    +57.4304
iter: 148 23:25:06  -825.579859c -6.10  -4.16c   +57.4342
iter: 149 23:27:12  -825.579883c -6.41  -3.96    +57.4361
iter: 150 23:29:20  -825.580434c -6.17  -4.43c   +57.4515
iter: 151 23:32:27  -825.581107c -5.99  -4.46c   +57.4707
iter: 152 23:34:46  -825.581013c -7.06  -4.36c   +57.4714
iter: 153 23:36:52  -825.581255c -6.78  -4.46c   +57.4922
iter: 154 23:38:57  -825.581401c -6.75  -4.44c   +57.4769
iter: 155 23:41:05  -825.582048c -5.79  -4.31c   +57.4498
iter: 156 23:43:10  -825.582175c -6.65  -4.05c   +57.4784
iter: 157 23:45:16  -825.582724c -6.15  -4.11c   +57.4507
iter: 158 23:47:23  -825.582585c -6.20  -3.94    +57.5033
iter: 159 23:49:29  -825.583185c -5.75  -4.10c   +57.4439
iter: 160 23:51:35  -825.583216c -6.22  -3.86    +57.4967
iter: 161 23:53:42  -825.583807c -6.11  -3.96    +57.4639
iter: 162 23:55:48  -825.584356c -6.42  -3.81    +57.4893
iter: 163 23:57:54  -825.584102c -6.73  -3.83    +57.4736
iter: 164 00:00:00  -825.584636c -5.96  -3.83    +57.4992
iter: 165 00:02:06  -825.584843c -6.07  -3.77    +57.4703
iter: 166 00:04:12  -825.584240c -5.37  -3.69    +57.4756
iter: 167 00:06:18  -825.584113c -5.84  -3.70    +57.4844
iter: 168 00:08:24  -825.583953c -6.13  -3.83    +57.4864
iter: 169 00:10:29  -825.584231c -6.56  -4.00    +57.4934
iter: 170 00:12:36  -825.584802c -6.17  -4.01c   +57.5159
iter: 171 00:14:42  -825.585586c -6.07  -4.02c   +57.5301
iter: 172 00:16:48  -825.583475c -5.23  -3.94    +57.4870
iter: 173 00:19:28  -825.580753c -4.74  -4.00c   +57.4195
iter: 174 00:22:15  -825.582878c -5.21  -3.79    +57.4810
iter: 175 00:24:21  -825.582021c -5.97  -3.95    +57.4762
iter: 176 00:26:28  -825.583115c -5.78  -4.01c   +57.4972
iter: 177 00:28:33  -825.582465c -6.62  -3.97    +57.5008
iter: 178 00:30:39  -825.582838c -6.40  -4.36c   +57.5210
iter: 179 00:32:46  -825.582879c -7.02  -4.18c   +57.5168
iter: 180 00:34:52  -825.583237c -6.34  -4.50c   +57.5155
iter: 181 00:36:58  -825.582927c -6.21  -4.41c   +57.5416
iter: 182 00:39:04  -825.583078c -5.90  -4.46c   +57.6055
iter: 183 00:41:10  -825.583595c -5.96  -4.20c   +57.6791
iter: 184 00:43:16  -825.583520c -6.56  -4.04c   +57.6400
iter: 185 00:45:22  -825.584263c -5.52  -4.17c   +57.7841
iter: 186 00:47:27  -825.583929c -5.47  -3.86    +57.6411
iter: 187 00:49:33  -825.584466c -6.22  -4.11c   +57.7327
iter: 188 00:51:39  -825.584425c -6.35  -3.96    +57.6973
iter: 189 00:53:45  -825.584965c -6.04  -4.02c   +57.6988
iter: 190 00:55:50  -825.583586c -5.19  -4.00    +57.7291
iter: 191 00:57:56  -825.584014c -6.16  -3.96    +57.7660
iter: 192 01:00:02  -825.584538c -6.07  -3.90    +57.7818
iter: 193 01:02:34  -825.585395c -5.67  -3.90    +57.7972
iter: 194 01:05:24  -825.584518c -5.95  -3.71    +57.7960
iter: 195 01:07:30  -825.584876c -6.25  -3.97    +57.8121
iter: 196 01:09:36  -825.584784c -6.69  -4.14c   +57.8224
iter: 197 01:11:42  -825.585396c -6.39  -4.22c   +57.8320
iter: 198 01:13:48  -825.585167c -7.55c -4.22c   +57.8314

Converged after 198 iterations.

Dipole moment: (29.231748, -2.725200, -10.146429) |e|*Ang

Total magnetic moment: (0.000000, 0.000000, 57.831404)
Local magnetic moments:
   0 Co ( 0.000000,  0.000000,  1.164996)
   1 Fe ( 0.000000,  0.000000,  2.389040)
   2 Fe ( 0.000000,  0.000000,  2.234617)
   3 Al ( 0.000000,  0.000000, -0.042004)
   4 Fe ( 0.000000,  0.000000,  2.442289)
   5 Co ( 0.000000,  0.000000,  1.444894)
   6 Co ( 0.000000,  0.000000,  0.966514)
   7 Cr ( 0.000000,  0.000000, -2.424726)
   8 Co ( 0.000000,  0.000000,  0.931481)
   9 Al ( 0.000000,  0.000000, -0.006447)
  10 Ni ( 0.000000,  0.000000,  0.164434)
  11 Ni ( 0.000000,  0.000000,  0.160878)
  12 Ni ( 0.000000,  0.000000,  0.185564)
  13 Al ( 0.000000,  0.000000, -0.027304)
  14 Co ( 0.000000,  0.000000,  1.264501)
  15 Fe ( 0.000000,  0.000000,  2.024414)
  16 Co ( 0.000000,  0.000000,  1.323981)
  17 Fe ( 0.000000,  0.000000,  2.257765)
  18 Ni ( 0.000000,  0.000000,  0.257529)
  19 Co ( 0.000000,  0.000000,  1.105558)
  20 Ni ( 0.000000,  0.000000,  0.084683)
  21 Fe ( 0.000000,  0.000000,  2.188968)
  22 Al ( 0.000000,  0.000000, -0.023194)
  23 Co ( 0.000000,  0.000000,  0.875651)
  24 Co ( 0.000000,  0.000000,  0.394618)
  25 Co ( 0.000000,  0.000000,  0.979591)
  26 Cr ( 0.000000,  0.000000, -1.777886)
  27 Ni ( 0.000000,  0.000000,  0.098766)
  28 Al ( 0.000000,  0.000000, -0.017331)
  29 Al ( 0.000000,  0.000000, -0.025107)
  30 Ni ( 0.000000,  0.000000,  0.336260)
  31 Cr ( 0.000000,  0.000000,  1.739739)
  32 Co ( 0.000000,  0.000000,  0.984988)
  33 Cr ( 0.000000,  0.000000, -1.343424)
  34 Cr ( 0.000000,  0.000000, -0.135675)
  35 Co ( 0.000000,  0.000000,  1.013071)
  36 Cr ( 0.000000,  0.000000, -1.504799)
  37 Al ( 0.000000,  0.000000, -0.032565)
  38 Ni ( 0.000000,  0.000000,  0.079669)
  39 Fe ( 0.000000,  0.000000,  2.172283)
  40 Al ( 0.000000,  0.000000, -0.031397)
  41 Cr ( 0.000000,  0.000000, -1.994438)
  42 Al ( 0.000000,  0.000000, -0.022333)
  43 Fe ( 0.000000,  0.000000,  1.954847)
  44 Al ( 0.000000,  0.000000, -0.026904)
  45 Co ( 0.000000,  0.000000,  0.682129)
  46 Fe ( 0.000000,  0.000000,  2.024005)
  47 Ni ( 0.000000,  0.000000,  0.135206)
  48 Ni ( 0.000000,  0.000000,  0.383429)
  49 Ni ( 0.000000,  0.000000,  0.263974)
  50 Fe ( 0.000000,  0.000000,  2.288441)
  51 Fe ( 0.000000,  0.000000,  2.353376)
  52 Co ( 0.000000,  0.000000,  1.193943)
  53 Cr ( 0.000000,  0.000000, -1.834990)
  54 Cr ( 0.000000,  0.000000,  0.756104)
  55 Cr ( 0.000000,  0.000000,  1.005234)
  56 Cr ( 0.000000,  0.000000, -1.638929)
  57 Co ( 0.000000,  0.000000,  1.158325)
  58 Fe ( 0.000000,  0.000000,  2.245921)
  59 Fe ( 0.000000,  0.000000,  2.100705)
  60 Co ( 0.000000,  0.000000,  0.999572)
  61 Fe ( 0.000000,  0.000000,  1.832336)
  62 Al ( 0.000000,  0.000000, -0.021081)
  63 Fe ( 0.000000,  0.000000,  1.863088)
  64 Al ( 0.000000,  0.000000, -0.023611)
  65 Cr ( 0.000000,  0.000000,  0.127766)
  66 Al ( 0.000000,  0.000000, -0.021479)
  67 Fe ( 0.000000,  0.000000,  2.045559)
  68 Fe ( 0.000000,  0.000000,  2.026790)
  69 Ni ( 0.000000,  0.000000,  0.274822)
  70 Ni ( 0.000000,  0.000000,  0.294250)
  71 Cr ( 0.000000,  0.000000,  0.485208)
  72 Ni ( 0.000000,  0.000000,  0.240552)
  73 Ni ( 0.000000,  0.000000,  0.170446)
  74 Co ( 0.000000,  0.000000,  1.289055)
  75 Co ( 0.000000,  0.000000,  1.315572)
  76 Ni ( 0.000000,  0.000000,  0.152002)
  77 Ni ( 0.000000,  0.000000,  0.411774)
  78 Co ( 0.000000,  0.000000,  1.214479)
  79 Cr ( 0.000000,  0.000000,  1.427288)
  80 Co ( 0.000000,  0.000000,  1.010571)
  81 Al ( 0.000000,  0.000000, -0.028379)
  82 Cr ( 0.000000,  0.000000,  0.939759)
  83 Ni ( 0.000000,  0.000000,  0.189314)
  84 Cr ( 0.000000,  0.000000, -1.479256)
  85 Cr ( 0.000000,  0.000000, -1.148612)
  86 Ni ( 0.000000,  0.000000,  0.131371)
  87 Co ( 0.000000,  0.000000, -0.131752)
  88 Ni ( 0.000000,  0.000000,  0.165811)
  89 Cr ( 0.000000,  0.000000, -1.721773)
  90 Fe ( 0.000000,  0.000000,  2.387204)
  91 Ni ( 0.000000,  0.000000,  0.142414)
  92 Co ( 0.000000,  0.000000,  1.177403)
  93 Ni ( 0.000000,  0.000000,  0.304906)
  94 Cr ( 0.000000,  0.000000,  1.637578)
  95 Al ( 0.000000,  0.000000, -0.015177)
  96 Cr ( 0.000000,  0.000000,  0.740959)
  97 Cr ( 0.000000,  0.000000, -1.121458)
  98 Fe ( 0.000000,  0.000000,  1.846494)
  99 Fe ( 0.000000,  0.000000,  1.915335)
 100 Fe ( 0.000000,  0.000000, -1.512179)
 101 Cr ( 0.000000,  0.000000, -2.108177)
 102 Al ( 0.000000,  0.000000, -0.005285)
 103 Fe ( 0.000000,  0.000000,  2.201521)
 104 Fe ( 0.000000,  0.000000,  2.458007)
 105 Ni ( 0.000000,  0.000000,  0.247907)
 106 Cr ( 0.000000,  0.000000, -1.202775)
 107 Co ( 0.000000,  0.000000,  0.686752)

Energy contributions relative to reference atoms: (reference = -3382523.201499)

Kinetic:       +206.143603
Potential:     -217.354336
External:        +0.000000
XC:            -845.553012
Entropy (-ST):   -4.258039
Local:          +33.307597
--------------------------
Free energy:   -827.714187
Extrapolated:  -825.585167

Spin contamination: 28.115538 electrons
Showing only first 2 kpts
                      Up                     Down
 Kpt  Band  Eigenvalues  Occupancy  Eigenvalues  Occupancy
  0   470      9.15197    0.99480     10.03161    0.02815
  0   471      9.16522    0.99407     10.04278    0.02525
  0   472      9.18451    0.99282     10.05486    0.02244
  0   473      9.20239    0.99143     10.07384    0.01864

  1   470      9.14770    0.99502     10.03807    0.02644
  1   471      9.16761    0.99393     10.05469    0.02248
  1   472      9.18039    0.99311     10.06559    0.02021
  1   473      9.19593    0.99196     10.07466    0.01849


Fermi level: 9.67746

No gap

Forces in eV/Ang:
  0 Co    0.27367   -0.58801    0.22440
  1 Fe    0.27193   -0.17233    0.06278
  2 Fe   -0.19804   -0.20426   -0.62590
  3 Al    0.30917   -0.06205   -0.23803
  4 Fe    0.34128   -0.05624   -0.74169
  5 Co    0.06296    0.44063   -0.24461
  6 Co    0.24487    0.21023   -0.59194
  7 Cr   -1.04667   -0.98342   -0.73872
  8 Co   -0.60302    0.37208   -0.49388
  9 Al   -0.30662   -0.80013   -1.47417
 10 Ni   -0.22992   -0.33834   -0.42727
 11 Ni   -0.23648   -0.33608   -0.43041
 12 Ni   -0.30979    0.51703    0.10029
 13 Al    0.64044   -0.22047   -0.52599
 14 Co    0.63916    0.19061    0.70488
 15 Fe   -0.15184   -0.16181    0.02907
 16 Co    0.45525    0.03844    0.44848
 17 Fe   -0.35448   -0.83020    0.61146
 18 Ni   -0.51015   -0.25016   -0.06126
 19 Co    0.04186   -0.29532    0.21774
 20 Ni   -0.11950   -0.03659   -0.35977
 21 Fe   -0.13536    0.54066   -0.27303
 22 Al    0.42655   -0.03355   -0.81570
 23 Co   -0.25900    0.60813   -0.40973
 24 Co    0.14702   -0.09233   -0.03520
 25 Co    0.16749   -0.17181   -0.27023
 26 Cr   -0.63515    0.20801    0.06785
 27 Ni    0.72818    0.44902   -0.23116
 28 Al   -0.73816    0.18447    0.12034
 29 Al   -0.43663    0.40884   -0.99077
 30 Ni   -0.21590    0.09832    0.37842
 31 Cr    0.91409    1.35750   -0.49604
 32 Co    0.55760   -0.24915    0.21971
 33 Cr    0.32204   -0.15451   -0.70112
 34 Cr   -0.47019    0.66617   -0.24985
 35 Co   -0.26069    0.14264    0.22489
 36 Cr   -0.04105   -0.69390   -0.82550
 37 Al    0.09437   -0.04669    0.05371
 38 Ni    0.49354    0.00806    0.18582
 39 Fe    0.74897    0.56554   -0.23577
 40 Al   -0.38542    0.91154   -0.40781
 41 Cr   -0.50293    1.42521    0.18342
 42 Al    0.39474    0.05767    0.94921
 43 Fe   -0.68546    0.73622   -0.00105
 44 Al    0.76799   -0.14794   -0.07959
 45 Co    0.02674    0.41148    0.44079
 46 Fe   -0.29188   -0.32357    0.32398
 47 Ni   -0.16406   -0.17476    0.05448
 48 Ni    0.47602    0.39238   -0.15877
 49 Ni    0.30811    0.31173   -0.34472
 50 Fe    0.80075    0.37955   -0.21830
 51 Fe    1.19276   -0.22168    0.22816
 52 Co   -0.28230   -0.04020    0.11933
 53 Cr   -0.17259   -0.78666   -0.09160
 54 Cr    0.12813    0.35498    0.26294
 55 Cr   -0.05545   -0.55556    0.23364
 56 Cr   -0.89997    0.55388    1.22562
 57 Co    0.01649    0.22068    0.23968
 58 Fe   -0.85753    0.10764    0.30783
 59 Fe   -0.42439    0.80950    0.82277
 60 Co    0.28145   -0.06567   -0.20395
 61 Fe   -0.21508   -0.19652    0.08225
 62 Al    0.24704   -0.65072   -0.55432
 63 Fe    0.01243   -0.25442    0.14198
 64 Al    0.08468   -1.01360    0.88736
 65 Cr   -0.64065   -0.83034    0.86850
 66 Al    1.04169   -0.02868    0.26495
 67 Fe    0.21276   -0.78194    0.05038
 68 Fe   -0.39516    0.05325    0.52961
 69 Ni    0.07088   -0.62741   -0.07993
 70 Ni   -0.60176    0.00295   -0.08214
 71 Cr    0.25033   -0.82998   -0.17328
 72 Ni    0.12760   -0.06660    0.20162
 73 Ni   -0.39863   -0.16041   -0.07463
 74 Co    0.37464   -0.47010    0.08121
 75 Co    0.33215    0.08591    0.16010
 76 Ni   -0.09398   -0.17263    0.18120
 77 Ni    0.46402   -0.45870    0.09203
 78 Co    0.16254    0.18800    0.49736
 79 Cr   -0.32484    0.38999   -0.09779
 80 Co   -0.02043   -0.08173    0.55444
 81 Al   -0.62470    0.14105    0.36971
 82 Cr    0.09829   -0.84041    0.06448
 83 Ni   -0.65137    0.19595    0.14067
 84 Cr    0.52514    0.04099    0.30819
 85 Cr    0.47194    0.08723    0.94196
 86 Ni    0.22933    0.12375   -0.24233
 87 Co   -0.20250    0.58863   -0.00389
 88 Ni   -0.07200   -0.08244   -0.26672
 89 Cr   -0.79289   -1.14151   -0.80845
 90 Fe    0.36539   -0.02206    0.38240
 91 Ni    0.70608   -0.03682   -0.26941
 92 Co   -0.10999   -0.23877    0.42383
 93 Ni    0.40784   -0.10938   -0.20420
 94 Cr    0.19958    0.40652    0.58254
 95 Al   -1.48160   -0.04395   -0.90457
 96 Cr   -0.22403    0.19107    0.70329
 97 Cr    0.41462    0.22443    0.46108
 98 Fe    0.10838    0.23701   -0.19252
 99 Fe    0.38172    0.01906    0.44681
100 Fe   -0.42845    0.54605   -0.28349
101 Cr   -0.37994    0.99488    0.32187
102 Al    1.19971   -0.13883   -1.10524
103 Fe   -0.17216   -0.16882    0.60162
104 Fe    0.01158   -0.12752   -0.58954
105 Ni    0.00974    0.25039    0.09369
106 Cr   -0.68510    0.34148    0.45687
107 Co   -0.28325   -0.12096    0.00069

Timing:                              incl.     excl.
-----------------------------------------------------------
Forces:                             19.369    19.369   0.1% |
Hamiltonian:                         0.839     0.006   0.0% |
 Atomic:                             0.362     0.058   0.0% |
  XC Correction:                     0.304     0.304   0.0% |
 Calculate atomic Hamiltonians:      0.340     0.340   0.0% |
 Communicate:                        0.006     0.006   0.0% |
 Initialize Hamiltonian:             0.000     0.000   0.0% |
 Poisson:                            0.001     0.001   0.0% |
 XC 3D grid:                         0.124     0.124   0.0% |
LCAO initialization:               151.899     1.213   0.0% |
 LCAO eigensolver:                  22.991     0.034   0.0% |
  Calculate projections:             0.617     0.617   0.0% |
  DenseAtomicCorrection:             0.813     0.813   0.0% |
  Distribute overlap matrix:         0.345     0.345   0.0% |
  Orbital Layouts:                  14.045    14.045   0.1% |
  Potential matrix:                  5.765     5.765   0.0% |
  Sum over cells:                    1.373     1.373   0.0% |
 LCAO to grid:                     125.481   125.481   0.5% |
 Set positions (LCAO WFS):           2.213     0.868   0.0% |
  Basic WFS set positions:           0.003     0.003   0.0% |
  Basis functions set positions:     0.001     0.001   0.0% |
  P tci:                             0.840     0.840   0.0% |
  ST tci:                            0.228     0.228   0.0% |
  mktci:                             0.273     0.273   0.0% |
PWDescriptor:                        0.110     0.110   0.0% |
SCF-cycle:                       25992.335     2.444   0.0% |
 Davidson:                       25518.104  4663.456  17.8% |------|
  Apply H:                         192.158   183.859   0.7% |
   HMM T:                            8.299     8.299   0.0% |
  Subspace diag:                  1880.523     0.260   0.0% |
   calc_h_matrix:                  753.172   453.306   1.7% ||
    Apply H:                       299.866   290.945   1.1% |
     HMM T:                          8.922     8.922   0.0% |
   diagonalize:                    342.231   342.231   1.3% ||
   rotate_psi:                     784.859   784.859   3.0% ||
  calc. matrices:                 3795.234  3391.423  13.0% |----|
   Apply H:                        403.811   387.138   1.5% ||
    HMM T:                          16.673    16.673   0.1% |
  diagonalize:                   13254.941 13254.941  50.7% |-------------------|
  rotate_psi:                     1731.792  1731.792   6.6% |--|
 Density:                          263.486     0.009   0.0% |
  Atomic density matrices:           5.599     5.599   0.0% |
  Mix:                             118.501   118.501   0.5% |
  Multipole moments:                 0.107     0.107   0.0% |
  Pseudo density:                  139.271   139.260   0.5% |
   Symmetrize density:               0.011     0.011   0.0% |
 Hamiltonian:                      198.083     1.214   0.0% |
  Atomic:                           71.941    11.984   0.0% |
   XC Correction:                   59.957    59.957   0.2% |
  Calculate atomic Hamiltonians:    98.780    98.780   0.4% |
  Communicate:                       0.740     0.740   0.0% |
  Poisson:                           0.156     0.156   0.0% |
  XC 3D grid:                       25.252    25.252   0.1% |
 Orthonormalize:                    10.218     0.002   0.0% |
  calc_s_matrix:                     1.425     1.425   0.0% |
  inverse-cholesky:                  0.683     0.683   0.0% |
  projections:                       5.984     5.984   0.0% |
  rotate_psi_s:                      2.124     2.124   0.0% |
Set symmetry:                        0.001     0.001   0.0% |
Other:                               3.366     3.366   0.0% |
-----------------------------------------------------------
Total:                                     26167.918 100.0%

Date: Sat Apr 15 01:14:09 2023
