
  ___ ___ ___ _ _ _  
 |   |   |_  | | | | 
 | | | | | . | | | | 
 |__ |  _|___|_____|  22.8.0
 |___|_|             

User:   c.zeng@d0117
Date:   Mon Apr 17 04:38:36 2023
Arch:   x86_64
Pid:    36771
CWD:    /home/c.zeng/projects/hea-corrosion/hea-mlp/data-curation/surface-md/dft-jobs/2
Python: 3.8.1
gpaw:   /home/c.zeng/usr/installs/gpaw/source/gpaw-22.8.0/gpaw
_gpaw:  /home/c.zeng/usr/installs/gpaw/source/gpaw-22.8.0/
        _gpaw.cpython-38-x86_64-linux-gnu.so
ase:    /home/c.zeng/.local/lib/python3.8/site-packages/ase-3.22.1-py3.8.egg/ase (version 3.22.1)
numpy:  /home/c.zeng/.local/lib/python3.8/site-packages/numpy (version 1.24.2)
scipy:  /home/c.zeng/.local/lib/python3.8/site-packages/scipy (version 1.10.1)
libxc:  4.2.3
units:  Angstrom and eV
cores: 30
OpenMP: False
OMP_NUM_THREADS: 1

Input parameters:
  convergence: {energy: 0.0001}
  kpts: [2 2 1]
  maxiter: 666
  mode: {ecut: 350.0,
         name: pw}
  occupations: {fixmagmom: False,
                name: fermi-dirac,
                width: 0.1}
  poissonsolver: {dipolelayer: xy}
  spinpol: True
  symmetry: {point_group: False}
  xc: PBE

System changes: positions, numbers, cell, pbc, initial_charges, initial_magmoms 

Initialize ...

species:
  Cr:
    name: Chromium
    id: 33f258bda2ca9f93018e70263a35547b
    Z: 24.0
    valence: 6
    core: 18
    charge: 0.0
    file: /home/c.zeng/usr/data/gpaw-setups-0.9.20000/Cr.PBE.gz
    compensation charges: {type: gauss,
                           rc: 0.35,
                           lmax: 2}
    cutoffs: {filter: 2.14,
              core: 3.04}
    valence states:
      #              energy  rcut
      - 4s(1.00)    -4.007   1.164
      - 4p(0.00)    -0.989   1.217
      - 3d(5.00)    -2.913   1.111
      -  s          23.205   1.164
      -  p          26.223   1.217
      -  d          24.299   1.111
  
    # Using partial waves for Cr as LCAO basis

  Fe:
    name: Iron
    id: 37abbd8d6c3c35915a9b583b742da910
    Z: 26.0
    valence: 8
    core: 18
    charge: 0.0
    file: /home/c.zeng/usr/data/gpaw-setups-0.9.20000/Fe.PBE.gz
    compensation charges: {type: gauss,
                           rc: 0.33,
                           lmax: 2}
    cutoffs: {filter: 2.06,
              core: 2.67}
    valence states:
      #              energy  rcut
      - 4s(2.00)    -5.291   1.164
      - 4p(0.00)    -1.326   1.058
      - 3d(6.00)    -7.505   1.058
      -  s          21.920   1.164
      -  p          25.885   1.058
      -  d          19.706   1.058
  
    # Using partial waves for Fe as LCAO basis

  Ni:
    name: Nickel
    id: 0d9f38a9d6e76a2886f07bb4381f212b
    Z: 28.0
    valence: 16
    core: 12
    charge: 0.0
    file: /home/c.zeng/usr/data/gpaw-setups-0.9.20000/Ni.PBE.gz
    compensation charges: {type: gauss,
                           rc: 0.36,
                           lmax: 2}
    cutoffs: {filter: 2.14,
              core: 1.98}
    valence states:
      #              energy  rcut
      - 4s(2.00)    -5.642   1.164
      - 3p(6.00)   -71.394   1.207
      - 4p(0.00)    -1.226   1.207
      - 3d(8.00)    -8.875   1.138
      -  s          21.570   1.164
      -  d          18.337   1.138
  
    # Using partial waves for Ni as LCAO basis

  Co:
    name: Cobalt
    id: 339d20d5b0b93d2de9531a1bee871d91
    Z: 27.0
    valence: 9
    core: 18
    charge: 0.0
    file: /home/c.zeng/usr/data/gpaw-setups-0.9.20000/Co.PBE.gz
    compensation charges: {type: gauss,
                           rc: 0.32,
                           lmax: 2}
    cutoffs: {filter: 1.87,
              core: 2.55}
    valence states:
      #              energy  rcut
      - 4s(2.00)    -5.469   1.005
      - 4p(0.00)    -1.277   1.058
      - 3d(7.00)    -8.205   1.005
      -  s          21.742   1.005
      -  p          25.934   1.058
      -  d          19.007   1.005
  
    # Using partial waves for Co as LCAO basis

Reference energy: -4451268.207082  # eV

Spin-polarized calculation.
Magnetic moment: 175.600000

Convergence criteria:
 Maximum [total energy] change in last 3 cyles: 0.0001 eV / electron
 Maximum integral of absolute [dens]ity change: 0.0001 electrons / valence electron
 Maximum integral of absolute [eigenst]ate change: 4e-08 eV^2 / valence electron
 Maximum number of scf [iter]ations: 666
 (Square brackets indicate name in SCF output, whereas a 'c' in
 the SCF output indicates the quantity has converged.)

Symmetries present (total): 1

  ( 1  0  0)
  ( 0  1  0)
  ( 0  0  1)

4 k-points: 2 x 2 x 1 Monkhorst-Pack grid
2 k-points in the irreducible part of the Brillouin zone
       k-points in crystal coordinates                weights
   0:     0.25000000   -0.25000000    0.00000000          2/4
   1:     0.25000000    0.25000000    0.00000000          2/4

Wave functions: Plane wave expansion
  Cutoff energy: 350.000 eV
  Number of coefficients (min, max): 58495, 58567
  Pulay-stress correction: 0.000000 eV/Ang^3 (de/decut=0.000000)
  Using FFTW library
  ScaLapack parameters: grid=1x1, blocksize=None
  Wavefunction extrapolation:
    Improved wavefunction reuse through dual PAW basis 

Occupation numbers: Fermi-Dirac:
  width: 0.1000  # eV
 

Eigensolver
   Davidson(niter=2) 

Densities:
  Coarse grid: 54*54*128 grid
  Fine grid: 108*108*256 grid
  Total Charge: 0.000000 

Density mixing:
  Method: difference
  Backend: pulay
  Linear mixing parameter: 0.05
  old densities: 5
  Damping of long wavelength oscillations: 50 

Hamiltonian:
  XC and Coulomb potentials evaluated on a 108*108*256 grid
  Using the PBE Exchange-Correlation functional
  External potential:
    NoExternalPotential
 

XC parameters: PBE with 2 nearest neighbor stencil

Memory estimate:
  Process memory now: 366.32 MiB
  Calculator: 2405.48 MiB
    Density: 16.73 MiB
      Arrays: 6.75 MiB
      Localized functions: 7.29 MiB
      Mixer: 2.70 MiB
    Hamiltonian: 5.22 MiB
      Arrays: 5.01 MiB
      XC: 0.00 MiB
      Poisson: 0.00 MiB
      vbar: 0.21 MiB
    Wavefunctions: 2383.52 MiB
      Arrays psit_nG: 1501.35 MiB
      Eigensolver: 862.84 MiB
      Projections: 3.85 MiB
      Projectors: 0.98 MiB
      PW-descriptor: 14.51 MiB

Total number of cores used: 30
Parallelization over k-points: 2
Domain decomposition: 1 x 3 x 5

Number of atoms: 125
Number of atomic orbitals: 1218
Number of bands in calculation: 840
Number of valence electrons: 1217
Bands to converge: occupied

... initialized

Initializing position-dependent things.

Density initialized from atomic densities
Creating initial wave functions:
  840 bands from LCAO basis set

                                                                  
                                                                  
                                                                  
                                                                  
                                    Co    Ni          Co          
                        Ni                 Cr                     
                           Ni Ni Cr  Co      Cr  Cr               
                    Cr          Co    FCo   Co    Fe    Co        
                Co    Ni   CNi    Ni   FCr   Fe    Fe             
            Co    Ni   NFe   CNi    Cr    Fe                      
       Co                    Cr    Fe    Ni    Ni    Fe           
                   Fe    NFe  NCo   CFe    Co    Cr               
               Ni   CNi   CFe    Co    Fe             Fe          
                               NCo   CFe    NCo  Fe     Cr        
                Fe   FCo   Co    Co    NCr   Co   Fe              
           Co    Fe   NCr    FeNi   CrCr    Ni          Cr        
                 Ni        Ni    NiFe   FCr   Cr    Cr            
            Fe    Co   CFe   CrCr   CFe   Fe    Ni                
                   FCo    Cr          CCo                         
              Co         Cr    Cr          Cr                     
               Fe   Ni     Co    Ni   Cr                          
                                                                  
                                                                  
                                                                  
                                                                  
                                                                  

Positions:
   0 Cr    12.267895    1.304516   10.348455    ( 0.0000,  0.0000,  0.0000)
   1 Fe     2.615387    1.338240   10.144918    ( 0.0000,  0.0000,  2.0000)
   2 Ni     4.883891    1.351233   10.538886    ( 0.0000,  0.0000,  1.5000)
   3 Co     7.590820    1.413945   10.652142    ( 0.0000,  0.0000,  2.1000)
   4 Ni     9.963427    1.599128   10.492899    ( 0.0000,  0.0000,  1.5000)
   5 Cr    13.666979    3.534189   10.422867    ( 0.0000,  0.0000,  0.0000)
   6 Fe     3.708833    3.550264   10.573507    ( 0.0000,  0.0000,  2.0000)
   7 Cr     6.090383    3.386489   10.462953    ( 0.0000,  0.0000,  0.0000)
   8 Cr     8.599050    3.569893   10.322747    ( 0.0000,  0.0000,  0.0000)
   9 Cr    11.326494    3.746805   10.568320    ( 0.0000,  0.0000,  0.0000)
  10 Ni    14.986332    5.647629   10.615313    ( 0.0000,  0.0000,  1.5000)
  11 Cr     4.989716    5.664512   10.507059    ( 0.0000,  0.0000,  0.0000)
  12 Cr     7.500512    5.787010   10.741332    ( 0.0000,  0.0000,  0.0000)
  13 Cr    10.000274    5.685542   10.661394    ( 0.0000,  0.0000,  0.0000)
  14 Fe    12.682789    5.915557   10.671217    ( 0.0000,  0.0000,  2.0000)
  15 Cr    16.242993    7.949896   10.479531    ( 0.0000,  0.0000,  0.0000)
  16 Ni     6.194846    7.851741   10.573336    ( 0.0000,  0.0000,  1.5000)
  17 Ni     8.574006    7.911391   10.691255    ( 0.0000,  0.0000,  1.5000)
  18 Fe    11.286115    7.879003   10.605755    ( 0.0000,  0.0000,  2.0000)
  19 Cr    13.894773    8.060787   10.596910    ( 0.0000,  0.0000,  0.0000)
  20 Cr    17.336868   10.252720   10.259095    ( 0.0000,  0.0000,  0.0000)
  21 Ni     7.291158   10.060411   10.157451    ( 0.0000,  0.0000,  1.5000)
  22 Cr    10.029171    9.783271   10.029657    ( 0.0000,  0.0000,  0.0000)
  23 Ni    12.288652   10.101654   10.333958    ( 0.0000,  0.0000,  1.5000)
  24 Fe    14.992090   10.172973   10.642238    ( 0.0000,  0.0000,  2.0000)
  25 Co    12.665845   -0.051986   12.566058    ( 0.0000,  0.0000,  2.1000)
  26 Co     2.611307   -0.201894   12.195763    ( 0.0000,  0.0000,  2.1000)
  27 Co     5.024449   -0.190148   12.418706    ( 0.0000,  0.0000,  2.1000)
  28 Cr     7.499722    0.004079   12.549416    ( 0.0000,  0.0000,  0.0000)
  29 Fe    16.243761   10.954245   12.558287    ( 0.0000,  0.0000,  2.0000)
  30 Fe     1.420830    2.107203   12.347735    ( 0.0000,  0.0000,  2.0000)
  31 Co     3.765699    2.076124   12.536688    ( 0.0000,  0.0000,  2.1000)
  32 Fe     6.086362    2.113209   12.592937    ( 0.0000,  0.0000,  2.0000)
  33 Cr     8.848951    2.317944   12.598782    ( 0.0000,  0.0000,  0.0000)
  34 Fe    11.332162    2.136038   12.509127    ( 0.0000,  0.0000,  2.0000)
  35 Ni     2.705167    4.440067   12.543054    ( 0.0000,  0.0000,  1.5000)
  36 Ni     4.985943    4.296660   12.723747    ( 0.0000,  0.0000,  1.5000)
  37 Cr     7.481568    4.546182   12.678752    ( 0.0000,  0.0000,  0.0000)
  38 Fe    10.005899    4.352296   12.576352    ( 0.0000,  0.0000,  2.0000)
  39 Cr    12.606061    4.197098   12.592509    ( 0.0000,  0.0000,  0.0000)
  40 Fe     3.857783    6.503841   12.535581    ( 0.0000,  0.0000,  2.0000)
  41 Ni     6.128004    6.588993   12.742451    ( 0.0000,  0.0000,  1.5000)
  42 Co     8.855501    6.700403   12.862170    ( 0.0000,  0.0000,  2.1000)
  43 Ni    11.284736    6.421988   12.720634    ( 0.0000,  0.0000,  1.5000)
  44 Co    13.860195    6.425455   12.653451    ( 0.0000,  0.0000,  2.1000)
  45 Cr    17.453013    8.924188   12.629467    ( 0.0000,  0.0000,  0.0000)
  46 Ni     7.413534    8.747721   12.541026    ( 0.0000,  0.0000,  1.5000)
  47 Co    10.076124    8.505852   12.656900    ( 0.0000,  0.0000,  2.1000)
  48 Ni    12.580489    8.531954   12.572974    ( 0.0000,  0.0000,  1.5000)
  49 Fe    14.958833    8.770112   12.745168    ( 0.0000,  0.0000,  2.0000)
  50 Co     1.299909    0.849090   14.652425    ( 0.0000,  0.0000,  2.1000)
  51 Fe     3.724047    0.653302   14.603150    ( 0.0000,  0.0000,  2.0000)
  52 Cr     6.176955    0.574293   14.706388    ( 0.0000,  0.0000,  0.0000)
  53 Fe     8.642969    0.631616   14.602851    ( 0.0000,  0.0000,  2.0000)
  54 Cr    11.244658    0.729869   14.800014    ( 0.0000,  0.0000,  0.0000)
  55 Fe     2.636470    2.946567   14.412652    ( 0.0000,  0.0000,  2.0000)
  56 Co     5.029564    2.730629   14.743949    ( 0.0000,  0.0000,  2.1000)
  57 Co     7.365061    2.786403   14.580273    ( 0.0000,  0.0000,  2.1000)
  58 Co     9.864749    2.644689   14.657914    ( 0.0000,  0.0000,  2.1000)
  59 Cr    12.410057    2.966811   14.749665    ( 0.0000,  0.0000,  0.0000)
  60 Co     3.957749    5.125975   14.812399    ( 0.0000,  0.0000,  2.1000)
  61 Cr     6.274763    5.098500   14.933059    ( 0.0000,  0.0000,  0.0000)
  62 Co     8.779124    4.907482   14.623825    ( 0.0000,  0.0000,  2.1000)
  63 Fe    11.194502    5.051573   14.604259    ( 0.0000,  0.0000,  2.0000)
  64 Co    13.874930    5.044387   14.538786    ( 0.0000,  0.0000,  2.1000)
  65 Fe     5.115762    7.310674   14.711973    ( 0.0000,  0.0000,  2.0000)
  66 Ni     7.561684    7.189934   14.807881    ( 0.0000,  0.0000,  1.5000)
  67 Cr     9.987995    7.171553   14.787030    ( 0.0000,  0.0000,  0.0000)
  68 Fe    12.569080    7.054274   14.745300    ( 0.0000,  0.0000,  2.0000)
  69 Cr    15.089845    7.191679   14.605286    ( 0.0000,  0.0000,  0.0000)
  70 Cr     6.326041    9.295196   14.795050    ( 0.0000,  0.0000,  0.0000)
  71 Ni     8.857907    9.300713   14.453871    ( 0.0000,  0.0000,  1.5000)
  72 Ni    11.455910    9.255786   14.511036    ( 0.0000,  0.0000,  1.5000)
  73 Co    13.864107    9.401517   14.762905    ( 0.0000,  0.0000,  2.1000)
  74 Fe    16.342213    9.397249   14.741916    ( 0.0000,  0.0000,  2.0000)
  75 Fe    12.419112    1.541017   16.809402    ( 0.0000,  0.0000,  2.0000)
  76 Ni     2.566729    1.552750   16.628335    ( 0.0000,  0.0000,  1.5000)
  77 Ni     4.958473    1.438092   16.778076    ( 0.0000,  0.0000,  1.5000)
  78 Fe     7.478557    1.364830   16.636004    ( 0.0000,  0.0000,  2.0000)
  79 Co     9.849642    1.324083   16.645852    ( 0.0000,  0.0000,  2.1000)
  80 Co    13.672941    3.600910   16.475315    ( 0.0000,  0.0000,  2.1000)
  81 Fe     3.772345    3.556605   16.626640    ( 0.0000,  0.0000,  2.0000)
  82 Ni     6.164661    3.526964   16.863117    ( 0.0000,  0.0000,  1.5000)
  83 Co     8.598618    3.730665   16.715538    ( 0.0000,  0.0000,  2.1000)
  84 Fe    11.076179    3.629480   16.819249    ( 0.0000,  0.0000,  2.0000)
  85 Ni    14.756636    5.672347   16.787854    ( 0.0000,  0.0000,  1.5000)
  86 Ni     4.888519    5.619049   16.994836    ( 0.0000,  0.0000,  1.5000)
  87 Co     7.354428    5.743200   16.912997    ( 0.0000,  0.0000,  2.1000)
  88 Fe     9.884020    5.697792   16.770863    ( 0.0000,  0.0000,  2.0000)
  89 Fe    12.486861    5.782825   16.902100    ( 0.0000,  0.0000,  2.0000)
  90 Fe    15.954510    7.797952   16.793504    ( 0.0000,  0.0000,  2.0000)
  91 Co     5.860073    7.772030   16.879779    ( 0.0000,  0.0000,  2.1000)
  92 Ni     8.645616    7.991114   16.690410    ( 0.0000,  0.0000,  1.5000)
  93 Fe    11.046241    7.854876   16.655977    ( 0.0000,  0.0000,  2.0000)
  94 Fe    13.469109    7.852543   16.889519    ( 0.0000,  0.0000,  2.0000)
  95 Co    17.415516   10.042250   16.803243    ( 0.0000,  0.0000,  2.1000)
  96 Co     7.560023   10.386928   16.802772    ( 0.0000,  0.0000,  2.1000)
  97 Fe     9.931546   10.051143   16.618999    ( 0.0000,  0.0000,  2.0000)
  98 Co    12.572308   10.061105   16.682759    ( 0.0000,  0.0000,  2.1000)
  99 Fe    14.946037    9.924684   16.831250    ( 0.0000,  0.0000,  2.0000)
 100 Co    -0.166796    0.251152   18.870793    ( 0.0000,  0.0000,  2.1000)
 101 Co     8.814130   10.580927   18.894926    ( 0.0000,  0.0000,  2.1000)
 102 Ni    11.255204   10.782997   18.649289    ( 0.0000,  0.0000,  1.5000)
 103 Fe     7.473982   -0.091774   18.829728    ( 0.0000,  0.0000,  2.0000)
 104 Co    16.144486   10.907096   18.800776    ( 0.0000,  0.0000,  2.1000)
 105 Co     1.204811    2.152514   18.789019    ( 0.0000,  0.0000,  2.1000)
 106 Ni     3.850062    2.160433   18.861489    ( 0.0000,  0.0000,  1.5000)
 107 Fe     6.268046    1.936277   18.943774    ( 0.0000,  0.0000,  2.0000)
 108 Ni     8.602060    2.037978   18.752903    ( 0.0000,  0.0000,  1.5000)
 109 Cr    11.035064    2.323171   18.777171    ( 0.0000,  0.0000,  0.0000)
 110 Co     2.518397    4.329871   18.877467    ( 0.0000,  0.0000,  2.1000)
 111 Ni     4.937672    4.409615   19.075112    ( 0.0000,  0.0000,  1.5000)
 112 Ni     7.408939    4.277214   18.770467    ( 0.0000,  0.0000,  1.5000)
 113 Ni     9.832146    4.349659   18.942016    ( 0.0000,  0.0000,  1.5000)
 114 Cr    12.181712    4.367366   18.958858    ( 0.0000,  0.0000,  0.0000)
 115 Cr     3.673662    6.470303   18.651332    ( 0.0000,  0.0000,  0.0000)
 116 Ni     6.195845    6.540214   19.011723    ( 0.0000,  0.0000,  1.5000)
 117 Cr     8.640260    6.663818   19.117358    ( 0.0000,  0.0000,  0.0000)
 118 Co    11.096708    6.517314   18.629125    ( 0.0000,  0.0000,  2.1000)
 119 Cr    13.534446    6.422599   19.054410    ( 0.0000,  0.0000,  0.0000)
 120 Ni     4.736611    8.718687   19.060745    ( 0.0000,  0.0000,  1.5000)
 121 Ni     7.047323    8.809713   18.622959    ( 0.0000,  0.0000,  1.5000)
 122 Co     9.890700    8.592265   18.658653    ( 0.0000,  0.0000,  2.1000)
 123 Cr    12.411784    8.665200   18.856604    ( 0.0000,  0.0000,  0.0000)
 124 Cr    14.782685    8.425271   18.793267    ( 0.0000,  0.0000,  0.0000)

Unit cell:
           periodic     x           y           z      points  spacing
  1. axis:    yes   12.446800    0.000000    0.000000    54     0.1996
  2. axis:    yes    6.223010   10.778600    0.000000    54     0.1996
  3. axis:    no     0.000000    0.000000   29.353100   128     0.2293

  Lengths:  12.446800  12.446046  29.353100
  Angles:   90.000000  90.000000  60.000070

Effective grid spacing dv^(1/3) = 0.2193

     iter     time        total  log10-change:  magmom
                         energy  eigst   dens
iter:   1 04:46:14 -1250.840560                  +175.9175
iter:   2 04:48:50 -1189.933577  -0.02  -1.11    +97.1875
iter:   3 04:51:27 -1601.425157  -0.36  -1.07    +80.0921
iter:   4 04:54:03 -2102.865999  +0.43  -0.90    +72.2157
iter:   5 04:56:40 -1081.192286  -0.59  -0.77    +43.6639
iter:   6 04:59:16 -1057.581555  -1.46  -1.23    +39.9627
iter:   7 05:01:52 -1056.453806  -1.90  -1.25    +40.4417
iter:   8 05:04:28 -1028.018429  -1.64  -1.24    +41.6023
iter:   9 05:07:05 -1577.636399  -0.14  -1.32    +42.9991
iter:  10 05:09:41 -1035.738462  -0.71  -0.91    +40.4437
iter:  11 05:12:18 -1022.068485  -1.26  -1.32    +39.4349
iter:  12 05:14:55  -987.781895  -1.64  -1.43    +40.4018
iter:  13 05:17:31  -996.132196  -1.57  -1.57    +41.4202
iter:  14 05:20:07 -1092.292567  -1.41  -1.53    +42.4772
iter:  15 05:22:43 -1034.637945  -1.30  -1.19    +41.7456
iter:  16 05:25:20  -981.682038  -1.73  -1.37    +39.8941
iter:  17 05:27:57  -987.937477  -2.23  -1.64    +42.0114
iter:  18 05:30:33  -980.758074  -2.48  -1.59    +45.0440
iter:  19 05:33:10  -977.976349  -2.69  -1.68    +49.1696
iter:  20 05:35:47  -976.828835  -2.87  -1.74    +51.6557
iter:  21 05:38:23  -985.461319  -2.00  -1.79    +56.9090
iter:  22 05:40:59 -1009.850400  -1.98  -1.71    +56.0693
iter:  23 05:43:36  -978.748895  -2.19  -1.46    +58.4420
iter:  24 05:46:12  -976.503388  -2.60  -1.88    +59.7234
iter:  25 05:48:49  -978.412251  -2.34  -2.02    +60.6629
iter:  26 05:51:25  -975.817556  -2.71  -1.97    +62.9081
iter:  27 05:54:02  -976.801263  -2.90  -2.12    +64.0312
iter:  28 05:56:39  -976.838964  -3.04  -2.12    +65.9034
iter:  29 05:59:15  -979.884131  -2.83  -2.17    +68.3121
iter:  30 06:01:52  -980.908046  -2.72  -2.00    +69.2684
iter:  31 06:04:28  -979.575621  -2.74  -1.98    +71.2660
iter:  32 06:07:05  -979.017347  -2.90  -2.12    +71.9252
iter:  33 06:09:42  -978.917196  -3.17  -2.28    +72.5562
iter:  34 06:12:18  -979.906265  -3.08  -2.38    +74.0212
iter:  35 06:14:55  -979.682778  -3.57  -2.25    +74.4767
iter:  36 06:17:32  -983.547710  -2.76  -2.35    +75.6590
iter:  37 06:20:08  -981.630713  -2.91  -1.98    +75.7489
iter:  38 06:22:45  -980.912001  -3.36  -2.09    +75.9012
iter:  39 06:25:21  -980.617893  -3.01  -2.24    +75.6799
iter:  40 06:27:58  -980.939923  -3.44  -2.30    +75.4105
iter:  41 06:30:34  -980.745539  -3.70  -2.23    +74.7262
iter:  42 06:33:11  -996.958812  -2.34  -2.29    +74.4931
iter:  43 06:35:48  -981.101149  -2.57  -1.66    +74.6465
iter:  44 06:38:24  -980.986418  -3.49  -2.24    +74.2089
iter:  45 06:40:59  -981.056344c -3.51  -2.29    +73.9941
iter:  46 06:43:32  -980.679299  -3.45  -2.31    +73.7900
iter:  47 06:46:07  -980.518620  -3.54  -2.47    +73.7096
iter:  48 06:48:42  -981.658588  -3.17  -2.56    +73.8517
iter:  49 06:51:16  -980.618482  -3.47  -2.21    +73.5694
iter:  50 06:53:51  -980.472611  -4.16  -2.53    +73.7510
iter:  51 06:56:27  -980.519239  -4.47  -2.78    +73.8707
iter:  52 06:59:02  -980.612956  -4.02  -2.77    +74.3074
iter:  53 07:01:37  -980.631692c -4.23  -2.78    +74.5527
iter:  54 07:04:12  -980.748346  -4.28  -2.87    +74.7741
iter:  55 07:06:46  -980.972745  -3.88  -2.73    +74.7356
iter:  56 07:09:21  -980.758315  -4.11  -2.56    +74.7919
iter:  57 07:11:56  -980.780397  -4.35  -2.82    +74.9959
iter:  58 07:14:30  -980.833905c -4.40  -2.91    +75.1533
iter:  59 07:17:05  -980.877241c -4.49  -2.87    +75.2044
iter:  60 07:19:40  -980.942329c -4.38  -2.82    +75.2614
iter:  61 07:22:14  -981.557024  -3.17  -2.75    +75.4578
iter:  62 07:24:49  -980.977828  -3.70  -2.43    +75.4054
iter:  63 07:27:24  -980.992484  -4.55  -2.75    +75.5319
iter:  64 07:29:59  -980.966306c -4.69  -2.79    +75.5715
iter:  65 07:32:34  -981.006862c -4.08  -2.87    +75.7196
iter:  66 07:35:08  -980.991385c -4.40  -2.83    +75.7518
iter:  67 07:37:43  -981.024550c -4.57  -2.83    +75.6060
iter:  68 07:40:17  -981.167101  -4.03  -2.78    +75.4732
iter:  69 07:42:52  -980.977450  -4.25  -2.61    +75.5166
iter:  70 07:45:27  -980.993668  -4.36  -2.97    +75.5367
iter:  71 07:48:01  -980.979798c -4.41  -2.99    +75.5945
iter:  72 07:50:36  -981.021932c -4.33  -3.11    +75.6647
iter:  73 07:53:11  -980.991380c -4.68  -2.93    +75.7854
iter:  74 07:55:46  -981.013342c -4.56  -3.10    +75.9965
iter:  75 07:58:21  -980.998446c -5.15  -2.99    +75.9203
iter:  76 08:00:56  -981.005856c -5.26  -3.17    +75.9244
iter:  77 08:03:31  -981.014543c -4.89  -3.16    +75.9506
iter:  78 08:06:06  -981.012436c -5.44  -3.17    +75.9773
iter:  79 08:08:40  -981.151918  -4.31  -3.25    +76.0545
iter:  80 08:11:15  -981.023638  -4.61  -2.72    +76.0360
iter:  81 08:13:50  -981.033685  -5.19  -3.18    +76.1056
iter:  82 08:16:23  -980.998703c -4.43  -3.17    +75.8240
iter:  83 08:18:57  -980.986564c -4.69  -3.25    +75.7421
iter:  84 08:21:31  -980.990083c -5.41  -3.26    +75.7799
iter:  85 08:24:04  -980.990056c -5.98  -3.36    +75.7983
iter:  86 08:26:38  -980.998645c -5.42  -3.37    +75.9301
iter:  87 08:29:11  -981.002290c -5.50  -3.36    +75.9608
iter:  88 08:31:45  -981.029860c -5.06  -3.35    +76.0301
iter:  89 08:34:19  -981.013686c -5.13  -3.04    +76.0820
iter:  90 08:36:52  -981.031437c -4.90  -3.26    +76.1316
iter:  91 08:39:26  -981.020287c -5.03  -3.21    +76.1548
iter:  92 08:41:59  -981.032304c -5.18  -3.33    +76.2156
iter:  93 08:44:32  -981.035546c -5.62  -3.24    +76.2352
iter:  94 08:47:05  -981.034244c -6.00  -3.26    +76.2118
iter:  95 08:49:37  -981.044771c -5.36  -3.31    +76.2553
iter:  96 08:52:10  -981.040161c -4.77  -3.25    +76.2615
iter:  97 08:54:42  -981.063573c -4.65  -3.17    +76.3864
iter:  98 08:57:13  -981.052323c -5.08  -3.08    +76.3997
iter:  99 08:59:44  -981.075230c -4.78  -3.34    +76.4843
iter: 100 09:02:16  -981.066223c -4.84  -3.16    +76.5564
iter: 101 09:04:48  -981.071716c -4.79  -3.37    +76.5289
iter: 102 09:07:19  -981.069524c -5.34  -3.24    +76.5743
iter: 103 09:09:50  -981.093958c -4.91  -3.52    +76.6509
iter: 104 09:12:22  -981.075987c -5.49  -3.14    +76.6817
iter: 105 09:14:53  -981.083114c -5.32  -3.61    +76.7583
iter: 106 09:17:24  -981.101335c -4.80  -3.67    +76.9397
iter: 107 09:19:56  -981.109435c -5.33  -3.48    +77.0030
iter: 108 09:22:27  -981.099884c -5.52  -3.46    +76.9077
iter: 109 09:24:58  -981.108965c -4.97  -3.59    +76.7550
iter: 110 09:27:30  -981.104658c -5.34  -3.20    +76.9074
iter: 111 09:30:01  -981.122861c -4.88  -3.59    +76.9313
iter: 112 09:32:33  -981.110107c -5.30  -3.11    +77.0119
iter: 113 09:35:04  -981.115904c -5.11  -3.62    +77.1364
iter: 114 09:37:35  -981.119079c -5.26  -3.48    +77.2147
iter: 115 09:40:07  -981.130313c -5.34  -3.42    +77.2633
iter: 116 09:42:38  -981.123011c -5.77  -3.20    +77.2668
iter: 117 09:45:09  -981.125635c -5.29  -3.46    +77.3212
iter: 118 09:47:40  -981.128390c -5.41  -3.51    +77.3208
iter: 119 09:50:12  -981.130619c -5.43  -3.53    +77.3803
iter: 120 09:52:43  -981.132867c -5.77  -3.44    +77.3873
iter: 121 09:55:14  -981.135726c -5.34  -3.40    +77.4088
iter: 122 09:57:46  -981.143141c -5.47  -3.54    +77.4267
iter: 123 10:00:17  -981.151211c -5.09  -3.30    +77.4582
iter: 124 10:02:48  -981.145782c -5.13  -3.20    +77.5873
iter: 125 10:05:19  -981.144615c -5.29  -3.45    +77.6097
iter: 126 10:07:51  -981.150892c -4.98  -3.59    +77.6440
iter: 127 10:10:22  -981.160681c -5.19  -3.28    +77.6403
iter: 128 10:12:53  -981.147051c -5.43  -3.20    +77.6832
iter: 129 10:15:24  -981.150561c -5.57  -3.57    +77.6957
iter: 130 10:17:56  -981.149484c -5.81  -3.57    +77.6923
iter: 131 10:20:27  -981.150852c -5.97  -3.64    +77.7265
iter: 132 10:22:58  -981.153377c -5.78  -3.69    +77.7567
iter: 133 10:25:29  -981.171869c -5.41  -3.58    +77.7541
iter: 134 10:28:01  -981.153855c -5.37  -3.13    +77.7832
iter: 135 10:30:32  -981.156342c -5.81  -3.49    +77.7888
iter: 136 10:33:03  -981.156210c -6.14  -3.43    +77.7522
iter: 137 10:35:34  -981.160962c -5.37  -3.42    +77.7140
iter: 138 10:38:06  -981.163667c -5.80  -3.27    +77.7234
iter: 139 10:40:37  -981.278530c -4.45  -3.23    +77.6885
iter: 140 10:43:08  -981.155189  -4.77  -2.73    +77.7424
iter: 141 10:45:40  -981.156785  -5.47  -3.43    +77.7428
iter: 142 10:48:11  -981.155030c -5.55  -3.49    +77.7394
iter: 143 10:50:43  -981.156955c -5.52  -3.53    +77.7406
iter: 144 10:53:14  -981.156209c -5.58  -3.62    +77.7651
iter: 145 10:55:46  -981.163184c -5.44  -3.59    +77.7935
iter: 146 10:58:18  -981.159760c -5.47  -3.25    +77.7677
iter: 147 11:00:49  -981.156929c -5.59  -3.56    +77.7826
iter: 148 11:03:21  -981.156481c -5.88  -3.56    +77.8369
iter: 149 11:05:53  -981.155081c -5.79  -3.79    +77.8343
iter: 150 11:08:24  -981.156086c -6.09  -3.74    +77.8408
iter: 151 11:10:55  -981.162139c -5.83  -3.77    +77.8531
iter: 152 11:13:26  -981.155307c -5.91  -3.39    +77.8671
iter: 153 11:15:58  -981.157323c -5.90  -3.74    +77.8723
iter: 154 11:18:29  -981.155205c -6.30  -3.71    +77.8521
iter: 155 11:21:00  -981.157408c -6.12  -3.94    +77.8604
iter: 156 11:23:32  -981.156250c -6.24  -3.79    +77.8644
iter: 157 11:26:03  -981.157229c -6.06  -3.86    +77.8720
iter: 158 11:28:34  -981.156261c -6.53  -3.59    +77.8580
iter: 159 11:31:06  -981.155486c -6.40  -4.04c   +77.8575
iter: 160 11:33:37  -981.156101c -6.81  -3.94    +77.8635
iter: 161 11:36:09  -981.155551c -6.47  -4.07c   +77.8605
iter: 162 11:38:40  -981.155997c -6.64  -3.81    +77.8561
iter: 163 11:41:11  -981.159318c -5.95  -4.00c   +77.8522
iter: 164 11:43:42  -981.155419c -6.29  -3.51    +77.8603
iter: 165 11:46:14  -981.156605c -6.38  -4.02c   +77.8613
iter: 166 11:48:45  -981.155202c -6.53  -3.96    +77.8526
iter: 167 11:51:16  -981.156522c -6.60  -4.13c   +77.8545
iter: 168 11:53:47  -981.155664c -7.24  -3.91    +77.8605
iter: 169 11:56:19  -981.156065c -6.50  -4.17c   +77.8653
iter: 170 11:58:50  -981.156048c -6.75  -3.85    +77.8612
iter: 171 12:01:21  -981.155566c -7.16  -4.10c   +77.8619
iter: 172 12:03:52  -981.156470c -6.73  -4.20c   +77.8684
iter: 173 12:06:23  -981.155899c -6.39  -4.13c   +77.8676
iter: 174 12:08:54  -981.155912c -6.76  -3.79    +77.8614
iter: 175 12:11:26  -981.156388c -6.79  -4.42c   +77.8606
iter: 176 12:13:57  -981.155659c -6.96  -3.94    +77.8630
iter: 177 12:16:28  -981.155762c -7.89c -4.41c   +77.8641

Converged after 177 iterations.

Dipole moment: (64.033932, 43.644335, -0.029149) |e|*Ang

Total magnetic moment: (0.000000, 0.000000, 77.864073)
Local magnetic moments:
   0 Cr ( 0.000000,  0.000000, -1.968831)
   1 Fe ( 0.000000,  0.000000,  2.764710)
   2 Ni ( 0.000000,  0.000000,  0.461959)
   3 Co ( 0.000000,  0.000000,  0.293585)
   4 Ni ( 0.000000,  0.000000,  0.132353)
   5 Cr ( 0.000000,  0.000000, -2.196343)
   6 Fe ( 0.000000,  0.000000,  2.341511)
   7 Cr ( 0.000000,  0.000000, -2.446226)
   8 Cr ( 0.000000,  0.000000,  2.187956)
   9 Cr ( 0.000000,  0.000000,  1.660341)
  10 Ni ( 0.000000,  0.000000,  0.305813)
  11 Cr ( 0.000000,  0.000000, -2.496128)
  12 Cr ( 0.000000,  0.000000,  1.939010)
  13 Cr ( 0.000000,  0.000000, -2.283631)
  14 Fe ( 0.000000,  0.000000,  2.399315)
  15 Cr ( 0.000000,  0.000000,  2.179811)
  16 Ni ( 0.000000,  0.000000,  0.120447)
  17 Ni ( 0.000000,  0.000000,  0.212599)
  18 Fe ( 0.000000,  0.000000,  2.481601)
  19 Cr ( 0.000000,  0.000000, -2.305412)
  20 Cr ( 0.000000,  0.000000,  1.799943)
  21 Ni ( 0.000000,  0.000000,  0.241451)
  22 Cr ( 0.000000,  0.000000, -2.954854)
  23 Ni ( 0.000000,  0.000000,  0.315002)
  24 Fe ( 0.000000,  0.000000,  1.668325)
  25 Co ( 0.000000,  0.000000,  1.092155)
  26 Co ( 0.000000,  0.000000,  1.605000)
  27 Co ( 0.000000,  0.000000,  1.468901)
  28 Cr ( 0.000000,  0.000000, -1.368919)
  29 Fe ( 0.000000,  0.000000,  1.814403)
  30 Fe ( 0.000000,  0.000000,  2.183638)
  31 Co ( 0.000000,  0.000000,  1.515678)
  32 Fe ( 0.000000,  0.000000,  2.267594)
  33 Cr ( 0.000000,  0.000000, -1.494716)
  34 Fe ( 0.000000,  0.000000,  1.869501)
  35 Ni ( 0.000000,  0.000000,  0.393712)
  36 Ni ( 0.000000,  0.000000,  0.222189)
  37 Cr ( 0.000000,  0.000000, -1.629089)
  38 Fe ( 0.000000,  0.000000,  1.560051)
  39 Cr ( 0.000000,  0.000000, -0.816977)
  40 Fe ( 0.000000,  0.000000,  2.141903)
  41 Ni ( 0.000000,  0.000000,  0.271442)
  42 Co ( 0.000000,  0.000000,  1.196632)
  43 Ni ( 0.000000,  0.000000,  0.392932)
  44 Co ( 0.000000,  0.000000,  1.135314)
  45 Cr ( 0.000000,  0.000000, -1.682834)
  46 Ni ( 0.000000,  0.000000,  0.255827)
  47 Co ( 0.000000,  0.000000,  1.489075)
  48 Ni ( 0.000000,  0.000000,  0.373793)
  49 Fe ( 0.000000,  0.000000,  1.964865)
  50 Co ( 0.000000,  0.000000,  1.393392)
  51 Fe ( 0.000000,  0.000000,  2.541659)
  52 Cr ( 0.000000,  0.000000, -1.785403)
  53 Fe ( 0.000000,  0.000000,  1.750026)
  54 Cr ( 0.000000,  0.000000, -1.255025)
  55 Fe ( 0.000000,  0.000000,  2.422634)
  56 Co ( 0.000000,  0.000000,  1.381475)
  57 Co ( 0.000000,  0.000000,  1.119558)
  58 Co ( 0.000000,  0.000000,  0.899801)
  59 Cr ( 0.000000,  0.000000, -1.186842)
  60 Co ( 0.000000,  0.000000,  1.207347)
  61 Cr ( 0.000000,  0.000000, -1.440447)
  62 Co ( 0.000000,  0.000000,  1.025872)
  63 Fe ( 0.000000,  0.000000,  1.946278)
  64 Co ( 0.000000,  0.000000,  1.231276)
  65 Fe ( 0.000000,  0.000000,  2.045200)
  66 Ni ( 0.000000,  0.000000,  0.235441)
  67 Cr ( 0.000000,  0.000000, -1.471042)
  68 Fe ( 0.000000,  0.000000,  2.288088)
  69 Cr ( 0.000000,  0.000000, -1.960374)
  70 Cr ( 0.000000,  0.000000, -1.645293)
  71 Ni ( 0.000000,  0.000000,  0.384947)
  72 Ni ( 0.000000,  0.000000,  0.344667)
  73 Co ( 0.000000,  0.000000,  0.898301)
  74 Fe ( 0.000000,  0.000000,  1.491466)
  75 Fe ( 0.000000,  0.000000,  2.115058)
  76 Ni ( 0.000000,  0.000000,  0.624886)
  77 Ni ( 0.000000,  0.000000,  0.526203)
  78 Fe ( 0.000000,  0.000000,  2.388018)
  79 Co ( 0.000000,  0.000000,  1.260557)
  80 Co ( 0.000000,  0.000000,  1.235678)
  81 Fe ( 0.000000,  0.000000,  2.668353)
  82 Ni ( 0.000000,  0.000000,  0.484423)
  83 Co ( 0.000000,  0.000000,  1.601161)
  84 Fe ( 0.000000,  0.000000,  2.039965)
  85 Ni ( 0.000000,  0.000000,  0.369263)
  86 Ni ( 0.000000,  0.000000,  0.271281)
  87 Co ( 0.000000,  0.000000,  1.427048)
  88 Fe ( 0.000000,  0.000000,  2.320596)
  89 Fe ( 0.000000,  0.000000,  1.870582)
  90 Fe ( 0.000000,  0.000000,  1.785667)
  91 Co ( 0.000000,  0.000000,  1.637134)
  92 Ni ( 0.000000,  0.000000,  0.425200)
  93 Fe ( 0.000000,  0.000000,  1.820895)
  94 Fe ( 0.000000,  0.000000,  1.146552)
  95 Co ( 0.000000,  0.000000,  1.334999)
  96 Co ( 0.000000,  0.000000,  1.601419)
  97 Fe ( 0.000000,  0.000000,  2.608914)
  98 Co ( 0.000000,  0.000000,  1.136033)
  99 Fe ( 0.000000,  0.000000,  2.013423)
 100 Co ( 0.000000,  0.000000,  1.630010)
 101 Co ( 0.000000,  0.000000,  1.894279)
 102 Ni ( 0.000000,  0.000000,  0.515168)
 103 Fe ( 0.000000,  0.000000,  2.304532)
 104 Co ( 0.000000,  0.000000,  1.503443)
 105 Co ( 0.000000,  0.000000,  1.693686)
 106 Ni ( 0.000000,  0.000000,  0.599003)
 107 Fe ( 0.000000,  0.000000,  2.865439)
 108 Ni ( 0.000000,  0.000000,  0.560087)
 109 Cr ( 0.000000,  0.000000, -1.841631)
 110 Co ( 0.000000,  0.000000,  1.477911)
 111 Ni ( 0.000000,  0.000000,  0.455296)
 112 Ni ( 0.000000,  0.000000,  0.514259)
 113 Ni ( 0.000000,  0.000000,  0.217938)
 114 Cr ( 0.000000,  0.000000, -1.938835)
 115 Cr ( 0.000000,  0.000000, -1.572989)
 116 Ni ( 0.000000,  0.000000,  0.437630)
 117 Cr ( 0.000000,  0.000000, -3.092478)
 118 Co ( 0.000000,  0.000000,  1.031982)
 119 Cr ( 0.000000,  0.000000, -1.811552)
 120 Ni ( 0.000000,  0.000000,  0.431527)
 121 Ni ( 0.000000,  0.000000,  0.630296)
 122 Co ( 0.000000,  0.000000,  1.456789)
 123 Cr ( 0.000000,  0.000000, -2.266951)
 124 Cr ( 0.000000,  0.000000,  0.112697)

Energy contributions relative to reference atoms: (reference = -4451268.207082)

Kinetic:       +338.985273
Potential:     -370.918326
External:        +0.000000
XC:            -991.126740
Entropy (-ST):   -5.648341
Local:          +44.728203
--------------------------
Free energy:   -983.979932
Extrapolated:  -981.155762

Dipole-layer corrected work functions: 4.862660, 4.901976 eV

Spin contamination: 54.962297 electrons
Showing all kpts
                      Up                     Down
 Kpt  Band  Eigenvalues  Occupancy  Eigenvalues  Occupancy
  0   606     -0.02117    0.99757      0.91430    0.03426
  0   607     -0.01104    0.99731      0.92249    0.03165
  0   608      0.00531    0.99683      0.93139    0.02904
  0   609      0.00834    0.99673      0.94119    0.02640

  1   606     -0.01298    0.99736      0.91261    0.03483
  1   607     -0.00146    0.99704      0.93236    0.02876
  1   608      0.01513    0.99650      0.94691    0.02497
  1   609      0.01911    0.99636      0.95354    0.02340


Fermi level: 0.58041

No gap

Forces in eV/Ang:
  0 Cr    0.92426    0.25431    0.58042
  1 Fe   -0.85914   -0.19048    0.43453
  2 Ni    0.55482   -0.24633   -0.40232
  3 Co   -0.99781    0.06624    0.03702
  4 Ni   -0.59382    0.12745    0.12874
  5 Cr    0.48308    0.29165   -0.25708
  6 Fe    0.07483   -0.49100   -0.07007
  7 Cr    0.88991    0.03702    0.33784
  8 Cr    0.00626   -0.02276    0.49423
  9 Cr    0.04935   -0.61939   -0.50842
 10 Ni    0.17418    0.99024   -0.84490
 11 Cr    0.25443    0.54191    0.40742
 12 Cr   -0.38883   -0.36280   -0.05414
 13 Cr   -0.08014    0.59441    0.08229
 14 Fe   -0.89033   -0.25658   -0.20838
 15 Cr   -0.15278   -0.18590    0.11082
 16 Ni   -0.22123    0.79740    0.09068
 17 Ni    1.01094    0.17902   -0.27540
 18 Fe   -0.29549   -0.13173    0.16060
 19 Cr   -0.05200   -0.12349   -0.16346
 20 Cr    0.79765   -0.57937    0.35139
 21 Ni    0.96727   -0.50543    0.91263
 22 Cr   -1.04924    0.53866    0.22926
 23 Ni    1.99360   -0.17966    0.39190
 24 Fe   -0.72535    0.03403   -0.43540
 25 Co   -0.88536    1.83819   -0.05029
 26 Co   -0.02234    1.00229   -0.12954
 27 Co   -0.27275    0.63145    0.45487
 28 Cr   -0.35029   -0.37344   -0.29313
 29 Fe    0.19225   -0.51117    0.38261
 30 Fe   -0.46850   -0.17747    0.08982
 31 Co   -0.10830   -0.27860   -0.25406
 32 Fe    1.14821    0.00507   -0.05498
 33 Cr   -0.85917   -0.19010   -0.60368
 34 Fe    0.24413    0.20709    0.58345
 35 Ni   -1.26103   -1.02830    0.57498
 36 Ni    1.26033   -0.04434   -0.00361
 37 Cr   -0.16248   -0.44123   -0.76933
 38 Fe   -0.18315    0.01065    0.51217
 39 Cr   -0.16497    0.73972    0.24182
 40 Fe   -0.80225    0.42664    0.33093
 41 Ni    1.33809   -0.29091   -0.35353
 42 Co   -1.25232   -2.00055   -1.03673
 43 Ni    0.58323    0.25578   -0.68184
 44 Co   -0.33807    0.65004   -0.49665
 45 Cr   -0.49753   -1.07967   -0.66235
 46 Ni    0.45391   -1.69435    0.54320
 47 Co    0.60403    1.00459   -1.26302
 48 Ni   -0.11264    0.10931   -0.01126
 49 Fe    0.70219   -0.61570   -0.19444
 50 Co   -0.28880   -0.49074   -0.44340
 51 Fe    0.31663    0.09869   -0.80284
 52 Cr   -0.05676    0.89586   -0.16148
 53 Fe    0.63312    0.60701   -0.43124
 54 Cr    0.12318   -0.08344   -0.81763
 55 Fe   -0.70385   -0.09068    0.88790
 56 Co   -0.24118    0.73328   -0.42768
 57 Co    0.69621    0.58138    0.24536
 58 Co    0.67668    1.53547    0.31404
 59 Cr   -0.04361   -0.29340   -0.66319
 60 Co   -0.97798   -0.24787   -0.73202
 61 Cr    0.00814   -0.42506   -0.46933
 62 Co   -0.07943    0.35149    0.32628
 63 Fe    0.31352   -1.08152    0.80381
 64 Co   -0.62179   -0.31239    0.86850
 65 Fe   -0.79984   -0.43901    0.37674
 66 Ni   -0.86459   -0.57226   -0.36526
 67 Cr    0.52634   -0.17956   -0.03960
 68 Fe    0.12946    0.70382   -0.30229
 69 Cr   -0.21658    0.17486    0.60903
 70 Cr    0.74300    0.41843    0.51740
 71 Ni   -0.74050    0.63718    0.95810
 72 Ni   -1.17665   -0.29047    0.92120
 73 Co   -0.75563   -1.40537   -0.05869
 74 Fe   -0.44132    0.22987   -0.13125
 75 Fe   -0.12943   -0.06204   -0.06255
 76 Ni   -0.35067    0.04664    0.51717
 77 Ni    0.35651   -0.35435   -0.25207
 78 Fe   -0.14383    0.67537    0.38056
 79 Co    0.34131    0.41969    0.85410
 80 Co    0.01725   -0.10380    1.25637
 81 Fe   -0.67468    0.29252    1.20676
 82 Ni    0.29104   -0.07171   -0.11072
 83 Co    0.41723   -1.41807   -0.07469
 84 Fe    0.15896   -0.14066   -0.37098
 85 Ni    1.18372    0.30883    0.00717
 86 Ni    0.58941    0.12413   -0.80271
 87 Co    0.31352    0.54488   -0.20208
 88 Fe   -0.44591    0.44813    0.29341
 89 Fe   -1.01580   -1.07039   -0.57831
 90 Fe    0.69423    0.29278   -0.42212
 91 Co    1.14254    0.60415    0.00611
 92 Ni   -0.81105    0.04633    0.72651
 93 Fe    1.12670    0.50526    0.39789
 94 Fe    0.83788    0.35405   -0.37643
 95 Co    0.40806    0.01190    0.71796
 96 Co   -0.82362   -1.43695    0.04619
 97 Fe    0.54478    0.24835    0.42347
 98 Co   -1.02477   -0.47908    0.43946
 99 Fe    0.31944    0.37229   -0.08032
100 Co    0.66167   -0.79472   -0.26680
101 Co   -0.66186    1.17886   -0.75408
102 Ni   -0.74225   -0.65790    0.45782
103 Fe    0.24821   -0.40728   -0.12151
104 Co   -0.12026   -0.77095   -0.30105
105 Co    0.52563    0.36345   -0.40970
106 Ni   -0.86923    0.12670   -0.46161
107 Fe   -0.47997    1.43473   -0.27557
108 Ni    0.24317    1.31206   -0.27318
109 Cr    0.11259   -0.97607   -0.23418
110 Co   -0.38678   -0.41745   -0.66214
111 Ni    0.10616   -0.77357   -0.53499
112 Ni   -0.02921    0.11137    0.70568
113 Ni   -0.72526    0.20212   -0.46614
114 Cr    1.40459   -0.18173   -0.39918
115 Cr   -0.20383    0.34943    1.56723
116 Ni   -0.42219   -0.09539   -0.50607
117 Cr   -0.17078   -0.27555   -0.56635
118 Co   -0.03093   -0.18351    0.86567
119 Cr    0.54231   -0.25740   -0.62316
120 Ni    0.14862   -0.17779   -0.68571
121 Ni    1.31162    0.01660    0.27552
122 Co    0.06485    0.42538    0.05223
123 Cr   -1.04939    0.06444   -0.13030
124 Cr    0.38917    0.46202    0.41047

Timing:                              incl.     excl.
-----------------------------------------------------------
Forces:                             38.958    38.958   0.1% |
Hamiltonian:                         1.574     0.009   0.0% |
 Atomic:                             0.370     0.001   0.0% |
  XC Correction:                     0.368     0.368   0.0% |
 Calculate atomic Hamiltonians:      0.692     0.692   0.0% |
 Communicate:                        0.105     0.105   0.0% |
 Initialize Hamiltonian:             0.001     0.001   0.0% |
 Poisson:                            0.088     0.088   0.0% |
 XC 3D grid:                         0.309     0.309   0.0% |
LCAO initialization:               280.879     0.400   0.0% |
 LCAO eigensolver:                  14.539     0.014   0.0% |
  Calculate projections:             0.000     0.000   0.0% |
  DenseAtomicCorrection:             0.000     0.000   0.0% |
  Distribute overlap matrix:         9.200     9.200   0.0% |
  Orbital Layouts:                   5.287     5.287   0.0% |
  Potential matrix:                  0.003     0.003   0.0% |
  Sum over cells:                    0.034     0.034   0.0% |
 LCAO to grid:                     263.727   263.727   1.0% |
 Set positions (LCAO WFS):           2.213     1.940   0.0% |
  Basic WFS set positions:           0.003     0.003   0.0% |
  Basis functions set positions:     0.001     0.001   0.0% |
  P tci:                             0.000     0.000   0.0% |
  ST tci:                            0.105     0.105   0.0% |
  mktci:                             0.164     0.164   0.0% |
PWDescriptor:                        0.095     0.095   0.0% |
SCF-cycle:                       27186.921     1.668   0.0% |
 Davidson:                       26509.730  8350.722  30.3% |-----------|
  Apply H:                         430.239   422.793   1.5% ||
   HMM T:                            7.447     7.447   0.0% |
  Subspace diag:                  2861.278     0.055   0.0% |
   calc_h_matrix:                 1132.527   756.049   2.7% ||
    Apply H:                       376.478   369.163   1.3% ||
     HMM T:                          7.315     7.315   0.0% |
   diagonalize:                    272.045   272.045   1.0% |
   rotate_psi:                    1456.651  1456.651   5.3% |-|
  calc. matrices:                 6695.535  6001.759  21.8% |--------|
   Apply H:                        693.776   678.572   2.5% ||
    HMM T:                          15.204    15.204   0.1% |
  diagonalize:                    5067.099  5067.099  18.4% |------|
  rotate_psi:                     3104.856  3104.856  11.3% |----|
 Density:                          363.399     0.005   0.0% |
  Atomic density matrices:           4.378     4.378   0.0% |
  Mix:                             173.895   173.895   0.6% |
  Multipole moments:                 0.118     0.118   0.0% |
  Pseudo density:                  185.003   184.996   0.7% |
   Symmetrize density:               0.007     0.007   0.0% |
 Hamiltonian:                      293.025     1.794   0.0% |
  Atomic:                           65.897     0.228   0.0% |
   XC Correction:                   65.669    65.669   0.2% |
  Calculate atomic Hamiltonians:   149.219   149.219   0.5% |
  Communicate:                      17.971    17.971   0.1% |
  Poisson:                           6.026     6.026   0.0% |
  XC 3D grid:                       52.118    52.118   0.2% |
 Orthonormalize:                    19.100     0.001   0.0% |
  calc_s_matrix:                     2.375     2.375   0.0% |
  inverse-cholesky:                  0.937     0.937   0.0% |
  projections:                      11.619    11.619   0.0% |
  rotate_psi_s:                      4.168     4.168   0.0% |
Set symmetry:                        0.001     0.001   0.0% |
Other:                               6.685     6.685   0.0% |
-----------------------------------------------------------
Total:                                     27515.112 100.0%

Date: Mon Apr 17 12:17:11 2023
