
  ___ ___ ___ _ _ _  
 |   |   |_  | | | | 
 | | | | | . | | | | 
 |__ |  _|___|_____|  22.8.0
 |___|_|             

User:   c.zeng@d0098
Date:   Fri Apr 14 01:04:39 2023
Arch:   x86_64
Pid:    46821
CWD:    /home/c.zeng/projects/hea-corrosion/hea-mlp/data-curation/bulk-md/dft-jobs/74
Python: 3.8.1
gpaw:   /home/c.zeng/usr/installs/gpaw/source/gpaw-22.8.0/gpaw
_gpaw:  /home/c.zeng/usr/installs/gpaw/source/gpaw-22.8.0/
        _gpaw.cpython-38-x86_64-linux-gnu.so
ase:    /home/c.zeng/.local/lib/python3.8/site-packages/ase-3.22.1-py3.8.egg/ase (version 3.22.1)
numpy:  /shared/centos7/python/3.8.1/lib/python3.8/site-packages/numpy (version 1.17.4)
scipy:  /shared/centos7/python/3.8.1/lib/python3.8/site-packages/scipy (version 1.4.1)
libxc:  4.2.3
units:  Angstrom and eV
cores: 30
OpenMP: False
OMP_NUM_THREADS: 1

Input parameters:
  convergence: {energy: 0.0001}
  kpts: [2 2 2]
  maxiter: 666
  mode: {ecut: 350.0,
         name: pw}
  occupations: {fixmagmom: False,
                name: fermi-dirac,
                width: 0.1}
  spinpol: True
  xc: PBE

System changes: positions, numbers, cell, pbc, initial_charges, initial_magmoms 

Initialize ...

species:
  Fe:
    name: Iron
    id: 37abbd8d6c3c35915a9b583b742da910
    Z: 26.0
    valence: 8
    core: 18
    charge: 0.0
    file: /home/c.zeng/usr/data/gpaw-setups-0.9.20000/Fe.PBE.gz
    compensation charges: {type: gauss,
                           rc: 0.33,
                           lmax: 2}
    cutoffs: {filter: 2.06,
              core: 2.67}
    valence states:
      #              energy  rcut
      - 4s(2.00)    -5.291   1.164
      - 4p(0.00)    -1.326   1.058
      - 3d(6.00)    -7.505   1.058
      -  s          21.920   1.164
      -  p          25.885   1.058
      -  d          19.706   1.058
  
    # Using partial waves for Fe as LCAO basis

  Cr:
    name: Chromium
    id: 33f258bda2ca9f93018e70263a35547b
    Z: 24.0
    valence: 6
    core: 18
    charge: 0.0
    file: /home/c.zeng/usr/data/gpaw-setups-0.9.20000/Cr.PBE.gz
    compensation charges: {type: gauss,
                           rc: 0.35,
                           lmax: 2}
    cutoffs: {filter: 2.14,
              core: 3.04}
    valence states:
      #              energy  rcut
      - 4s(1.00)    -4.007   1.164
      - 4p(0.00)    -0.989   1.217
      - 3d(5.00)    -2.913   1.111
      -  s          23.205   1.164
      -  p          26.223   1.217
      -  d          24.299   1.111
  
    # Using partial waves for Cr as LCAO basis

  Ni:
    name: Nickel
    id: 0d9f38a9d6e76a2886f07bb4381f212b
    Z: 28.0
    valence: 16
    core: 12
    charge: 0.0
    file: /home/c.zeng/usr/data/gpaw-setups-0.9.20000/Ni.PBE.gz
    compensation charges: {type: gauss,
                           rc: 0.36,
                           lmax: 2}
    cutoffs: {filter: 2.14,
              core: 1.98}
    valence states:
      #              energy  rcut
      - 4s(2.00)    -5.642   1.164
      - 3p(6.00)   -71.394   1.207
      - 4p(0.00)    -1.226   1.207
      - 3d(8.00)    -8.875   1.138
      -  s          21.570   1.164
      -  d          18.337   1.138
  
    # Using partial waves for Ni as LCAO basis

  Al:
    name: Aluminium
    id: 0292cae29f5d6237e50f6abdd43a7bdd
    Z: 13.0
    valence: 3
    core: 10
    charge: 0.0
    file: /home/c.zeng/usr/data/gpaw-setups-0.9.20000/Al.PBE.gz
    compensation charges: {type: gauss,
                           rc: 0.34,
                           lmax: 2}
    cutoffs: {filter: 1.91,
              core: 2.36}
    valence states:
      #              energy  rcut
      - 3s(2.00)    -7.753   1.085
      - 3p(1.00)    -2.712   1.085
      -  s          19.459   1.085
      -  p          24.499   1.085
      -  d           0.000   1.085
  
    # Using partial waves for Al as LCAO basis

  Co:
    name: Cobalt
    id: 339d20d5b0b93d2de9531a1bee871d91
    Z: 27.0
    valence: 9
    core: 18
    charge: 0.0
    file: /home/c.zeng/usr/data/gpaw-setups-0.9.20000/Co.PBE.gz
    compensation charges: {type: gauss,
                           rc: 0.32,
                           lmax: 2}
    cutoffs: {filter: 1.87,
              core: 2.55}
    valence states:
      #              energy  rcut
      - 4s(2.00)    -5.469   1.005
      - 4p(0.00)    -1.277   1.058
      - 3d(7.00)    -8.205   1.005
      -  s          21.742   1.005
      -  p          25.934   1.058
      -  d          19.007   1.005
  
    # Using partial waves for Co as LCAO basis

Reference energy: -3382523.201499  # eV

Spin-polarized calculation.
Magnetic moment: 128.800000

Convergence criteria:
 Maximum [total energy] change in last 3 cyles: 0.0001 eV / electron
 Maximum integral of absolute [dens]ity change: 0.0001 electrons / valence electron
 Maximum integral of absolute [eigenst]ate change: 4e-08 eV^2 / valence electron
 Maximum number of scf [iter]ations: 666
 (Square brackets indicate name in SCF output, whereas a 'c' in
 the SCF output indicates the quantity has converged.)

Symmetries present (total): 1

  ( 1  0  0)
  ( 0  1  0)
  ( 0  0  1)

8 k-points: 2 x 2 x 2 Monkhorst-Pack grid
4 k-points in the irreducible part of the Brillouin zone
       k-points in crystal coordinates                weights
   0:     0.25000000   -0.25000000   -0.25000000          2/8
   1:     0.25000000   -0.25000000    0.25000000          2/8
   2:     0.25000000    0.25000000   -0.25000000          2/8
   3:     0.25000000    0.25000000    0.25000000          2/8

Wave functions: Plane wave expansion
  Cutoff energy: 350.000 eV
  Number of coefficients (min, max): 18865, 18865
  Pulay-stress correction: 0.000000 eV/Ang^3 (de/decut=0.000000)
  Using FFTW library
  ScaLapack parameters: grid=1x1, blocksize=None
  Wavefunction extrapolation:
    Improved wavefunction reuse through dual PAW basis 

Occupation numbers: Fermi-Dirac:
  width: 0.1000  # eV
 

Eigensolver
   Davidson(niter=2) 

Densities:
  Coarse grid: 48*48*48 grid
  Fine grid: 96*96*96 grid
  Total Charge: 0.000000 

Density mixing:
  Method: difference
  Backend: pulay
  Linear mixing parameter: 0.05
  old densities: 5
  Damping of long wavelength oscillations: 50 

Hamiltonian:
  XC and Coulomb potentials evaluated on a 96*96*96 grid
  Using the PBE Exchange-Correlation functional
  External potential:
    NoExternalPotential
 

XC parameters: PBE with 2 nearest neighbor stencil

Memory estimate:
  Process memory now: 248.53 MiB
  Calculator: 1017.03 MiB
    Density: 5.55 MiB
      Arrays: 2.05 MiB
      Localized functions: 2.68 MiB
      Mixer: 0.82 MiB
    Hamiltonian: 1.60 MiB
      Arrays: 1.52 MiB
      XC: 0.00 MiB
      Poisson: 0.00 MiB
      vbar: 0.08 MiB
    Wavefunctions: 1009.87 MiB
      Arrays psit_nG: 747.28 MiB
      Eigensolver: 252.55 MiB
      Projections: 4.92 MiB
      Projectors: 0.73 MiB
      PW-descriptor: 4.39 MiB

Total number of cores used: 30
Parallelization over k-points: 2
Domain decomposition: 5 x 3 x 1

Number of atoms: 108
Number of atomic orbitals: 961
Number of bands in calculation: 649
Number of valence electrons: 945
Bands to converge: occupied

... initialized

Initializing position-dependent things.

Density initialized from atomic densities
Creating initial wave functions:
  649 bands from LCAO basis set

        .-----------------Al-------.  
       /|  Al                      |  
      / |   Co                     |  
     /  |      Al    Cr Ni        Fe  
    /   FeCo      Fer       Co     |  
   /Ni  |            Cr            |  
  /  Fe |  NiFeAl    CCrACo  Fe    |  
 *      Co  Co CNi         Fe   Ni |  
 |Co    | Fe    CrCoAl   FCr      Co  
 |  Ni  | AlNi   Fe AAl Ni  Cr     |  
 |     Co   NiFFe   Ni NNi    CCr  |  
 |    FeCoFe   Al    Ni   Co       |  
 | Co   |Al     CFeCo   AlrCo    Cr|  
 |  Ni  .-AlAl--Al-FeCo-Co---Co----Fe 
 |   CrCr     CFe   Fe   Ni  Ni   /   
 Ni   /        Ni     FeNiCo    Ni    
 |   / FeCr      CoCrCo    Al   /     
 |Cr/Ni    Feo                 /      
 | /                   Ni     /       
 |/   Cr                     /        
 *--------------------------*         

Positions:
   0 Fe    10.732716   10.716629   11.118598    ( 0.0000,  0.0000,  2.0000)
   1 Cr    10.917839    1.740605    1.888121    ( 0.0000,  0.0000,  0.0000)
   2 Ni     1.733755    0.222510    2.076142    ( 0.0000,  0.0000,  1.5000)
   3 Cr     1.707949    1.432957   11.019792    ( 0.0000,  0.0000,  0.0000)
   4 Al     3.241548   -0.102996    0.180525    ( 0.0000,  0.0000,  0.0000)
   5 Fe     3.429286    1.989127    1.769443    ( 0.0000,  0.0000,  2.0000)
   6 Ni     5.339688   10.744889    1.664869    ( 0.0000,  0.0000,  1.5000)
   7 Al     5.249083    1.689303   -0.067071    ( 0.0000,  0.0000,  0.0000)
   8 Al     7.269640   10.728494   -0.063214    ( 0.0000,  0.0000,  0.0000)
   9 Co     7.342372    1.936847    1.992076    ( 0.0000,  0.0000,  2.1000)
  10 Ni     8.914284    0.100535    1.879654    ( 0.0000,  0.0000,  1.5000)
  11 Co     9.006517    2.052362   -0.192600    ( 0.0000,  0.0000,  2.1000)
  12 Ni     0.105803    3.468744   10.524776    ( 0.0000,  0.0000,  1.5000)
  13 Cr    10.970034    5.342741    1.971285    ( 0.0000,  0.0000,  0.0000)
  14 Fe     1.540051    3.556844    1.793317    ( 0.0000,  0.0000,  2.0000)
  15 Cr     1.800367    5.525122   11.056660    ( 0.0000,  0.0000,  0.0000)
  16 Co     3.464536    3.725045   10.900314    ( 0.0000,  0.0000,  2.1000)
  17 Cr     3.735142    5.386164    1.833051    ( 0.0000,  0.0000,  0.0000)
  18 Co     5.587326    3.381601    1.896509    ( 0.0000,  0.0000,  2.1000)
  19 Fe     5.564633    5.444665   -0.024792    ( 0.0000,  0.0000,  2.0000)
  20 Cr     7.039897    3.584488   -0.059863    ( 0.0000,  0.0000,  0.0000)
  21 Fe     7.303177    5.037200    1.708551    ( 0.0000,  0.0000,  2.0000)
  22 Co     9.233767    3.721581    1.891577    ( 0.0000,  0.0000,  2.1000)
  23 Al     9.075278    5.252410   10.958755    ( 0.0000,  0.0000,  0.0000)
  24 Ni    10.809302    6.954885   10.975064    ( 0.0000,  0.0000,  1.5000)
  25 Cr    10.698428    8.927831    1.731908    ( 0.0000,  0.0000,  0.0000)
  26 Cr     2.107127    7.139801    1.855653    ( 0.0000,  0.0000,  0.0000)
  27 Al     1.559165    8.802479   -0.120608    ( 0.0000,  0.0000,  0.0000)
  28 Cr     3.633509    7.101704    0.111041    ( 0.0000,  0.0000,  0.0000)
  29 Cr     3.717175    9.068929    1.739769    ( 0.0000,  0.0000,  0.0000)
  30 Fe     5.375173    7.065660    1.799445    ( 0.0000,  0.0000,  2.0000)
  31 Fe     5.295185    8.831830    0.226113    ( 0.0000,  0.0000,  2.0000)
  32 Ni     7.296578    7.025368    0.237890    ( 0.0000,  0.0000,  1.5000)
  33 Cr     7.210934    9.135550    1.842410    ( 0.0000,  0.0000,  0.0000)
  34 Co     9.268981    7.040234    1.703232    ( 0.0000,  0.0000,  2.1000)
  35 Ni     8.722038    9.110227   10.873605    ( 0.0000,  0.0000,  1.5000)
  36 Ni     0.040246   10.884090    3.738138    ( 0.0000,  0.0000,  1.5000)
  37 Co    11.053106    1.669262    5.512370    ( 0.0000,  0.0000,  2.1000)
  38 Co     1.550620   10.573959    5.471441    ( 0.0000,  0.0000,  2.1000)
  39 Cr     1.755428    1.889547    3.773291    ( 0.0000,  0.0000,  0.0000)
  40 Fe     3.548388   10.636905    3.649009    ( 0.0000,  0.0000,  2.0000)
  41 Al     3.349738    1.289592    5.431322    ( 0.0000,  0.0000,  0.0000)
  42 Fe     5.396677   10.968617    5.314527    ( 0.0000,  0.0000,  2.0000)
  43 Ni     5.272396    1.551964    3.548846    ( 0.0000,  0.0000,  1.5000)
  44 Cr     7.041540    0.104342    3.452384    ( 0.0000,  0.0000,  0.0000)
  45 Co     7.386151    1.737094    5.116943    ( 0.0000,  0.0000,  2.1000)
  46 Co     9.188381   10.979839    5.544357    ( 0.0000,  0.0000,  2.1000)
  47 Ni     9.177870    1.889854    3.673716    ( 0.0000,  0.0000,  1.5000)
  48 Ni    11.131294    3.719068    3.791719    ( 0.0000,  0.0000,  1.5000)
  49 Cr    10.583791    5.499166    5.499324    ( 0.0000,  0.0000,  0.0000)
  50 Co     1.937185    3.700121    5.583673    ( 0.0000,  0.0000,  2.1000)
  51 Al     1.823491    5.512757    3.706175    ( 0.0000,  0.0000,  0.0000)
  52 Al     3.565981    3.446980    3.632730    ( 0.0000,  0.0000,  0.0000)
  53 Fe     3.683686    5.499062    5.262772    ( 0.0000,  0.0000,  2.0000)
  54 Fe     5.664217    3.612310    5.058957    ( 0.0000,  0.0000,  2.0000)
  55 Fe     5.641909    5.152360    3.508659    ( 0.0000,  0.0000,  2.0000)
  56 Ni     7.289869    3.563555    3.589309    ( 0.0000,  0.0000,  1.5000)
  57 Ni     7.520342    5.250369    5.398148    ( 0.0000,  0.0000,  1.5000)
  58 Co     9.180131    3.505717    5.311356    ( 0.0000,  0.0000,  2.1000)
  59 Co     9.088016    5.589879    3.490830    ( 0.0000,  0.0000,  2.1000)
  60 Fe    11.056503    7.262270    3.490018    ( 0.0000,  0.0000,  2.0000)
  61 Co    10.768767    8.982422    5.506115    ( 0.0000,  0.0000,  2.1000)
  62 Al     1.587497    7.249069    5.453183    ( 0.0000,  0.0000,  0.0000)
  63 Ni     1.875026    9.036189    3.649003    ( 0.0000,  0.0000,  1.5000)
  64 Al     3.574574    7.376320    3.782787    ( 0.0000,  0.0000,  0.0000)
  65 Cr     3.624342    9.035725    5.520760    ( 0.0000,  0.0000,  0.0000)
  66 Al     5.706702    7.029755    5.245958    ( 0.0000,  0.0000,  0.0000)
  67 Ni     5.287676    9.041878    3.421146    ( 0.0000,  0.0000,  1.5000)
  68 Al     7.299997    7.091445    3.236007    ( 0.0000,  0.0000,  0.0000)
  69 Fe     7.079935    9.199894    5.068888    ( 0.0000,  0.0000,  2.0000)
  70 Cr     8.964225    7.350282    5.455147    ( 0.0000,  0.0000,  0.0000)
  71 Cr     9.109409    9.289017    3.597723    ( 0.0000,  0.0000,  0.0000)
  72 Fe    10.852775   10.714415    7.381851    ( 0.0000,  0.0000,  2.0000)
  73 Co    10.915251    1.915964    8.608943    ( 0.0000,  0.0000,  2.1000)
  74 Co     1.710926   -0.040899    9.034554    ( 0.0000,  0.0000,  2.1000)
  75 Co     1.792756    1.837666    7.186151    ( 0.0000,  0.0000,  2.1000)
  76 Fe     3.456618    0.194611    7.400154    ( 0.0000,  0.0000,  2.0000)
  77 Fe     3.289732    1.905927    9.206290    ( 0.0000,  0.0000,  2.0000)
  78 Cr     5.440369   10.574405    8.785767    ( 0.0000,  0.0000,  0.0000)
  79 Fe     5.178164    1.791662    7.229212    ( 0.0000,  0.0000,  2.0000)
  80 Co     7.128857   10.921890    7.011897    ( 0.0000,  0.0000,  2.1000)
  81 Al     7.029815    1.535691    8.774544    ( 0.0000,  0.0000,  0.0000)
  82 Ni     9.175191   11.048032    8.943804    ( 0.0000,  0.0000,  1.5000)
  83 Ni     8.837549    1.983774    7.160472    ( 0.0000,  0.0000,  1.5000)
  84 Ni    10.966871    3.816454    7.190976    ( 0.0000,  0.0000,  1.5000)
  85 Fe     0.066119    5.369742    9.159492    ( 0.0000,  0.0000,  2.0000)
  86 Co     1.900212    3.595976    9.127015    ( 0.0000,  0.0000,  2.1000)
  87 Cr     2.033917    5.554542    7.311546    ( 0.0000,  0.0000,  0.0000)
  88 Ni     3.444372    3.519692    7.121782    ( 0.0000,  0.0000,  1.5000)
  89 Fe     3.548646    5.368332    9.133933    ( 0.0000,  0.0000,  2.0000)
  90 Ni     5.269104    3.480663    8.870365    ( 0.0000,  0.0000,  1.5000)
  91 Co     5.298895    5.100111    7.093722    ( 0.0000,  0.0000,  2.1000)
  92 Al     6.934770    3.428661    6.931535    ( 0.0000,  0.0000,  0.0000)
  93 Cr     7.045546    5.256827    8.968535    ( 0.0000,  0.0000,  0.0000)
  94 Fe     9.306485    3.743570    9.013069    ( 0.0000,  0.0000,  2.0000)
  95 Cr     8.795786    5.318839    7.303325    ( 0.0000,  0.0000,  0.0000)
  96 Ni    10.717306    7.274470    7.171068    ( 0.0000,  0.0000,  1.5000)
  97 Fe    10.813798    8.965815    8.912012    ( 0.0000,  0.0000,  2.0000)
  98 Co     1.813002    7.113445    9.204401    ( 0.0000,  0.0000,  2.1000)
  99 Ni     1.726941    9.043176    7.157921    ( 0.0000,  0.0000,  1.5000)
 100 Cr     3.866588    7.200794    7.130047    ( 0.0000,  0.0000,  0.0000)
 101 Al     3.459392    8.770355    9.063143    ( 0.0000,  0.0000,  0.0000)
 102 Cr     5.405541    7.056295    9.264482    ( 0.0000,  0.0000,  0.0000)
 103 Co     5.514415    9.136953    6.949710    ( 0.0000,  0.0000,  2.1000)
 104 Al     7.302275    7.345812    7.438981    ( 0.0000,  0.0000,  0.0000)
 105 Ni     6.904041    9.044187    8.877141    ( 0.0000,  0.0000,  1.5000)
 106 Co     9.040819    7.505029    8.999889    ( 0.0000,  0.0000,  2.1000)
 107 Fe     9.032650    9.130250    7.095355    ( 0.0000,  0.0000,  2.0000)

Unit cell:
           periodic     x           y           z      points  spacing
  1. axis:    yes   10.820500    0.000000    0.000000    48     0.2254
  2. axis:    yes    0.000000   10.820500    0.000000    48     0.2254
  3. axis:    yes    0.000000    0.000000   10.820500    48     0.2254

  Lengths:  10.820500  10.820500  10.820500
  Angles:   90.000000  90.000000  90.000000

Effective grid spacing dv^(1/3) = 0.2254

     iter     time        total  log10-change:  magmom
                         energy  eigst   dens
iter:   1 01:09:47  -974.648177                  +129.0868
iter:   2 01:12:06  -862.504036  -0.21  -1.18    +70.9251
iter:   3 01:14:27  -852.194616  -0.85  -1.20    +59.8970
iter:   4 01:16:50  -832.417773  -1.25  -1.27    +56.2225
iter:   5 01:19:12  -823.413728  -1.58  -1.29    +53.5490
iter:   6 01:21:35  -827.454052  -1.29  -1.35    +53.6443
iter:   7 01:23:56  -817.809124  -1.24  -1.39    +51.9302
iter:   8 01:26:19  -808.503789  -1.62  -1.52    +50.8827
iter:   9 01:28:39  -807.611128  -1.95  -1.67    +52.7710
iter:  10 01:31:00  -806.366744  -2.35  -1.73    +53.6284
iter:  11 01:33:23  -806.755574  -2.44  -1.79    +55.9717
iter:  12 01:35:45  -808.480122  -2.32  -1.84    +57.1797
iter:  13 01:38:08  -807.014058  -2.40  -1.84    +57.8673
iter:  14 01:40:29  -807.665844  -2.50  -1.95    +58.9482
iter:  15 01:42:52  -806.931324  -2.72  -1.97    +59.7065
iter:  16 01:45:14  -806.919794  -2.96  -2.06    +60.4362
iter:  17 01:47:35  -807.408478  -3.00  -2.10    +61.3598
iter:  18 01:49:55  -806.919374  -3.08  -2.09    +61.5127
iter:  19 01:52:18  -806.945700  -3.10  -2.22    +61.9787
iter:  20 01:54:40  -807.124004  -3.08  -2.28    +62.2720
iter:  21 01:57:03  -806.930874  -3.21  -2.28    +62.4166
iter:  22 01:59:25  -806.977011  -3.38  -2.38    +62.6989
iter:  23 02:01:48  -806.898953c -3.47  -2.40    +62.8421
iter:  24 02:04:10  -806.963655c -3.62  -2.50    +63.0740
iter:  25 02:06:31  -806.967175c -3.63  -2.50    +63.1045
iter:  26 02:08:51  -806.982723c -3.87  -2.56    +63.1978
iter:  27 02:11:14  -807.003857c -3.85  -2.58    +63.2014
iter:  28 02:13:37  -807.033763c -3.99  -2.63    +63.2106
iter:  29 02:16:00  -807.043055c -4.03  -2.63    +63.2243
iter:  30 02:18:23  -807.077888c -4.10  -2.70    +63.2061
iter:  31 02:20:46  -807.092116c -4.16  -2.72    +63.1955
iter:  32 02:23:08  -807.123175c -4.22  -2.76    +63.1550
iter:  33 02:25:30  -807.140360c -4.27  -2.78    +63.0476
iter:  34 02:27:49  -807.153029c -4.34  -2.81    +63.0543
iter:  35 02:30:12  -807.174403c -4.35  -2.86    +62.9294
iter:  36 02:32:34  -807.181449c -4.49  -2.88    +62.8285
iter:  37 02:34:57  -807.205412c -4.44  -2.95    +62.7440
iter:  38 02:37:19  -807.235070c -4.27  -2.97    +62.6314
iter:  39 02:39:42  -807.234772c -4.62  -2.97    +62.5954
iter:  40 02:42:05  -807.253247c -4.49  -3.03    +62.5623
iter:  41 02:44:23  -807.255395c -4.68  -3.04    +62.4810
iter:  42 02:46:42  -807.261587c -4.74  -3.11    +62.4373
iter:  43 02:49:06  -807.272132c -4.86  -3.16    +62.3859
iter:  44 02:51:29  -807.278741c -4.88  -3.18    +62.3341
iter:  45 02:53:52  -807.287472c -4.78  -3.22    +62.2777
iter:  46 02:56:15  -807.297301c -4.82  -3.25    +62.2883
iter:  47 02:58:25  -807.299488c -5.16  -3.29    +62.2472
iter:  48 03:00:46  -807.305016c -5.08  -3.32    +62.2233
iter:  49 03:03:00  -807.311044c -5.11  -3.35    +62.2184
iter:  50 03:05:13  -807.314631c -5.06  -3.37    +62.1610
iter:  51 03:07:36  -807.317394c -5.21  -3.41    +62.1457
iter:  52 03:09:58  -807.319871c -5.37  -3.44    +62.1497
iter:  53 03:12:11  -807.322274c -5.40  -3.48    +62.1281
iter:  54 03:14:29  -807.324794c -5.29  -3.47    +62.1302
iter:  55 03:16:40  -807.326964c -5.55  -3.52    +62.1202
iter:  56 03:18:53  -807.327738c -5.47  -3.54    +62.0766
iter:  57 03:21:17  -807.329131c -5.64  -3.58    +62.0709
iter:  58 03:23:25  -807.330307c -5.72  -3.60    +62.0680
iter:  59 03:25:36  -807.331053c -5.74  -3.63    +62.0533
iter:  60 03:27:47  -807.331689c -5.88  -3.63    +62.0538
iter:  61 03:29:57  -807.332601c -6.01  -3.69    +62.0475
iter:  62 03:32:20  -807.333643c -5.99  -3.73    +62.0307
iter:  63 03:34:35  -807.334011c -6.15  -3.76    +62.0236
iter:  64 03:36:57  -807.334761c -6.16  -3.79    +62.0142
iter:  65 03:39:19  -807.335673c -6.13  -3.83    +61.9986
iter:  66 03:41:43  -807.336340c -6.28  -3.85    +61.9924
iter:  67 03:43:27  -807.336743c -6.32  -3.88    +61.9840
iter:  68 03:45:41  -807.337752c -6.28  -3.91    +61.9707
iter:  69 03:48:02  -807.338232c -6.32  -3.93    +61.9609
iter:  70 03:50:22  -807.338640c -6.46  -3.96    +61.9505
iter:  71 03:52:42  -807.339746c -6.24  -3.98    +61.9357
iter:  72 03:55:03  -807.339955c -6.58  -4.00    +61.9293
iter:  73 03:57:23  -807.340646c -6.27  -4.03c   +61.9168
iter:  74 03:59:43  -807.341036c -6.77  -4.06c   +61.9081
iter:  75 04:02:03  -807.342017c -6.22  -4.09c   +61.8906
iter:  76 04:04:23  -807.340163c -5.96  -4.12c   +61.9178
iter:  77 04:06:43  -807.335584c -4.98  -4.13c   +61.9971
iter:  78 04:09:04  -807.333234c -5.21  -4.01c   +62.0382
iter:  79 04:11:24  -807.328223c -4.38  -3.92    +62.1670
iter:  80 04:13:44  -807.328310c -5.51  -3.71    +62.1633
iter:  81 04:16:05  -807.328868c -6.03  -3.71    +62.1594
iter:  82 04:18:25  -807.329323c -5.95  -3.70    +62.1443
iter:  83 04:20:45  -807.330182c -5.40  -3.69    +62.1233
iter:  84 04:23:05  -807.328821c -5.41  -3.65    +62.1323
iter:  85 04:25:25  -807.328561c -5.45  -3.64    +62.0993
iter:  86 04:27:45  -807.328292c -5.71  -3.66    +62.0983
iter:  87 04:30:05  -807.329884c -5.56  -3.65    +62.1052
iter:  88 04:32:26  -807.328399c -5.97  -3.69    +62.1083
iter:  89 04:34:47  -807.328463c -6.21  -3.87    +62.1198
iter:  90 04:37:07  -807.329108c -6.38  -3.90    +62.1124
iter:  91 04:39:28  -807.328799c -6.21  -3.93    +62.1017
iter:  92 04:41:48  -807.329189c -6.33  -4.00    +62.1024
iter:  93 04:44:08  -807.329081c -6.29  -3.98    +62.0998
iter:  94 04:46:29  -807.329358c -6.44  -4.00    +62.1039
iter:  95 04:48:49  -807.329072c -6.75  -4.09c   +62.1069
iter:  96 04:51:09  -807.329284c -6.86  -4.27c   +62.1081
iter:  97 04:53:29  -807.329281c -7.32  -4.26c   +62.1064
iter:  98 04:55:50  -807.329460c -6.70  -4.28c   +62.1048
iter:  99 04:58:10  -807.329413c -7.55c -4.24c   +62.1055

Converged after 99 iterations.

Dipole moment: (-39.218758, -6.605553, -46.372836) |e|*Ang

Total magnetic moment: (0.000000, 0.000000, 62.105537)
Local magnetic moments:
   0 Fe ( 0.000000,  0.000000,  1.870622)
   1 Cr ( 0.000000,  0.000000, -0.857159)
   2 Ni ( 0.000000,  0.000000, -0.098686)
   3 Cr ( 0.000000,  0.000000, -1.046277)
   4 Al ( 0.000000,  0.000000, -0.019853)
   5 Fe ( 0.000000,  0.000000,  2.094663)
   6 Ni ( 0.000000,  0.000000,  0.071079)
   7 Al ( 0.000000,  0.000000, -0.015817)
   8 Al ( 0.000000,  0.000000, -0.007246)
   9 Co ( 0.000000,  0.000000,  1.394357)
  10 Ni ( 0.000000,  0.000000,  0.222023)
  11 Co ( 0.000000,  0.000000,  1.406972)
  12 Ni ( 0.000000,  0.000000,  0.476796)
  13 Cr ( 0.000000,  0.000000, -0.301371)
  14 Fe ( 0.000000,  0.000000,  1.331618)
  15 Cr ( 0.000000,  0.000000, -0.673173)
  16 Co ( 0.000000,  0.000000,  1.186562)
  17 Cr ( 0.000000,  0.000000, -0.801886)
  18 Co ( 0.000000,  0.000000,  1.148613)
  19 Fe ( 0.000000,  0.000000,  1.431127)
  20 Cr ( 0.000000,  0.000000, -1.773345)
  21 Fe ( 0.000000,  0.000000,  1.886927)
  22 Co ( 0.000000,  0.000000,  1.170795)
  23 Al ( 0.000000,  0.000000, -0.028628)
  24 Ni ( 0.000000,  0.000000,  0.103825)
  25 Cr ( 0.000000,  0.000000, -1.597281)
  26 Cr ( 0.000000,  0.000000,  0.240523)
  27 Al ( 0.000000,  0.000000, -0.021956)
  28 Cr ( 0.000000,  0.000000, -0.066812)
  29 Cr ( 0.000000,  0.000000, -1.097514)
  30 Fe ( 0.000000,  0.000000,  1.602110)
  31 Fe ( 0.000000,  0.000000,  1.220745)
  32 Ni ( 0.000000,  0.000000,  0.266490)
  33 Cr ( 0.000000,  0.000000,  0.791676)
  34 Co ( 0.000000,  0.000000,  0.658072)
  35 Ni ( 0.000000,  0.000000,  0.209451)
  36 Ni ( 0.000000,  0.000000,  0.268583)
  37 Co ( 0.000000,  0.000000,  1.399738)
  38 Co ( 0.000000,  0.000000,  1.319402)
  39 Cr ( 0.000000,  0.000000,  0.225973)
  40 Fe ( 0.000000,  0.000000,  2.060631)
  41 Al ( 0.000000,  0.000000, -0.044532)
  42 Fe ( 0.000000,  0.000000,  2.033626)
  43 Ni ( 0.000000,  0.000000,  0.397704)
  44 Cr ( 0.000000,  0.000000, -0.873019)
  45 Co ( 0.000000,  0.000000,  1.359312)
  46 Co ( 0.000000,  0.000000,  1.440864)
  47 Ni ( 0.000000,  0.000000,  0.501588)
  48 Ni ( 0.000000,  0.000000,  0.144578)
  49 Cr ( 0.000000,  0.000000,  1.854110)
  50 Co ( 0.000000,  0.000000,  1.042751)
  51 Al ( 0.000000,  0.000000, -0.021035)
  52 Al ( 0.000000,  0.000000, -0.031769)
  53 Fe ( 0.000000,  0.000000,  1.804534)
  54 Fe ( 0.000000,  0.000000,  2.150575)
  55 Fe ( 0.000000,  0.000000,  1.926575)
  56 Ni ( 0.000000,  0.000000,  0.541552)
  57 Ni ( 0.000000,  0.000000,  0.114614)
  58 Co ( 0.000000,  0.000000,  1.340934)
  59 Co ( 0.000000,  0.000000,  0.856271)
  60 Fe ( 0.000000,  0.000000,  0.183608)
  61 Co ( 0.000000,  0.000000,  1.119491)
  62 Al ( 0.000000,  0.000000, -0.015085)
  63 Ni ( 0.000000,  0.000000,  0.079262)
  64 Al ( 0.000000,  0.000000, -0.006520)
  65 Cr ( 0.000000,  0.000000, -1.736704)
  66 Al ( 0.000000,  0.000000, -0.025324)
  67 Ni ( 0.000000,  0.000000,  0.052005)
  68 Al ( 0.000000,  0.000000, -0.041601)
  69 Fe ( 0.000000,  0.000000,  2.174589)
  70 Cr ( 0.000000,  0.000000, -1.806434)
  71 Cr ( 0.000000,  0.000000,  1.442352)
  72 Fe ( 0.000000,  0.000000,  2.163817)
  73 Co ( 0.000000,  0.000000,  1.626107)
  74 Co ( 0.000000,  0.000000,  0.801483)
  75 Co ( 0.000000,  0.000000,  1.454344)
  76 Fe ( 0.000000,  0.000000,  2.186023)
  77 Fe ( 0.000000,  0.000000,  2.215927)
  78 Cr ( 0.000000,  0.000000, -1.646163)
  79 Fe ( 0.000000,  0.000000,  2.163777)
  80 Co ( 0.000000,  0.000000,  1.153792)
  81 Al ( 0.000000,  0.000000, -0.021596)
  82 Ni ( 0.000000,  0.000000,  0.455275)
  83 Ni ( 0.000000,  0.000000,  0.416266)
  84 Ni ( 0.000000,  0.000000,  0.396952)
  85 Fe ( 0.000000,  0.000000,  2.325284)
  86 Co ( 0.000000,  0.000000,  1.451159)
  87 Cr ( 0.000000,  0.000000, -2.048778)
  88 Ni ( 0.000000,  0.000000,  0.432933)
  89 Fe ( 0.000000,  0.000000,  2.169718)
  90 Ni ( 0.000000,  0.000000,  0.203521)
  91 Co ( 0.000000,  0.000000,  1.091722)
  92 Al ( 0.000000,  0.000000, -0.036456)
  93 Cr ( 0.000000,  0.000000,  1.679574)
  94 Fe ( 0.000000,  0.000000,  1.940672)
  95 Cr ( 0.000000,  0.000000, -1.713957)
  96 Ni ( 0.000000,  0.000000,  0.326901)
  97 Fe ( 0.000000,  0.000000,  2.373395)
  98 Co ( 0.000000,  0.000000,  0.383844)
  99 Ni ( 0.000000,  0.000000,  0.330016)
 100 Cr ( 0.000000,  0.000000,  1.779744)
 101 Al ( 0.000000,  0.000000, -0.005189)
 102 Cr ( 0.000000,  0.000000, -1.284824)
 103 Co ( 0.000000,  0.000000,  0.669150)
 104 Al ( 0.000000,  0.000000, -0.010521)
 105 Ni ( 0.000000,  0.000000,  0.029062)
 106 Co ( 0.000000,  0.000000,  1.372551)
 107 Fe ( 0.000000,  0.000000,  2.273612)

Energy contributions relative to reference atoms: (reference = -3382523.201499)

Kinetic:       +460.746418
Potential:     -421.991370
External:        +0.000000
XC:            -877.101640
Entropy (-ST):   -4.194109
Local:          +33.114234
--------------------------
Free energy:   -809.426468
Extrapolated:  -807.329413

Spin contamination: 24.126109 electrons
Showing only first 2 kpts
                      Up                     Down
 Kpt  Band  Eigenvalues  Occupancy  Eigenvalues  Occupancy
  0   470      9.15380    0.99640     10.09802    0.02150
  0   471      9.16560    0.99596     10.10714    0.01966
  0   472      9.17377    0.99561     10.11917    0.01748
  0   473      9.18905    0.99489     10.12982    0.01574

  1   470      9.15366    0.99641     10.08654    0.02406
  1   471      9.17265    0.99566     10.10241    0.02060
  1   472      9.18751    0.99497     10.11314    0.01854
  1   473      9.19996    0.99431     10.13293    0.01526


Fermi level: 9.71623

No gap

Forces in eV/Ang:
  0 Fe   -0.12099    0.55476   -1.53681
  1 Cr   -1.47123    1.27119   -0.18421
  2 Ni    0.97323   -2.74866    0.39958
  3 Cr   -2.74817    4.57059   -1.78712
  4 Al    3.12396   -0.70544   -1.53091
  5 Fe    0.52971   -1.05355   -0.28848
  6 Ni    0.35182    1.76601    0.19664
  7 Al   -0.12138    0.72593    0.45869
  8 Al   -0.60088    1.52551    0.23449
  9 Co    0.17670   -0.83374   -1.30028
 10 Ni    0.58173    0.24228   -0.66341
 11 Co   -0.32706   -0.69014    0.85782
 12 Ni    0.66366   -0.43539    2.83974
 13 Cr   -0.80734    0.31890   -0.55431
 14 Fe    1.19132   -0.10862   -0.44099
 15 Cr    0.09102   -1.32376   -0.97064
 16 Co    0.81164   -0.31829    0.49636
 17 Cr    0.08736   -0.66444    0.43506
 18 Co   -1.85409    0.43625   -0.75588
 19 Fe   -1.67418   -1.15394    1.19889
 20 Cr    1.34013   -0.71858   -0.43211
 21 Fe   -0.76489    1.03409    0.28158
 22 Co    0.31872   -1.47501    0.39671
 23 Al    0.11413    0.45037   -1.70670
 24 Ni    0.65385    1.39435   -1.70611
 25 Cr   -0.29015    0.51627    1.31034
 26 Cr   -1.21026    0.98081   -0.75475
 27 Al    0.02400    0.61854    1.53978
 28 Cr   -0.09139   -0.13376   -0.18422
 29 Cr   -1.57317   -1.49925    1.22343
 30 Fe   -0.03713    0.09063    0.17014
 31 Fe    0.87459    0.37390   -1.65507
 32 Ni    0.08390    0.93018   -0.51013
 33 Cr    0.08841   -0.73285    0.48289
 34 Co   -1.54002    1.68789    1.54591
 35 Ni    1.96376   -1.40599   -0.50037
 36 Ni   -0.55530   -0.50387   -0.75340
 37 Co   -1.11839    1.70207    0.22940
 38 Co    1.45419    0.80988   -0.17422
 39 Cr   -1.29082   -1.05071   -1.17417
 40 Fe    0.21248    0.52246   -1.07954
 41 Al    0.79544    2.67390   -0.14758
 42 Fe    0.56657   -1.30328    1.14326
 43 Ni   -0.38812    1.70530   -0.83428
 44 Cr    1.20775   -0.89425    0.24245
 45 Co   -1.32776   -0.26673    1.26062
 46 Co   -0.61946   -0.44485   -0.60773
 47 Ni    0.48539   -0.58742   -0.93183
 48 Ni   -2.05527   -0.55345    0.25029
 49 Cr   -0.13971   -0.42151   -0.40946
 50 Co   -1.05506   -0.22997   -1.77143
 51 Al    0.37457   -1.79250    0.32244
 52 Al    0.89132    1.28766    0.56007
 53 Fe    0.24302   -1.16598    0.60634
 54 Fe   -2.78162   -0.99328    1.34261
 55 Fe   -1.43197    2.04251   -0.62496
 56 Ni    2.54632   -0.06652   -0.22122
 57 Ni   -0.96270    0.89620   -0.63166
 58 Co    0.14484    0.43818    0.48186
 59 Co    0.64851   -1.34872    0.84805
 60 Fe   -1.94854   -0.28788   -0.53782
 61 Co   -0.87805    0.37381   -1.03417
 62 Al    0.93286    1.02310    1.08798
 63 Ni   -1.08494   -0.27538   -0.46684
 64 Al    1.34281   -0.50213   -1.22647
 65 Cr    0.39141    1.49192    0.84179
 66 Al   -0.19665    0.14274    0.78564
 67 Ni    0.96175   -0.32876    1.20856
 68 Al    0.58201    0.44529    0.53996
 69 Fe    0.94158   -0.38283    0.98029
 70 Cr    0.17922    0.06621   -1.17766
 71 Cr    0.03579   -1.57984    0.02707
 72 Fe    0.09119    0.86736   -1.41242
 73 Co   -0.72499   -0.34314    1.85446
 74 Co    0.00431   -0.04652    0.67909
 75 Co    0.00260   -0.27600    0.36753
 76 Fe    0.31987   -2.53932    1.19232
 77 Fe    1.07935   -1.30146   -0.47402
 78 Cr   -2.80905    1.05533    0.61298
 79 Fe   -0.30046   -0.73769   -0.93334
 80 Co    0.76090   -0.66744   -0.84710
 81 Al    1.68921    2.02817    1.22912
 82 Ni   -0.81959   -0.71390    0.85261
 83 Ni    1.00090   -0.16608    0.24399
 84 Ni   -0.35856   -0.30036   -0.14878
 85 Fe    0.31571    1.35503   -1.56690
 86 Co   -0.64220    0.95222   -1.02752
 87 Cr   -0.64050   -0.31954    0.12289
 88 Ni    1.75289    0.36872    1.26650
 89 Fe    0.64420   -0.17026   -0.50547
 90 Ni    0.15784    0.25317    1.42798
 91 Co    0.11739    1.57190   -0.00751
 92 Al    1.82722    0.12988    1.18432
 93 Cr    0.94109   -0.10665   -0.41604
 94 Fe   -2.37734   -0.97939   -1.36320
 95 Cr    1.79190   -0.09891    0.86338
 96 Ni    0.19488   -0.85502    1.35462
 97 Fe   -0.67554    0.02428    0.82339
 98 Co   -0.66082   -0.80188   -1.43394
 99 Ni    0.93949   -1.20929    1.28958
100 Cr   -0.57047   -0.42703    0.02304
101 Al    0.87624    1.46138   -1.29064
102 Cr    0.25923    0.34068   -0.92138
103 Co   -0.42787   -0.46071   -0.17605
104 Al   -1.33274   -0.57986   -1.36717
105 Ni    2.49132   -0.60815    1.64522
106 Co    0.02038   -1.01181    0.85120
107 Fe   -0.87071    0.16616    0.45372

Timing:                              incl.     excl.
-----------------------------------------------------------
Forces:                             21.082    21.082   0.2% |
Hamiltonian:                         0.723     0.006   0.0% |
 Atomic:                             0.365     0.056   0.0% |
  XC Correction:                     0.308     0.308   0.0% |
 Calculate atomic Hamiltonians:      0.221     0.221   0.0% |
 Communicate:                        0.005     0.005   0.0% |
 Initialize Hamiltonian:             0.000     0.000   0.0% |
 Poisson:                            0.001     0.001   0.0% |
 XC 3D grid:                         0.123     0.123   0.0% |
LCAO initialization:               159.424     1.176   0.0% |
 LCAO eigensolver:                  24.469     0.026   0.0% |
  Calculate projections:             0.587     0.587   0.0% |
  DenseAtomicCorrection:             0.920     0.920   0.0% |
  Distribute overlap matrix:         0.352     0.352   0.0% |
  Orbital Layouts:                  14.919    14.919   0.1% |
  Potential matrix:                  5.945     5.945   0.0% |
  Sum over cells:                    1.720     1.720   0.0% |
 LCAO to grid:                     131.484   131.484   0.9% |
 Set positions (LCAO WFS):           2.295     0.910   0.0% |
  Basic WFS set positions:           0.003     0.003   0.0% |
  Basis functions set positions:     0.001     0.001   0.0% |
  P tci:                             0.902     0.902   0.0% |
  ST tci:                            0.209     0.209   0.0% |
  mktci:                             0.271     0.271   0.0% |
PWDescriptor:                        0.057     0.057   0.0% |
SCF-cycle:                       13849.535     1.616   0.0% |
 Davidson:                       13634.856  2376.213  16.9% |------|
  Apply H:                          96.720    92.411   0.7% |
   HMM T:                            4.309     4.309   0.0% |
  Subspace diag:                   968.370     0.139   0.0% |
   calc_h_matrix:                  387.735   230.945   1.6% ||
    Apply H:                       156.790   152.075   1.1% |
     HMM T:                          4.715     4.715   0.0% |
   diagonalize:                    175.548   175.548   1.3% ||
   rotate_psi:                     404.947   404.947   2.9% ||
  calc. matrices:                 1916.476  1723.610  12.3% |----|
   Apply H:                        192.866   184.304   1.3% ||
    HMM T:                           8.562     8.562   0.1% |
  diagonalize:                    7381.807  7381.807  52.6% |--------------------|
  rotate_psi:                      895.270   895.270   6.4% |--|
 Density:                          117.165     0.004   0.0% |
  Atomic density matrices:           2.897     2.897   0.0% |
  Mix:                              44.729    44.729   0.3% |
  Multipole moments:                 0.053     0.053   0.0% |
  Pseudo density:                   69.482    69.477   0.5% |
   Symmetrize density:               0.006     0.006   0.0% |
 Hamiltonian:                       85.713     0.696   0.0% |
  Atomic:                           35.811     5.461   0.0% |
   XC Correction:                   30.350    30.350   0.2% |
  Calculate atomic Hamiltonians:    35.643    35.643   0.3% |
  Communicate:                       0.496     0.496   0.0% |
  Poisson:                           0.088     0.088   0.0% |
  XC 3D grid:                       12.979    12.979   0.1% |
 Orthonormalize:                    10.185     0.002   0.0% |
  calc_s_matrix:                     1.437     1.437   0.0% |
  inverse-cholesky:                  0.684     0.684   0.0% |
  projections:                       5.884     5.884   0.0% |
  rotate_psi_s:                      2.178     2.178   0.0% |
Set symmetry:                        0.001     0.001   0.0% |
Other:                               3.237     3.237   0.0% |
-----------------------------------------------------------
Total:                                     14034.059 100.0%

Date: Fri Apr 14 04:58:33 2023
