
  ___ ___ ___ _ _ _  
 |   |   |_  | | | | 
 | | | | | . | | | | 
 |__ |  _|___|_____|  22.8.0
 |___|_|             

User:   c.zeng@d0041
Date:   Tue Apr 18 23:00:27 2023
Arch:   x86_64
Pid:    74851
CWD:    /home/c.zeng/projects/hea-corrosion/hea-mlp/data-curation/surface-mcmc/dft-jobs/147
Python: 3.8.1
gpaw:   /home/c.zeng/usr/installs/gpaw/source/gpaw-22.8.0/gpaw
_gpaw:  /home/c.zeng/usr/installs/gpaw/source/gpaw-22.8.0/
        _gpaw.cpython-38-x86_64-linux-gnu.so
ase:    /home/c.zeng/.local/lib/python3.8/site-packages/ase-3.22.1-py3.8.egg/ase (version 3.22.1)
numpy:  /home/c.zeng/.local/lib/python3.8/site-packages/numpy (version 1.24.2)
scipy:  /home/c.zeng/.local/lib/python3.8/site-packages/scipy (version 1.10.1)
libxc:  4.2.3
units:  Angstrom and eV
cores: 30
OpenMP: False
OMP_NUM_THREADS: 1

Input parameters:
  convergence: {energy: 0.0001}
  kpts: [2 2 1]
  maxiter: 666
  mode: {ecut: 350.0,
         name: pw}
  occupations: {fixmagmom: False,
                name: fermi-dirac,
                width: 0.1}
  poissonsolver: {dipolelayer: xy}
  spinpol: True
  symmetry: {point_group: False}
  xc: PBE

System changes: positions, numbers, cell, pbc, initial_charges, initial_magmoms 

Initialize ...

species:
  Fe:
    name: Iron
    id: 37abbd8d6c3c35915a9b583b742da910
    Z: 26.0
    valence: 8
    core: 18
    charge: 0.0
    file: /home/c.zeng/usr/data/gpaw-setups-0.9.20000/Fe.PBE.gz
    compensation charges: {type: gauss,
                           rc: 0.33,
                           lmax: 2}
    cutoffs: {filter: 2.06,
              core: 2.67}
    valence states:
      #              energy  rcut
      - 4s(2.00)    -5.291   1.164
      - 4p(0.00)    -1.326   1.058
      - 3d(6.00)    -7.505   1.058
      -  s          21.920   1.164
      -  p          25.885   1.058
      -  d          19.706   1.058
  
    # Using partial waves for Fe as LCAO basis

  Cr:
    name: Chromium
    id: 33f258bda2ca9f93018e70263a35547b
    Z: 24.0
    valence: 6
    core: 18
    charge: 0.0
    file: /home/c.zeng/usr/data/gpaw-setups-0.9.20000/Cr.PBE.gz
    compensation charges: {type: gauss,
                           rc: 0.35,
                           lmax: 2}
    cutoffs: {filter: 2.14,
              core: 3.04}
    valence states:
      #              energy  rcut
      - 4s(1.00)    -4.007   1.164
      - 4p(0.00)    -0.989   1.217
      - 3d(5.00)    -2.913   1.111
      -  s          23.205   1.164
      -  p          26.223   1.217
      -  d          24.299   1.111
  
    # Using partial waves for Cr as LCAO basis

  Al:
    name: Aluminium
    id: 0292cae29f5d6237e50f6abdd43a7bdd
    Z: 13.0
    valence: 3
    core: 10
    charge: 0.0
    file: /home/c.zeng/usr/data/gpaw-setups-0.9.20000/Al.PBE.gz
    compensation charges: {type: gauss,
                           rc: 0.34,
                           lmax: 2}
    cutoffs: {filter: 1.91,
              core: 2.36}
    valence states:
      #              energy  rcut
      - 3s(2.00)    -7.753   1.085
      - 3p(1.00)    -2.712   1.085
      -  s          19.459   1.085
      -  p          24.499   1.085
      -  d           0.000   1.085
  
    # Using partial waves for Al as LCAO basis

  Co:
    name: Cobalt
    id: 339d20d5b0b93d2de9531a1bee871d91
    Z: 27.0
    valence: 9
    core: 18
    charge: 0.0
    file: /home/c.zeng/usr/data/gpaw-setups-0.9.20000/Co.PBE.gz
    compensation charges: {type: gauss,
                           rc: 0.32,
                           lmax: 2}
    cutoffs: {filter: 1.87,
              core: 2.55}
    valence states:
      #              energy  rcut
      - 4s(2.00)    -5.469   1.005
      - 4p(0.00)    -1.277   1.058
      - 3d(7.00)    -8.205   1.005
      -  s          21.742   1.005
      -  p          25.934   1.058
      -  d          19.007   1.005
  
    # Using partial waves for Co as LCAO basis

  Ni:
    name: Nickel
    id: 0d9f38a9d6e76a2886f07bb4381f212b
    Z: 28.0
    valence: 16
    core: 12
    charge: 0.0
    file: /home/c.zeng/usr/data/gpaw-setups-0.9.20000/Ni.PBE.gz
    compensation charges: {type: gauss,
                           rc: 0.36,
                           lmax: 2}
    cutoffs: {filter: 2.14,
              core: 1.98}
    valence states:
      #              energy  rcut
      - 4s(2.00)    -5.642   1.164
      - 3p(6.00)   -71.394   1.207
      - 4p(0.00)    -1.226   1.207
      - 3d(8.00)    -8.875   1.138
      -  s          21.570   1.164
      -  d          18.337   1.138
  
    # Using partial waves for Ni as LCAO basis

Reference energy: -4103091.665053  # eV

Spin-polarized calculation.
Magnetic moment: 158.800000

Convergence criteria:
 Maximum [total energy] change in last 3 cyles: 0.0001 eV / electron
 Maximum integral of absolute [dens]ity change: 0.0001 electrons / valence electron
 Maximum integral of absolute [eigenst]ate change: 4e-08 eV^2 / valence electron
 Maximum number of scf [iter]ations: 666
 (Square brackets indicate name in SCF output, whereas a 'c' in
 the SCF output indicates the quantity has converged.)

Symmetries present (total): 1

  ( 1  0  0)
  ( 0  1  0)
  ( 0  0  1)

4 k-points: 2 x 2 x 1 Monkhorst-Pack grid
2 k-points in the irreducible part of the Brillouin zone
       k-points in crystal coordinates                weights
   0:     0.25000000   -0.25000000    0.00000000          2/4
   1:     0.25000000    0.25000000    0.00000000          2/4

Wave functions: Plane wave expansion
  Cutoff energy: 350.000 eV
  Number of coefficients (min, max): 59263, 59339
  Pulay-stress correction: 0.000000 eV/Ang^3 (de/decut=0.000000)
  Using FFTW library
  ScaLapack parameters: grid=1x1, blocksize=None
  Wavefunction extrapolation:
    Improved wavefunction reuse through dual PAW basis 

Occupation numbers: Fermi-Dirac:
  width: 0.1000  # eV
 

Eigensolver
   Davidson(niter=2) 

Densities:
  Coarse grid: 56*56*128 grid
  Fine grid: 112*112*256 grid
  Total Charge: 0.000000 

Density mixing:
  Method: difference
  Backend: pulay
  Linear mixing parameter: 0.05
  old densities: 5
  Damping of long wavelength oscillations: 50 

Hamiltonian:
  XC and Coulomb potentials evaluated on a 112*112*256 grid
  Using the PBE Exchange-Correlation functional
  External potential:
    NoExternalPotential
 

XC parameters: PBE with 2 nearest neighbor stencil

Memory estimate:
  Process memory now: 368.12 MiB
  Calculator: 2263.81 MiB
    Density: 18.78 MiB
      Arrays: 7.39 MiB
      Localized functions: 8.44 MiB
      Mixer: 2.95 MiB
    Hamiltonian: 5.74 MiB
      Arrays: 5.49 MiB
      XC: 0.00 MiB
      Poisson: 0.00 MiB
      vbar: 0.26 MiB
    Wavefunctions: 2239.28 MiB
      Arrays psit_nG: 1414.30 MiB
      Eigensolver: 804.77 MiB
      Projections: 3.48 MiB
      Projectors: 1.15 MiB
      PW-descriptor: 15.58 MiB

Total number of cores used: 30
Parallelization over k-points: 2
Domain decomposition: 1 x 3 x 5

Number of atoms: 125
Number of atomic orbitals: 1149
Number of bands in calculation: 781
Number of valence electrons: 1136
Bands to converge: occupied

... initialized

Initializing position-dependent things.

Density initialized from atomic densities
Creating initial wave functions:
  781 bands from LCAO basis set

                                                                  
                                                                  
                                                                  
                                                                  
                                               Cr     Al          
                         Co    Ni    Al    Ni    Cr               
                                                                  
                          Cr    NNi   CFe   CNi   CNi   Co        
                Al    Cr   AFe   CFe    FFe   Co    Fe            
           Ni     Fe    Fe    Ni    Ni                            
                       Ni   FCo   CCr    Al    Co    Ni           
       Co    Fe   NCr   NNi   CAl    Cr   CCo   Co                
              Ni    Fe    Fe     Fe Ni Cr      Fe     Fe          
                   Fe    CCr   FCo   CCr   FCr   Al               
               Cr    Al    Ni     Co   FCr                        
           Cr    Ni    Co    Co NCoCr Cr    NNi   FCo   Al        
                      Ni   CNi   NCo    CFe   FNi   Co            
                  Ni    Fe   FCo   ACr   NCr    Ni                
       Co    Co        Cr                                         
                  FCr    Al    Co    Cr    Fe                     
              Cr    Fe    Fe     Cr    Fe                         
                                                                  
                                                                  
                                                                  
                                                                  
                                                                  

Positions:
   0 Fe    12.533128    1.440034   10.429626    ( 0.0000,  0.0000,  0.0000)
   1 Cr     2.529984    1.448599   10.596851    ( 0.0000,  0.0000,  1.5000)
   2 Fe     5.001844    1.491107   10.507206    ( 0.0000,  0.0000,  2.0000)
   3 Fe     7.517470    1.481371   10.443804    ( 0.0000,  0.0000,  0.0000)
   4 Cr     9.992855    1.449769   10.527665    ( 0.0000,  0.0000,  1.5000)
   5 Fe    13.789466    3.650838   10.562420    ( 0.0000,  0.0000,  0.0000)
   6 Fe     3.743028    3.607376   10.509643    ( 0.0000,  0.0000,  2.0000)
   7 Al     6.277985    3.603907   10.508586    ( 0.0000,  0.0000,  2.1000)
   8 Co     8.774670    3.629318   10.567703    ( 0.0000,  0.0000,  2.0000)
   9 Cr    11.256667    3.628289   10.556285    ( 0.0000,  0.0000,  1.5000)
  10 Ni    15.035471    5.774902   10.514867    ( 0.0000,  0.0000,  1.5000)
  11 Cr     5.000253    5.778068   10.458099    ( 0.0000,  0.0000,  0.0000)
  12 Fe     7.492975    5.732719   10.527548    ( 0.0000,  0.0000,  2.1000)
  13 Al    10.032594    5.738715   10.521208    ( 0.0000,  0.0000,  0.0000)
  14 Ni    12.531668    5.773428   10.506590    ( 0.0000,  0.0000,  0.0000)
  15 Co    16.282097    7.932335   10.424460    ( 0.0000,  0.0000,  1.5000)
  16 Cr     6.249076    7.915716   10.493733    ( 0.0000,  0.0000,  2.1000)
  17 Ni     8.739103    7.939274   10.318290    ( 0.0000,  0.0000,  0.0000)
  18 Co    11.262833    7.889621   10.504036    ( 0.0000,  0.0000,  2.1000)
  19 Fe    13.767197    7.897384   10.366605    ( 0.0000,  0.0000,  2.0000)
  20 Al    17.517670   10.103092   10.481904    ( 0.0000,  0.0000,  0.0000)
  21 Ni     7.497936   10.110681   10.626409    ( 0.0000,  0.0000,  2.0000)
  22 Cr     9.976265   10.147183   10.547802    ( 0.0000,  0.0000,  2.1000)
  23 Ni    12.481525   10.098897   10.273937    ( 0.0000,  0.0000,  0.0000)
  24 Fe    15.038329   10.106659   10.411838    ( 0.0000,  0.0000,  1.5000)
  25 Co     0.029584    0.040775   12.611442    ( 0.0000,  0.0000,  2.0000)
  26 Co     2.524286    0.017743   12.625649    ( 0.0000,  0.0000,  2.0000)
  27 Cr     5.009931    0.016306   12.476653    ( 0.0000,  0.0000,  2.0000)
  28 Fe    13.725795   10.834823   12.477504    ( 0.0000,  0.0000,  0.0000)
  29 Fe    16.291616   10.839907   12.543255    ( 0.0000,  0.0000,  2.0000)
  30 Cr    13.787334    2.177261   12.583938    ( 0.0000,  0.0000,  2.0000)
  31 Ni     3.767898    2.156913   12.580445    ( 0.0000,  0.0000,  0.0000)
  32 Fe     6.250320    2.155536   12.545368    ( 0.0000,  0.0000,  0.0000)
  33 Co     8.760760    2.165922   12.631314    ( 0.0000,  0.0000,  0.0000)
  34 Cr    11.291091    2.189404   12.569467    ( 0.0000,  0.0000,  2.0000)
  35 Ni    15.015728    4.333177   12.562892    ( 0.0000,  0.0000,  2.0000)
  36 Ni     5.006820    4.331518   12.549301    ( 0.0000,  0.0000,  0.0000)
  37 Ni     7.536414    4.362058   12.589016    ( 0.0000,  0.0000,  0.0000)
  38 Co    10.033535    4.360377   12.602577    ( 0.0000,  0.0000,  1.5000)
  39 Fe    12.523539    4.334760   12.563508    ( 0.0000,  0.0000,  2.0000)
  40 Co    16.274251    6.492117   12.533950    ( 0.0000,  0.0000,  1.5000)
  41 Co     6.308192    6.475432   12.559751    ( 0.0000,  0.0000,  2.1000)
  42 Co     8.776271    6.490035   12.490008    ( 0.0000,  0.0000,  2.0000)
  43 Fe    11.278289    6.490805   12.557021    ( 0.0000,  0.0000,  1.5000)
  44 Ni    13.752272    6.468516   12.517952    ( 0.0000,  0.0000,  2.1000)
  45 Cr     5.108056    8.658624   12.557785    ( 0.0000,  0.0000,  0.0000)
  46 Fe     7.566363    8.646547   12.581003    ( 0.0000,  0.0000,  1.5000)
  47 Co     9.994311    8.654038   12.473248    ( 0.0000,  0.0000,  2.0000)
  48 Fe    12.478693    8.644812   12.462622    ( 0.0000,  0.0000,  2.1000)
  49 Al    14.946058    8.624518   12.480087    ( 0.0000,  0.0000,  0.0000)
  50 Cr     1.256201    0.763084   14.702997    ( 0.0000,  0.0000,  2.1000)
  51 Ni     3.741141    0.768517   14.684241    ( 0.0000,  0.0000,  1.5000)
  52 Co     6.299995    0.774666   14.698271    ( 0.0000,  0.0000,  0.0000)
  53 Co     8.776010    0.777622   14.780255    ( 0.0000,  0.0000,  2.1000)
  54 Cr    11.299537    0.773215   14.649927    ( 0.0000,  0.0000,  1.5000)
  55 Cr     2.503641    2.894650   14.677166    ( 0.0000,  0.0000,  1.5000)
  56 Al     5.003149    2.898769   14.726979    ( 0.0000,  0.0000,  1.5000)
  57 Ni     7.507897    2.915183   14.810283    ( 0.0000,  0.0000,  0.0000)
  58 Co    10.051236    2.911302   14.719875    ( 0.0000,  0.0000,  1.5000)
  59 Cr    12.558998    2.904027   14.656326    ( 0.0000,  0.0000,  2.0000)
  60 Fe     3.714729    5.068312   14.654653    ( 0.0000,  0.0000,  0.0000)
  61 Cr     6.295139    5.069515   14.699915    ( 0.0000,  0.0000,  0.0000)
  62 Co     8.776914    5.060506   14.664779    ( 0.0000,  0.0000,  2.1000)
  63 Cr    11.297436    5.056712   14.652715    ( 0.0000,  0.0000,  0.0000)
  64 Cr    13.775594    5.062599   14.637129    ( 0.0000,  0.0000,  0.0000)
  65 Ni     5.020095    7.203792   14.693017    ( 0.0000,  0.0000,  1.5000)
  66 Cr     7.527582    7.223934   14.646111    ( 0.0000,  0.0000,  2.0000)
  67 Ni    10.007193    7.208139   14.579832    ( 0.0000,  0.0000,  2.1000)
  68 Co    12.551373    7.215565   14.635837    ( 0.0000,  0.0000,  1.5000)
  69 Co    15.022437    7.200789   14.781399    ( 0.0000,  0.0000,  2.1000)
  70 Fe     6.300157    9.420840   14.712918    ( 0.0000,  0.0000,  2.1000)
  71 Co     8.732283    9.401749   14.673585    ( 0.0000,  0.0000,  0.0000)
  72 Al    11.263746    9.439649   14.574753    ( 0.0000,  0.0000,  0.0000)
  73 Cr    13.786012    9.419517   14.774443    ( 0.0000,  0.0000,  0.0000)
  74 Ni    16.298882    9.432071   14.813071    ( 0.0000,  0.0000,  0.0000)
  75 Cr    12.551235    1.460849   16.768751    ( 0.0000,  0.0000,  2.0000)
  76 Ni     2.485776    1.461489   16.791235    ( 0.0000,  0.0000,  2.0000)
  77 Fe     4.988873    1.437953   16.800129    ( 0.0000,  0.0000,  0.0000)
  78 Fe     7.521264    1.441801   16.853904    ( 0.0000,  0.0000,  2.1000)
  79 Fe    10.041408    1.441801   16.816508    ( 0.0000,  0.0000,  0.0000)
  80 Co    13.786651    3.599104   16.753634    ( 0.0000,  0.0000,  2.1000)
  81 Ni     3.751487    3.571785   16.825197    ( 0.0000,  0.0000,  0.0000)
  82 Ni     6.255931    3.593012   16.814131    ( 0.0000,  0.0000,  1.5000)
  83 Al     8.779489    3.570907   16.858483    ( 0.0000,  0.0000,  2.0000)
  84 Cr    11.301319    3.615409   16.751961    ( 0.0000,  0.0000,  1.5000)
  85 Co    14.996321    5.774306   16.825755    ( 0.0000,  0.0000,  1.5000)
  86 Ni     4.982905    5.789733   16.828220    ( 0.0000,  0.0000,  0.0000)
  87 Co     7.569540    5.790156   16.758477    ( 0.0000,  0.0000,  0.0000)
  88 Cr    10.026136    5.746347   16.763908    ( 0.0000,  0.0000,  0.0000)
  89 Al    12.543367    5.747160   16.772185    ( 0.0000,  0.0000,  2.1000)
  90 Fe    16.270128    7.958744   16.878796    ( 0.0000,  0.0000,  2.0000)
  91 Al     6.261908    7.982584   16.782048    ( 0.0000,  0.0000,  2.1000)
  92 Co     8.742457    7.968610   16.764142    ( 0.0000,  0.0000,  2.1000)
  93 Fe    11.277906    7.926015   16.857984    ( 0.0000,  0.0000,  0.0000)
  94 Co    13.798645    7.959796   16.862475    ( 0.0000,  0.0000,  1.5000)
  95 Co    17.564450   10.140147   16.843601    ( 0.0000,  0.0000,  1.5000)
  96 Ni     7.506508   10.131539   16.775003    ( 0.0000,  0.0000,  1.5000)
  97 Co     9.982830   10.139106   16.778819    ( 0.0000,  0.0000,  1.5000)
  98 Co    12.538883   10.154728   16.858689    ( 0.0000,  0.0000,  2.0000)
  99 Cr    15.023737   10.130021   16.876066    ( 0.0000,  0.0000,  2.1000)
 100 Co     0.021688    0.020369   18.796081    ( 0.0000,  0.0000,  2.1000)
 101 Fe     2.494821    0.007467   18.769576    ( 0.0000,  0.0000,  2.1000)
 102 Cr     4.985998    0.002849   18.819329    ( 0.0000,  0.0000,  0.0000)
 103 Cr    13.754781   10.818030   18.872752    ( 0.0000,  0.0000,  2.1000)
 104 Al    16.317444   10.810593   18.850326    ( 0.0000,  0.0000,  1.5000)
 105 Ni     1.256161    2.173586   18.792882    ( 0.0000,  0.0000,  2.0000)
 106 Fe     3.725304    2.151503   18.833213    ( 0.0000,  0.0000,  2.0000)
 107 Fe     6.222195    2.156804   18.811081    ( 0.0000,  0.0000,  2.1000)
 108 Ni     8.770579    2.162528   19.045201    ( 0.0000,  0.0000,  0.0000)
 109 Ni    11.307466    2.180958   18.775534    ( 0.0000,  0.0000,  2.0000)
 110 Al     2.502140    4.316579   18.803537    ( 0.0000,  0.0000,  2.0000)
 111 Cr     4.984546    4.312123   18.946281    ( 0.0000,  0.0000,  0.0000)
 112 Fe     7.501088    4.367044   18.820386    ( 0.0000,  0.0000,  0.0000)
 113 Fe    10.059972    4.352084   18.800162    ( 0.0000,  0.0000,  2.0000)
 114 Fe    12.539763    4.316026   18.767286    ( 0.0000,  0.0000,  2.1000)
 115 Ni    16.262819    6.510059   18.894150    ( 0.0000,  0.0000,  2.0000)
 116 Cr     6.269967    6.534842   18.850238    ( 0.0000,  0.0000,  1.5000)
 117 Ni     8.788984    6.511186   18.794614    ( 0.0000,  0.0000,  1.5000)
 118 Fe    11.281904    6.480051   18.877595    ( 0.0000,  0.0000,  2.1000)
 119 Ni    13.777508    6.479303   18.838585    ( 0.0000,  0.0000,  0.0000)
 120 Co     5.014689    8.654765   18.845336    ( 0.0000,  0.0000,  2.0000)
 121 Ni     7.516337    8.678810   18.792882    ( 0.0000,  0.0000,  2.1000)
 122 Al     9.994976    8.686659   18.888573    ( 0.0000,  0.0000,  1.5000)
 123 Ni    12.542280    8.675037   18.940675    ( 0.0000,  0.0000,  0.0000)
 124 Cr    15.038373    8.673617   18.869083    ( 0.0000,  0.0000,  2.1000)

Unit cell:
           periodic     x           y           z      points  spacing
  1. axis:    yes   12.530300    0.000000    0.000000    56     0.1938
  2. axis:    yes    6.259130   10.841100    0.000000    56     0.1936
  3. axis:    no     0.000000    0.000000   29.353100   128     0.2293

  Lengths:  12.530300  12.518233  29.353100
  Angles:   90.000000  90.000000  59.999929

Effective grid spacing dv^(1/3) = 0.2150

     iter     time        total  log10-change:  magmom
                         energy  eigst   dens
iter:   1 23:10:05 -1068.738304                  +158.2790
iter:   2 23:13:18 -1215.897986  -0.20  -1.20    +125.1556
iter:   3 23:16:32 -2123.059993  +0.37  -1.04    +100.1802
iter:   4 23:19:44 -1020.256917  -0.16  -0.76    +68.7819
iter:   5 23:22:59  -978.966019  -0.93  -1.26    +53.1380
iter:   6 23:26:14  -966.291572  -1.44  -1.32    +49.9467
iter:   7 23:29:28  -972.052238  -1.58  -1.36    +49.2166
iter:   8 23:32:42  -958.060057  -1.60  -1.33    +49.5013
iter:   9 23:35:57  -967.604510  -1.53  -1.41    +49.4351
iter:  10 23:39:11 -1002.592966  -1.43  -1.39    +47.7893
iter:  11 23:42:25  -949.282162  -1.71  -1.28    +46.6380
iter:  12 23:45:38  -959.934458  -1.65  -1.56    +46.4926
iter:  13 23:48:52  -974.946671  -1.54  -1.50    +46.8508
iter:  14 23:52:04  -946.980822  -1.93  -1.42    +46.4710
iter:  15 23:55:17  -947.059881  -2.21  -1.59    +48.2178
iter:  16 23:58:30  -951.015147  -2.26  -1.61    +50.3054
iter:  17 00:01:44  -942.173443  -2.52  -1.58    +50.7496
iter:  18 00:04:57  -942.306829  -2.68  -1.69    +53.5119
iter:  19 00:08:11  -966.143337  -1.97  -1.75    +55.3079
iter:  20 00:11:25  -959.226769  -1.81  -1.50    +56.2041
iter:  21 00:14:37  -950.314981  -2.26  -1.57    +56.0709
iter:  22 00:17:50  -963.797024  -1.91  -1.74    +56.6001
iter:  23 00:21:04  -944.567161  -2.26  -1.54    +57.0368
iter:  24 00:24:15  -943.429119  -2.64  -1.90    +58.4911
iter:  25 00:27:28  -943.506006  -3.04  -1.94    +60.9290
iter:  26 00:30:41  -953.988591  -2.43  -2.00    +63.0355
iter:  27 00:33:54  -945.497546  -2.49  -1.69    +63.7075
iter:  28 00:37:07  -945.101528  -2.83  -1.98    +65.3971
iter:  29 00:40:20  -946.316366  -2.78  -2.10    +66.2178
iter:  30 00:43:33  -947.443004  -2.61  -2.05    +67.5433
iter:  31 00:46:45  -946.690313  -2.71  -2.03    +68.3566
iter:  32 00:49:57  -948.450769  -2.84  -2.09    +69.2541
iter:  33 00:53:10  -946.380078  -2.96  -1.96    +69.9701
iter:  34 00:56:23  -946.057687  -3.34  -2.20    +70.7810
iter:  35 00:59:35  -946.397405  -3.34  -2.30    +72.1601
iter:  36 01:02:47  -946.983633  -2.88  -2.31    +74.0840
iter:  37 01:06:01  -946.994950  -3.80  -2.27    +73.6913
iter:  38 01:09:14  -947.812597  -3.40  -2.28    +73.8705
iter:  39 01:12:28  -947.161319  -3.88  -2.14    +73.6797
iter:  40 01:15:39  -947.518925  -3.86  -2.26    +73.6772
iter:  41 01:18:53  -948.125047  -3.38  -2.23    +73.7297
iter:  42 01:22:07  -948.637335  -3.10  -2.17    +73.6734
iter:  43 01:25:21  -947.648721  -3.01  -2.09    +73.6387
iter:  44 01:28:32  -947.429659  -3.31  -2.20    +73.5946
iter:  45 01:31:45  -948.572675  -2.64  -2.26    +73.4331
iter:  46 01:34:58  -947.847484  -2.83  -2.17    +73.4753
iter:  47 01:38:11  -948.095622  -3.12  -2.22    +73.7025
iter:  48 01:41:25  -948.462839  -3.11  -2.17    +73.7303
iter:  49 01:44:37  -947.371748  -3.32  -2.16    +73.6148
iter:  50 01:47:51  -947.253753  -3.49  -2.41    +73.5392
iter:  51 01:51:03  -947.231405  -3.70  -2.45    +73.6788
iter:  52 01:54:17  -947.530233  -3.44  -2.53    +73.9908
iter:  53 01:57:29  -948.082208  -3.19  -2.39    +73.9785
iter:  54 02:00:42  -947.950610  -3.27  -2.23    +73.8328
iter:  55 02:03:56  -947.197150  -3.65  -2.26    +73.8660
iter:  56 02:07:08  -947.178100  -3.88  -2.66    +73.9782
iter:  57 02:10:19  -947.150829c -4.56  -2.67    +74.0054
iter:  58 02:13:32  -947.160334c -4.58  -2.76    +74.0075
iter:  59 02:16:46  -947.199725c -4.59  -2.77    +74.0394
iter:  60 02:19:59  -947.470500  -3.98  -2.73    +74.0499
iter:  61 02:23:13  -947.251326  -3.99  -2.47    +73.9914
iter:  62 02:26:27  -947.303911  -3.78  -2.72    +73.9489
iter:  63 02:29:41  -947.228815c -3.95  -2.72    +73.9383
iter:  64 02:32:55  -947.242318c -4.19  -2.80    +73.9253
iter:  65 02:36:08  -947.248316c -4.38  -2.87    +73.8273
iter:  66 02:39:22  -947.244175c -4.66  -2.85    +73.7218
iter:  67 02:42:35  -947.248726c -4.86  -2.94    +73.6759
iter:  68 02:45:49  -947.283915c -4.39  -3.01    +73.5842
iter:  69 02:48:56  -947.278519c -4.81  -2.93    +73.5302
iter:  70 02:52:10  -947.305178c -4.81  -2.98    +73.4469
iter:  71 02:55:24  -947.315441c -5.05  -2.93    +73.4341
iter:  72 02:58:38  -947.334722c -4.76  -2.94    +73.3572
iter:  73 03:01:53  -947.382836c -4.39  -2.94    +73.2727
iter:  74 03:05:07  -947.347907c -5.02  -2.78    +73.2380
iter:  75 03:08:21  -947.423189c -3.99  -2.92    +73.0962
iter:  76 03:11:35  -947.353161c -4.48  -2.74    +73.0956
iter:  77 03:14:46  -947.368771c -4.25  -2.90    +73.1053
iter:  78 03:18:00  -947.362276c -4.61  -2.92    +73.0186
iter:  79 03:21:13  -949.121325  -3.33  -2.92    +72.9466
iter:  80 03:24:27  -947.340707  -3.63  -2.11    +72.9616
iter:  81 03:27:41  -947.341838  -4.39  -3.11    +72.9522
iter:  82 03:30:53  -947.345642c -4.60  -3.10    +72.9330
iter:  83 03:34:05  -947.346491c -4.88  -3.13    +72.8639
iter:  84 03:37:18  -947.337478c -5.02  -3.11    +72.8412
iter:  85 03:40:30  -947.352928c -5.09  -3.32    +72.8057
iter:  86 03:43:44  -947.406412c -4.54  -3.12    +72.7653
iter:  87 03:46:57  -947.343535c -4.93  -2.81    +72.7443
iter:  88 03:50:09  -947.350735c -4.88  -3.44    +72.6705
iter:  89 03:53:20  -947.349489c -5.27  -3.28    +72.6744
iter:  90 03:56:34  -947.354197c -5.08  -3.45    +72.6036
iter:  91 03:59:47  -947.353745c -5.63  -3.43    +72.5946
iter:  92 04:03:00  -947.368735c -5.11  -3.53    +72.5543
iter:  93 04:06:12  -947.358725c -5.64  -3.16    +72.5361
iter:  94 04:09:24  -947.363279c -5.49  -3.60    +72.4881
iter:  95 04:12:38  -947.373318c -5.01  -3.60    +72.4030
iter:  96 04:15:51  -947.395938c -4.21  -3.55    +72.1232
iter:  97 04:19:04  -947.403838c -4.42  -3.40    +71.9303
iter:  98 04:22:20  -947.407622c -4.70  -3.34    +71.8421
iter:  99 04:25:32  -947.412116c -5.17  -3.26    +71.8783
iter: 100 04:28:46  -947.404492c -5.25  -3.17    +71.8514
iter: 101 04:31:59  -947.403517c -5.17  -3.29    +71.8493
iter: 102 04:35:11  -947.439686c -4.67  -3.25    +71.8710
iter: 103 04:38:24  -947.407106c -4.58  -2.90    +71.9009
iter: 104 04:41:36  -947.396802c -5.04  -3.17    +71.9105
iter: 105 04:44:49  -947.416637c -5.12  -3.37    +71.9134
iter: 106 04:48:03  -947.406406c -4.91  -3.04    +71.9086
iter: 107 04:51:15  -947.398329c -5.00  -3.15    +71.8842
iter: 108 04:54:29  -947.403028c -5.04  -3.31    +71.9351
iter: 109 04:57:42  -947.411884c -4.87  -3.21    +71.9520
iter: 110 05:00:54  -947.407235c -4.79  -3.09    +71.9246
iter: 111 05:04:07  -947.409148c -5.00  -3.15    +71.9321
iter: 112 05:07:20  -947.396606c -5.18  -3.09    +71.9456
iter: 113 05:10:33  -947.396007c -5.40  -3.35    +71.9717
iter: 114 05:13:46  -947.394991c -5.63  -3.51    +71.9449
iter: 115 05:16:59  -947.394213c -5.78  -3.50    +71.9410
iter: 116 05:20:11  -947.398328c -5.49  -3.52    +71.9511
iter: 117 05:23:21  -947.400787c -5.38  -3.32    +71.9514
iter: 118 05:26:34  -947.396651c -5.47  -3.29    +71.9499
iter: 119 05:29:48  -947.393602c -5.68  -3.42    +71.9375
iter: 120 05:33:02  -947.393877c -5.77  -3.62    +71.9618
iter: 121 05:36:15  -947.394538c -6.03  -3.66    +71.9668
iter: 122 05:39:29  -947.394555c -5.94  -3.59    +71.9592
iter: 123 05:42:42  -947.395208c -5.90  -3.61    +71.9597
iter: 124 05:45:56  -947.394019c -5.92  -3.47    +71.9588
iter: 125 05:49:09  -947.394489c -6.09  -3.65    +71.9663
iter: 126 05:52:23  -947.394013c -5.92  -3.71    +71.9550
iter: 127 05:55:35  -947.393694c -6.03  -3.72    +71.9582
iter: 128 05:58:47  -947.393995c -6.12  -3.68    +71.9689
iter: 129 06:01:59  -947.395888c -5.98  -3.69    +71.9728
iter: 130 06:05:07  -947.393768c -6.13  -3.53    +71.9765
iter: 131 06:08:20  -947.393462c -6.53  -3.80    +71.9726
iter: 132 06:11:33  -947.393971c -6.29  -3.89    +71.9779
iter: 133 06:14:46  -947.394623c -6.20  -3.88    +71.9783
iter: 134 06:17:59  -947.394351c -6.28  -3.73    +71.9732
iter: 135 06:21:12  -947.395918c -5.92  -3.80    +71.9763
iter: 136 06:24:25  -947.394346c -6.02  -3.49    +71.9767
iter: 137 06:27:36  -947.394402c -6.46  -3.81    +71.9863
iter: 138 06:30:49  -947.394080c -6.41  -3.90    +71.9855
iter: 139 06:34:01  -947.393962c -6.53  -3.99    +71.9907
iter: 140 06:37:14  -947.394134c -6.93  -3.97    +71.9989
iter: 141 06:40:27  -947.396811c -6.09  -4.13c   +72.0063
iter: 142 06:43:39  -947.394639c -6.09  -3.56    +72.0040
iter: 143 06:46:51  -947.394499c -6.25  -3.80    +72.0079
iter: 144 06:50:04  -947.395022c -6.35  -3.97    +72.0143
iter: 145 06:53:18  -947.395474c -6.19  -4.06c   +72.0153
iter: 146 06:56:32  -947.394865c -6.55  -3.92    +72.0145
iter: 147 06:59:44  -947.394962c -6.73  -4.14c   +72.0235
iter: 148 07:02:55  -947.395493c -6.50  -4.33c   +72.0288
iter: 149 07:06:09  -947.395227c -6.49  -3.81    +72.0330
iter: 150 07:09:23  -947.395953c -6.35  -4.07c   +72.0454
iter: 151 07:12:38  -947.396360c -6.41  -4.04c   +72.0496
iter: 152 07:15:51  -947.395911c -6.50  -3.92    +72.0510
iter: 153 07:19:05  -947.397443c -6.27  -4.30c   +72.0621
iter: 154 07:22:20  -947.396310c -6.45  -3.71    +72.0591
iter: 155 07:25:33  -947.396675c -6.22  -3.93    +72.0680
iter: 156 07:28:47  -947.396891c -6.65  -3.90    +72.0721
iter: 157 07:31:58  -947.397439c -6.44  -4.07c   +72.0811
iter: 158 07:35:12  -947.397811c -6.10  -4.10c   +72.0658
iter: 159 07:38:26  -947.399337c -5.85  -3.81    +72.0893
iter: 160 07:41:39  -947.397906c -6.12  -3.65    +72.0874
iter: 161 07:44:53  -947.398148c -6.02  -3.74    +72.1009
iter: 162 07:48:07  -947.398582c -6.13  -3.83    +72.1094
iter: 163 07:51:21  -947.398860c -6.29  -3.91    +72.1208
iter: 164 07:54:36  -947.399844c -6.29  -4.05c   +72.1268
iter: 165 07:57:50  -947.400416c -6.46  -3.93    +72.1337
iter: 166 08:01:05  -947.400250c -6.29  -3.79    +72.1466
iter: 167 08:04:19  -947.400920c -6.37  -3.98    +72.1589
iter: 168 08:07:33  -947.397790c -5.40  -4.02c   +72.0971
iter: 169 08:10:46  -947.397321c -5.87  -4.01c   +72.1071
iter: 170 08:13:58  -947.398666c -6.31  -4.01c   +72.1228
iter: 171 08:17:13  -947.403602c -5.97  -4.14c   +72.1182
iter: 172 08:20:27  -947.400201c -5.76  -3.38    +72.1383
iter: 173 08:23:40  -947.400218c -6.15  -3.85    +72.1385
iter: 174 08:26:57  -947.399843c -6.49  -4.10c   +72.1349
iter: 175 08:30:10  -947.400634c -5.92  -3.95    +72.1628
iter: 176 08:33:23  -947.400913c -6.54  -3.76    +72.1743
iter: 177 08:36:37  -947.401724c -6.11  -3.86    +72.1910
iter: 178 08:39:51  -947.401794c -6.72  -3.81    +72.1937
iter: 179 08:43:05  -947.404060c -5.91  -3.87    +72.2088
iter: 180 08:46:18  -947.403291c -6.41  -3.77    +72.2088
iter: 181 08:49:31  -947.404237c -6.04  -3.77    +72.2201
iter: 182 08:52:45  -947.405342c -5.93  -3.92    +72.2289
iter: 183 08:56:00  -947.405798c -6.32  -3.78    +72.2303
iter: 184 08:59:14  -947.405820c -5.98  -3.78    +72.2634
iter: 185 09:02:28  -947.406845c -6.34  -3.79    +72.2703
iter: 186 09:05:43  -947.407419c -6.25  -3.82    +72.2965
iter: 187 09:08:57  -947.439347c -5.04  -3.76    +72.2800
iter: 188 09:12:10  -947.409278c -5.37  -2.98    +72.3251
iter: 189 09:15:23  -947.411551c -5.65  -3.75    +72.3529
iter: 190 09:18:36  -947.411645c -5.90  -3.70    +72.3695
iter: 191 09:21:48  -947.413566c -5.72  -3.75    +72.3918
iter: 192 09:25:01  -947.413799c -5.88  -3.69    +72.3990
iter: 193 09:28:15  -947.414856c -5.98  -3.72    +72.4093
iter: 194 09:31:29  -947.418417c -5.86  -3.76    +72.4315
iter: 195 09:34:43  -947.417405c -6.25  -3.46    +72.4109
iter: 196 09:37:56  -947.417961c -5.67  -3.54    +72.3983
iter: 197 09:41:09  -947.418250c -5.92  -3.57    +72.4419
iter: 198 09:44:21  -947.422620c -5.57  -3.73    +72.4853
iter: 199 09:47:34  -947.422008c -5.24  -3.54    +72.4052
iter: 200 09:50:47  -947.422736c -5.23  -3.31    +72.4941
iter: 201 09:54:00  -947.423683c -5.61  -3.44    +72.4991
iter: 202 09:57:13  -947.423250c -5.43  -3.54    +72.4959
iter: 203 10:00:26  -947.423258c -5.67  -3.59    +72.5259
iter: 204 10:03:40  -947.428115c -5.33  -3.73    +72.5564
iter: 205 10:06:53  -947.430458c -5.37  -3.43    +72.5648
iter: 206 10:10:06  -947.427318c -5.49  -3.36    +72.5792
iter: 207 10:13:19  -947.427547c -6.02  -3.69    +72.5947
iter: 208 10:16:34  -947.431511c -5.25  -3.80    +72.6687
iter: 209 10:19:46  -947.444377c -4.32  -3.84    +72.8692
iter: 210 10:22:59  -947.448850c -4.58  -3.64    +72.9534
iter: 211 10:26:13  -947.446775c -4.56  -3.55    +73.0126
iter: 212 10:29:28  -947.446869c -5.37  -3.45    +72.9512
iter: 213 10:32:42  -947.449554c -5.70  -3.55    +72.9389
iter: 214 10:35:54  -947.446377c -5.99  -3.42    +72.9295
iter: 215 10:39:06  -947.463038c -4.56  -3.57    +72.8986
iter: 216 10:42:20  -947.445083c -5.05  -3.02    +72.8987
iter: 217 10:45:35  -947.453637c -4.62  -3.22    +72.8538
iter: 218 10:48:48  -947.440438c -5.13  -3.12    +72.8442
iter: 219 10:52:03  -947.452879c -4.96  -3.51    +72.7740
iter: 220 10:55:17  -947.450331c -5.00  -3.12    +72.7720
iter: 221 10:58:30  -947.444345c -5.20  -3.16    +72.7564
iter: 222 11:01:44  -947.439121c -5.55  -3.49    +72.7124
iter: 223 11:04:59  -947.443808c -5.45  -3.69    +72.6890
iter: 224 11:08:15  -947.439133c -5.67  -3.39    +72.6796
iter: 225 11:11:30  -947.440285c -6.16  -3.65    +72.6699
iter: 226 11:14:46  -947.532799c -4.60  -3.63    +72.6511
iter: 227 11:17:59  -947.438881c -4.93  -2.75    +72.6438
iter: 228 11:21:14  -947.439272c -5.81  -3.86    +72.6271
iter: 229 11:24:29  -947.438819c -6.24  -3.90    +72.6230
iter: 230 11:27:46  -947.439981c -6.20  -3.99    +72.6122
iter: 231 11:31:02  -947.439024c -6.41  -3.91    +72.5961
iter: 232 11:34:19  -947.439931c -6.54  -4.13c   +72.5861
iter: 233 11:37:37  -947.440069c -6.23  -3.79    +72.5812
iter: 234 11:41:00  -947.439329c -6.56  -3.73    +72.5745
iter: 235 11:44:23  -947.439720c -6.62  -4.09c   +72.5568
iter: 236 11:47:42  -947.439235c -6.62  -4.21c   +72.5470
iter: 237 11:50:59  -947.439839c -6.59  -4.15c   +72.5442
iter: 238 11:54:16  -947.439887c -6.85  -4.15c   +72.5378
iter: 239 11:57:36  -947.439810c -6.67  -3.94    +72.5307
iter: 240 12:00:52  -947.439778c -7.12  -4.02c   +72.5250
iter: 241 12:04:05  -947.439684c -7.26  -4.34c   +72.5160
iter: 242 12:07:25  -947.439793c -7.40c -4.43c   +72.5094

Converged after 242 iterations.

Dipole moment: (45.385770, 31.814186, -0.005558) |e|*Ang

Total magnetic moment: (0.000000, 0.000000, 72.509372)
Local magnetic moments:
   0 Fe ( 0.000000,  0.000000, -2.265366)
   1 Cr ( 0.000000,  0.000000, -1.797462)
   2 Fe ( 0.000000,  0.000000,  2.198533)
   3 Fe ( 0.000000,  0.000000,  2.508062)
   4 Cr ( 0.000000,  0.000000, -2.184868)
   5 Fe ( 0.000000,  0.000000, -2.205894)
   6 Fe ( 0.000000,  0.000000,  2.447319)
   7 Al ( 0.000000,  0.000000, -0.055612)
   8 Co ( 0.000000,  0.000000,  1.188575)
   9 Cr ( 0.000000,  0.000000,  1.757260)
  10 Ni ( 0.000000,  0.000000,  0.336996)
  11 Cr ( 0.000000,  0.000000, -2.482426)
  12 Fe ( 0.000000,  0.000000,  2.389813)
  13 Al ( 0.000000,  0.000000, -0.051823)
  14 Ni ( 0.000000,  0.000000,  0.367161)
  15 Co ( 0.000000,  0.000000,  1.138797)
  16 Cr ( 0.000000,  0.000000,  2.277734)
  17 Ni ( 0.000000,  0.000000,  0.464031)
  18 Co ( 0.000000,  0.000000,  1.488035)
  19 Fe ( 0.000000,  0.000000,  2.746790)
  20 Al ( 0.000000,  0.000000, -0.006369)
  21 Ni ( 0.000000,  0.000000,  0.007609)
  22 Cr ( 0.000000,  0.000000,  1.857362)
  23 Ni ( 0.000000,  0.000000,  0.452291)
  24 Fe ( 0.000000,  0.000000,  2.487606)
  25 Co ( 0.000000,  0.000000,  0.038058)
  26 Co ( 0.000000,  0.000000,  0.766804)
  27 Cr ( 0.000000,  0.000000, -1.775713)
  28 Fe ( 0.000000,  0.000000,  2.251218)
  29 Fe ( 0.000000,  0.000000,  2.015106)
  30 Cr ( 0.000000,  0.000000,  0.628594)
  31 Ni ( 0.000000,  0.000000,  0.202261)
  32 Fe ( 0.000000,  0.000000,  2.377323)
  33 Co ( 0.000000,  0.000000,  1.385494)
  34 Cr ( 0.000000,  0.000000, -0.270802)
  35 Ni ( 0.000000,  0.000000,  0.159248)
  36 Ni ( 0.000000,  0.000000,  0.307145)
  37 Ni ( 0.000000,  0.000000,  0.430439)
  38 Co ( 0.000000,  0.000000,  1.082685)
  39 Fe ( 0.000000,  0.000000,  1.505464)
  40 Co ( 0.000000,  0.000000,  1.377305)
  41 Co ( 0.000000,  0.000000,  1.009261)
  42 Co ( 0.000000,  0.000000,  1.492250)
  43 Fe ( 0.000000,  0.000000,  2.291444)
  44 Ni ( 0.000000,  0.000000,  0.443831)
  45 Cr ( 0.000000,  0.000000, -1.941772)
  46 Fe ( 0.000000,  0.000000,  2.313078)
  47 Co ( 0.000000,  0.000000,  1.267939)
  48 Fe ( 0.000000,  0.000000,  2.183499)
  49 Al ( 0.000000,  0.000000, -0.052246)
  50 Cr ( 0.000000,  0.000000,  0.214871)
  51 Ni ( 0.000000,  0.000000,  0.225489)
  52 Co ( 0.000000,  0.000000,  0.952195)
  53 Co ( 0.000000,  0.000000,  1.205951)
  54 Cr ( 0.000000,  0.000000, -1.125066)
  55 Cr ( 0.000000,  0.000000, -0.417876)
  56 Al ( 0.000000,  0.000000, -0.033894)
  57 Ni ( 0.000000,  0.000000,  0.354406)
  58 Co ( 0.000000,  0.000000,  0.883570)
  59 Cr ( 0.000000,  0.000000,  0.096495)
  60 Fe ( 0.000000,  0.000000,  2.123305)
  61 Cr ( 0.000000,  0.000000,  1.495129)
  62 Co ( 0.000000,  0.000000,  0.948801)
  63 Cr ( 0.000000,  0.000000, -0.500931)
  64 Cr ( 0.000000,  0.000000, -0.567385)
  65 Ni ( 0.000000,  0.000000,  0.279593)
  66 Cr ( 0.000000,  0.000000, -1.873887)
  67 Ni ( 0.000000,  0.000000,  0.237072)
  68 Co ( 0.000000,  0.000000,  0.926352)
  69 Co ( 0.000000,  0.000000,  1.321343)
  70 Fe ( 0.000000,  0.000000,  2.142994)
  71 Co ( 0.000000,  0.000000,  1.260759)
  72 Al ( 0.000000,  0.000000, -0.024694)
  73 Cr ( 0.000000,  0.000000, -1.914285)
  74 Ni ( 0.000000,  0.000000,  0.206471)
  75 Cr ( 0.000000,  0.000000, -0.419275)
  76 Ni ( 0.000000,  0.000000,  0.411614)
  77 Fe ( 0.000000,  0.000000,  2.189275)
  78 Fe ( 0.000000,  0.000000,  2.206237)
  79 Fe ( 0.000000,  0.000000,  1.917262)
  80 Co ( 0.000000,  0.000000,  0.951595)
  81 Ni ( 0.000000,  0.000000,  0.298273)
  82 Ni ( 0.000000,  0.000000,  0.138949)
  83 Al ( 0.000000,  0.000000, -0.015239)
  84 Cr ( 0.000000,  0.000000, -0.226766)
  85 Co ( 0.000000,  0.000000,  1.167447)
  86 Ni ( 0.000000,  0.000000,  0.298580)
  87 Co ( 0.000000,  0.000000, -0.384733)
  88 Cr ( 0.000000,  0.000000, -1.156371)
  89 Al ( 0.000000,  0.000000, -0.030588)
  90 Fe ( 0.000000,  0.000000,  2.374879)
  91 Al ( 0.000000,  0.000000, -0.030528)
  92 Co ( 0.000000,  0.000000,  1.240742)
  93 Fe ( 0.000000,  0.000000,  2.363589)
  94 Co ( 0.000000,  0.000000,  1.104903)
  95 Co ( 0.000000,  0.000000,  1.038255)
  96 Ni ( 0.000000,  0.000000,  0.384952)
  97 Co ( 0.000000,  0.000000,  1.261600)
  98 Co ( 0.000000,  0.000000,  0.788933)
  99 Cr ( 0.000000,  0.000000, -0.069144)
 100 Co ( 0.000000,  0.000000,  1.340773)
 101 Fe ( 0.000000,  0.000000,  2.531459)
 102 Cr ( 0.000000,  0.000000, -2.408973)
 103 Cr ( 0.000000,  0.000000,  1.688857)
 104 Al ( 0.000000,  0.000000, -0.022650)
 105 Ni ( 0.000000,  0.000000,  0.370614)
 106 Fe ( 0.000000,  0.000000,  2.410955)
 107 Fe ( 0.000000,  0.000000,  2.190310)
 108 Ni ( 0.000000,  0.000000,  0.238307)
 109 Ni ( 0.000000,  0.000000,  0.236880)
 110 Al ( 0.000000,  0.000000, -0.036184)
 111 Cr ( 0.000000,  0.000000, -2.599713)
 112 Fe ( 0.000000,  0.000000, -2.470856)
 113 Fe ( 0.000000,  0.000000,  2.100113)
 114 Fe ( 0.000000,  0.000000,  2.375247)
 115 Ni ( 0.000000,  0.000000,  0.227114)
 116 Cr ( 0.000000,  0.000000,  2.403100)
 117 Ni ( 0.000000,  0.000000,  0.086930)
 118 Fe ( 0.000000,  0.000000,  2.447904)
 119 Ni ( 0.000000,  0.000000,  0.399381)
 120 Co ( 0.000000,  0.000000,  0.994233)
 121 Ni ( 0.000000,  0.000000,  0.291271)
 122 Al ( 0.000000,  0.000000, -0.043477)
 123 Ni ( 0.000000,  0.000000,  0.266261)
 124 Cr ( 0.000000,  0.000000, -2.082276)

Energy contributions relative to reference atoms: (reference = -4103091.665053)

Kinetic:       +288.558304
Potential:     -308.814425
External:        +0.000000
XC:            -965.164789
Entropy (-ST):   -5.382480
Local:          +40.672355
--------------------------
Free energy:   -950.131033
Extrapolated:  -947.439793

Dipole-layer corrected work functions: 4.933375, 4.940778 eV

Spin contamination: 39.943440 electrons
Showing all kpts
                      Up                     Down
 Kpt  Band  Eigenvalues  Occupancy  Eigenvalues  Occupancy
  0   566     -0.03489    0.99420      0.83243    0.02848
  0   567     -0.02733    0.99375      0.84659    0.02482
  0   568     -0.01801    0.99314      0.85435    0.02301
  0   569      0.00736    0.99117      0.86246    0.02125

  1   566     -0.02978    0.99390      0.83670    0.02733
  1   567     -0.02033    0.99329      0.85641    0.02255
  1   568     -0.01113    0.99265      0.86265    0.02121
  1   569     -0.00060    0.99184      0.87070    0.01960


Fermi level: 0.47948

No gap

Forces in eV/Ang:
  0 Fe    0.28064    0.38475    0.51042
  1 Cr    0.05060   -0.10887   -0.25672
  2 Fe    0.20019   -0.52598   -0.02944
  3 Fe    0.09741   -0.55809    0.18690
  4 Cr   -0.49853    0.29078    0.01189
  5 Fe   -0.36880   -0.48292   -0.05218
  6 Fe   -0.26802    0.02563    0.22129
  7 Al    0.26061   -0.12543   -0.84910
  8 Co   -0.11934   -0.08404    0.48122
  9 Cr    0.90100   -1.28758    0.06214
 10 Ni   -0.06785    0.09818    0.03969
 11 Cr   -0.41614    0.85138    0.23579
 12 Fe    0.32880    0.15146    0.09034
 13 Al   -0.38268    0.85163   -1.20665
 14 Ni   -0.10009    0.08387   -0.00082
 15 Co   -0.44549   -0.02193    0.61000
 16 Cr   -0.01197   -0.04778   -0.13330
 17 Ni    0.14899   -0.20901    0.97321
 18 Co    0.19189    0.47247    0.10997
 19 Fe   -0.26222    0.05710   -0.13103
 20 Al    0.55140    0.22821   -1.06735
 21 Ni   -0.03062    0.08561   -0.27987
 22 Cr    0.01797   -0.35540   -0.17679
 23 Ni    0.11038    0.14401    0.92976
 24 Fe   -0.43968    0.16145   -0.01434
 25 Co   -0.15858   -0.00154    0.41005
 26 Co   -0.08748   -0.19592    0.20928
 27 Cr   -0.25539    0.51341   -0.69426
 28 Fe    0.35544    0.14293    0.45105
 29 Fe   -0.24028    0.05535    0.92565
 30 Cr   -0.23389    0.20104   -0.41494
 31 Ni    0.00463    0.24340    0.23881
 32 Fe    0.69588   -0.05197    0.77577
 33 Co    0.05920    0.16198    0.01834
 34 Cr   -0.25292    0.17549    0.23716
 35 Ni    0.17633   -0.03836    0.42843
 36 Ni   -0.00483    0.14747    0.44809
 37 Ni    0.06542   -0.43524    0.61807
 38 Co   -0.40063   -0.52770    0.63876
 39 Fe    0.13783   -0.07171    0.21704
 40 Co    0.57753    0.25882    0.14370
 41 Co   -0.56358    0.00630    0.10364
 42 Co   -0.36353    0.20411    0.69755
 43 Fe    0.19421    0.19555    0.42653
 44 Ni    0.32104    0.24962    0.46804
 45 Cr   -0.07951   -0.70216    0.84081
 46 Fe    0.07175    0.27233    0.23594
 47 Co   -0.02389   -0.06057    0.13169
 48 Fe   -0.17901    0.06455    0.03333
 49 Al    0.79493   -0.16008    0.75671
 50 Cr    0.14798   -0.51416   -0.25817
 51 Ni    0.17208   -0.39978   -0.01121
 52 Co    0.21025   -0.59395   -0.04018
 53 Co   -0.02956   -0.40891   -0.48598
 54 Cr   -0.37546   -0.30088   -0.04576
 55 Cr   -1.07576    0.19095    0.10455
 56 Al    0.51283   -0.17768   -0.33605
 57 Ni    0.33054   -0.15076   -0.90467
 58 Co   -0.10927   -0.06619   -0.58533
 59 Cr   -0.18833    0.32854    0.19084
 60 Fe   -0.19280    0.12335    0.27416
 61 Cr    0.35968    0.89495    0.12567
 62 Co    0.23928    0.09417   -0.22340
 63 Cr   -0.55800   -0.05961   -0.66948
 64 Cr    0.29472   -0.07009   -0.56275
 65 Ni   -0.26974    0.31414   -0.41490
 66 Cr    0.55454   -0.33223   -0.41545
 67 Ni    0.08714    0.01691    0.56131
 68 Co    0.15824    0.09954   -0.00084
 69 Co   -0.17000    0.14762   -0.14550
 70 Fe   -0.37334    0.27102   -0.44585
 71 Co   -0.02696    0.06863    0.03333
 72 Al   -0.67433   -0.51219    1.04036
 73 Cr    0.49876    0.27146    0.02075
 74 Ni   -0.08152   -0.13423   -0.48395
 75 Cr   -0.01125   -0.04927    0.22084
 76 Ni    0.22170   -0.00378   -0.35478
 77 Fe    0.18117   -0.65574    0.16421
 78 Fe   -0.07580   -0.38779   -0.37451
 79 Fe    0.03859    0.01691   -0.51686
 80 Co    0.14145   -0.32262   -0.52131
 81 Ni    0.06918    0.42691   -0.60955
 82 Ni   -0.16624    0.66421    0.22518
 83 Al   -0.87229   -0.09301   -0.84642
 84 Cr    0.03194   -0.66527    0.11182
 85 Co    0.64851    0.40863   -0.87543
 86 Ni   -0.01710   -0.34604   -0.37070
 87 Co   -0.37169   -0.30058   -0.03507
 88 Cr   -0.64811    0.81851   -0.09274
 89 Al    0.82636    1.12483   -0.12052
 90 Fe   -0.27312   -0.26701   -0.41644
 91 Al   -0.07669   -0.18388   -0.13005
 92 Co    0.68081   -0.11409   -0.57298
 93 Fe   -0.14894    0.19437   -0.90874
 94 Co   -0.18504    0.39142   -0.23603
 95 Co   -0.13798    0.11559   -0.81474
 96 Ni    0.24746    0.32436   -0.27278
 97 Co   -0.03401   -0.27961   -0.37552
 98 Co   -0.03915   -0.28370   -0.44260
 99 Cr   -0.37024   -0.17125   -1.19354
100 Co    0.15581   -0.19579   -0.21538
101 Fe   -0.19941   -0.01218    0.17993
102 Cr    0.38903    0.64660    0.15321
103 Cr    0.08295    0.00634    0.09227
104 Al    0.89448    0.90664    1.42056
105 Ni   -0.13758   -0.02967    0.13667
106 Fe    0.09140    0.02894    0.13017
107 Fe    0.36978    0.21268    0.14730
108 Ni   -0.14120    0.11561   -0.76965
109 Ni   -0.02744    0.00348    0.42617
110 Al   -0.72637    0.42092    0.83346
111 Cr    0.62584   -0.22063   -0.29241
112 Fe    0.41266    0.34702    0.34039
113 Fe    0.09331    0.25102    0.22981
114 Fe   -0.49382   -0.46990    0.50140
115 Ni    0.14742   -0.13900   -0.13652
116 Cr    0.13201   -0.58975    0.64219
117 Ni    0.05287    0.02662   -0.08936
118 Fe    0.20344   -0.09276    0.13591
119 Ni   -0.26345    0.18047    0.16995
120 Co    0.01771    0.17667   -0.10438
121 Ni   -0.03733    0.16865    0.15522
122 Al   -0.34955   -0.85704    0.66227
123 Ni   -0.22876   -0.42879   -0.62816
124 Cr   -0.50325   -0.67140    0.31069

Timing:                              incl.     excl.
-----------------------------------------------------------
Forces:                             55.623    55.623   0.1% |
Hamiltonian:                         2.440     0.017   0.0% |
 Atomic:                             0.406     0.002   0.0% |
  XC Correction:                     0.403     0.403   0.0% |
 Calculate atomic Hamiltonians:      1.298     1.298   0.0% |
 Communicate:                        0.118     0.118   0.0% |
 Initialize Hamiltonian:             0.000     0.000   0.0% |
 Poisson:                            0.124     0.124   0.0% |
 XC 3D grid:                         0.478     0.478   0.0% |
LCAO initialization:               359.305     0.605   0.0% |
 LCAO eigensolver:                  20.574     0.019   0.0% |
  Calculate projections:             0.000     0.000   0.0% |
  DenseAtomicCorrection:             0.000     0.000   0.0% |
  Distribute overlap matrix:        11.868    11.868   0.0% |
  Orbital Layouts:                   8.635     8.635   0.0% |
  Potential matrix:                  0.005     0.005   0.0% |
  Sum over cells:                    0.047     0.047   0.0% |
 LCAO to grid:                     335.343   335.343   0.7% |
 Set positions (LCAO WFS):           2.783     2.423   0.0% |
  Basic WFS set positions:           0.004     0.004   0.0% |
  Basis functions set positions:     0.001     0.001   0.0% |
  P tci:                             0.000     0.000   0.0% |
  ST tci:                            0.147     0.147   0.0% |
  mktci:                             0.208     0.208   0.0% |
PWDescriptor:                        0.123     0.123   0.0% |
SCF-cycle:                       46851.406     2.537   0.0% |
 Davidson:                       45347.689 13415.793  28.4% |----------|
  Apply H:                         859.926   844.804   1.8% ||
   HMM T:                           15.122    15.122   0.0% |
  Subspace diag:                  4589.096     0.114   0.0% |
   calc_h_matrix:                 1977.031  1183.920   2.5% ||
    Apply H:                       793.111   778.102   1.6% ||
     HMM T:                         15.009    15.009   0.0% |
   diagonalize:                    397.851   397.851   0.8% |
   rotate_psi:                    2214.099  2214.099   4.7% |-|
  calc. matrices:                10729.857  9235.321  19.5% |-------|
   Apply H:                       1494.536  1463.910   3.1% ||
    HMM T:                          30.626    30.626   0.1% |
  diagonalize:                   11059.461 11059.461  23.4% |--------|
  rotate_psi:                     4693.557  4693.557   9.9% |---|
 Density:                          868.031     0.010   0.0% |
  Atomic density matrices:           7.791     7.791   0.0% |
  Mix:                             433.963   433.963   0.9% |
  Multipole moments:                 0.200     0.200   0.0% |
  Pseudo density:                  426.067   426.052   0.9% |
   Symmetrize density:               0.014     0.014   0.0% |
 Hamiltonian:                      611.533     4.385   0.0% |
  Atomic:                          101.780     0.458   0.0% |
   XC Correction:                  101.321   101.321   0.2% |
  Calculate atomic Hamiltonians:   355.588   355.588   0.8% |
  Communicate:                      28.360    28.360   0.1% |
  Poisson:                          12.656    12.656   0.0% |
  XC 3D grid:                      108.764   108.764   0.2% |
 Orthonormalize:                    21.617     0.001   0.0% |
  calc_s_matrix:                     2.640     2.640   0.0% |
  inverse-cholesky:                  1.087     1.087   0.0% |
  projections:                      13.319    13.319   0.0% |
  rotate_psi_s:                      4.570     4.570   0.0% |
Set symmetry:                        0.001     0.001   0.0% |
Other:                              13.140    13.140   0.0% |
-----------------------------------------------------------
Total:                                     47282.039 100.0%

Date: Wed Apr 19 12:08:29 2023
