
  ___ ___ ___ _ _ _  
 |   |   |_  | | | | 
 | | | | | . | | | | 
 |__ |  _|___|_____|  22.8.0
 |___|_|             

User:   c.zeng@d0103
Date:   Tue Apr 18 04:09:29 2023
Arch:   x86_64
Pid:    119866
CWD:    /home/c.zeng/projects/hea-corrosion/hea-mlp/data-curation/surface-mcmc/dft-jobs/17
Python: 3.8.1
gpaw:   /home/c.zeng/usr/installs/gpaw/source/gpaw-22.8.0/gpaw
_gpaw:  /home/c.zeng/usr/installs/gpaw/source/gpaw-22.8.0/
        _gpaw.cpython-38-x86_64-linux-gnu.so
ase:    /home/c.zeng/.local/lib/python3.8/site-packages/ase-3.22.1-py3.8.egg/ase (version 3.22.1)
numpy:  /home/c.zeng/.local/lib/python3.8/site-packages/numpy (version 1.24.2)
scipy:  /home/c.zeng/.local/lib/python3.8/site-packages/scipy (version 1.10.1)
libxc:  4.2.3
units:  Angstrom and eV
cores: 30
OpenMP: False
OMP_NUM_THREADS: 1

Input parameters:
  convergence: {energy: 0.0001}
  kpts: [2 2 1]
  maxiter: 666
  mode: {ecut: 350.0,
         name: pw}
  occupations: {fixmagmom: False,
                name: fermi-dirac,
                width: 0.1}
  poissonsolver: {dipolelayer: xy}
  spinpol: True
  symmetry: {point_group: False}
  xc: PBE

System changes: positions, numbers, cell, pbc, initial_charges, initial_magmoms 

Initialize ...

species:
  Cr:
    name: Chromium
    id: 33f258bda2ca9f93018e70263a35547b
    Z: 24.0
    valence: 6
    core: 18
    charge: 0.0
    file: /home/c.zeng/usr/data/gpaw-setups-0.9.20000/Cr.PBE.gz
    compensation charges: {type: gauss,
                           rc: 0.35,
                           lmax: 2}
    cutoffs: {filter: 2.14,
              core: 3.04}
    valence states:
      #              energy  rcut
      - 4s(1.00)    -4.007   1.164
      - 4p(0.00)    -0.989   1.217
      - 3d(5.00)    -2.913   1.111
      -  s          23.205   1.164
      -  p          26.223   1.217
      -  d          24.299   1.111
  
    # Using partial waves for Cr as LCAO basis

  Co:
    name: Cobalt
    id: 339d20d5b0b93d2de9531a1bee871d91
    Z: 27.0
    valence: 9
    core: 18
    charge: 0.0
    file: /home/c.zeng/usr/data/gpaw-setups-0.9.20000/Co.PBE.gz
    compensation charges: {type: gauss,
                           rc: 0.32,
                           lmax: 2}
    cutoffs: {filter: 1.87,
              core: 2.55}
    valence states:
      #              energy  rcut
      - 4s(2.00)    -5.469   1.005
      - 4p(0.00)    -1.277   1.058
      - 3d(7.00)    -8.205   1.005
      -  s          21.742   1.005
      -  p          25.934   1.058
      -  d          19.007   1.005
  
    # Using partial waves for Co as LCAO basis

  Fe:
    name: Iron
    id: 37abbd8d6c3c35915a9b583b742da910
    Z: 26.0
    valence: 8
    core: 18
    charge: 0.0
    file: /home/c.zeng/usr/data/gpaw-setups-0.9.20000/Fe.PBE.gz
    compensation charges: {type: gauss,
                           rc: 0.33,
                           lmax: 2}
    cutoffs: {filter: 2.06,
              core: 2.67}
    valence states:
      #              energy  rcut
      - 4s(2.00)    -5.291   1.164
      - 4p(0.00)    -1.326   1.058
      - 3d(6.00)    -7.505   1.058
      -  s          21.920   1.164
      -  p          25.885   1.058
      -  d          19.706   1.058
  
    # Using partial waves for Fe as LCAO basis

  Ni:
    name: Nickel
    id: 0d9f38a9d6e76a2886f07bb4381f212b
    Z: 28.0
    valence: 16
    core: 12
    charge: 0.0
    file: /home/c.zeng/usr/data/gpaw-setups-0.9.20000/Ni.PBE.gz
    compensation charges: {type: gauss,
                           rc: 0.36,
                           lmax: 2}
    cutoffs: {filter: 2.14,
              core: 1.98}
    valence states:
      #              energy  rcut
      - 4s(2.00)    -5.642   1.164
      - 3p(6.00)   -71.394   1.207
      - 4p(0.00)    -1.226   1.207
      - 3d(8.00)    -8.875   1.138
      -  s          21.570   1.164
      -  d          18.337   1.138
  
    # Using partial waves for Ni as LCAO basis

Reference energy: -4451268.207082  # eV

Spin-polarized calculation.
Magnetic moment: 175.600000

Convergence criteria:
 Maximum [total energy] change in last 3 cyles: 0.0001 eV / electron
 Maximum integral of absolute [dens]ity change: 0.0001 electrons / valence electron
 Maximum integral of absolute [eigenst]ate change: 4e-08 eV^2 / valence electron
 Maximum number of scf [iter]ations: 666
 (Square brackets indicate name in SCF output, whereas a 'c' in
 the SCF output indicates the quantity has converged.)

Symmetries present (total): 1

  ( 1  0  0)
  ( 0  1  0)
  ( 0  0  1)

4 k-points: 2 x 2 x 1 Monkhorst-Pack grid
2 k-points in the irreducible part of the Brillouin zone
       k-points in crystal coordinates                weights
   0:     0.25000000   -0.25000000    0.00000000          2/4
   1:     0.25000000    0.25000000    0.00000000          2/4

Wave functions: Plane wave expansion
  Cutoff energy: 350.000 eV
  Number of coefficients (min, max): 58495, 58567
  Pulay-stress correction: 0.000000 eV/Ang^3 (de/decut=0.000000)
  Using FFTW library
  ScaLapack parameters: grid=1x1, blocksize=None
  Wavefunction extrapolation:
    Improved wavefunction reuse through dual PAW basis 

Occupation numbers: Fermi-Dirac:
  width: 0.1000  # eV
 

Eigensolver
   Davidson(niter=2) 

Densities:
  Coarse grid: 54*54*128 grid
  Fine grid: 108*108*256 grid
  Total Charge: 0.000000 

Density mixing:
  Method: difference
  Backend: pulay
  Linear mixing parameter: 0.05
  old densities: 5
  Damping of long wavelength oscillations: 50 

Hamiltonian:
  XC and Coulomb potentials evaluated on a 108*108*256 grid
  Using the PBE Exchange-Correlation functional
  External potential:
    NoExternalPotential
 

XC parameters: PBE with 2 nearest neighbor stencil

Memory estimate:
  Process memory now: 366.19 MiB
  Calculator: 2405.48 MiB
    Density: 16.73 MiB
      Arrays: 6.75 MiB
      Localized functions: 7.29 MiB
      Mixer: 2.70 MiB
    Hamiltonian: 5.22 MiB
      Arrays: 5.01 MiB
      XC: 0.00 MiB
      Poisson: 0.00 MiB
      vbar: 0.21 MiB
    Wavefunctions: 2383.52 MiB
      Arrays psit_nG: 1501.35 MiB
      Eigensolver: 862.84 MiB
      Projections: 3.85 MiB
      Projectors: 0.98 MiB
      PW-descriptor: 14.51 MiB

Total number of cores used: 30
Parallelization over k-points: 2
Domain decomposition: 1 x 3 x 5

Number of atoms: 125
Number of atomic orbitals: 1218
Number of bands in calculation: 840
Number of valence electrons: 1217
Bands to converge: occupied

... initialized

Initializing position-dependent things.

Density initialized from atomic densities
Creating initial wave functions:
  840 bands from LCAO basis set

                                                                  
                                                                  
                                                                  
                                                                  
                                   Co    Co           Ni          
                         Ni    Ni    Co    Co    Cr               
                    Co    Cr     Cr    Ni    Co                   
                                Fe    Ni    Ni    Cr    Fe        
                Cr    Ni   NCr   FFe    NCo   Fe    Fe            
            Co    Ni   FCo   NCo   CNi   Fe     Ni                
       Ni                 CoCr    Cr     Cr    Fe    Fe           
                   Fe   FFe   FFe   FNi   CFe   Cr    Cr          
              Ni   FCo    CNi   CFe   CFe   Ni                    
                               Ni    Ni    Cr    Fe    Cr         
               Cr   CFe   CCr   NFNi  CCNi  CFe   Co    Cr        
           Cr   CNi   CCo  CNCr   NFe   CFe         Co            
            Fe    Fe          Co    Cr        Ni                  
                       FNi   Co    Cr    Ni     Cr                
             Fe    Cr    CFe   Co    CCo   Ni                     
              Co    Fe    Cr     Ni    Cr                         
                                                                  
                                                                  
                                                                  
                                                                  
                                                                  

Positions:
   0 Cr    12.462288    1.423821   10.629080    ( 0.0000,  0.0000,  0.0000)
   1 Co     2.499576    1.440301   10.626527    ( 0.0000,  0.0000,  2.0000)
   2 Fe     4.968611    1.438835   10.615079    ( 0.0000,  0.0000,  1.5000)
   3 Cr     7.462726    1.421460   10.639178    ( 0.0000,  0.0000,  2.1000)
   4 Ni     9.958813    1.440808   10.614286    ( 0.0000,  0.0000,  1.5000)
   5 Ni    13.701699    3.595687   10.631928    ( 0.0000,  0.0000,  0.0000)
   6 Co     3.731720    3.588498   10.658463    ( 0.0000,  0.0000,  2.0000)
   7 Cr     6.206181    3.578862   10.616048    ( 0.0000,  0.0000,  0.0000)
   8 Co     8.708678    3.588487   10.610441    ( 0.0000,  0.0000,  0.0000)
   9 Co    11.213254    3.596560   10.610265    ( 0.0000,  0.0000,  0.0000)
  10 Cr    14.928341    5.748260   10.633307    ( 0.0000,  0.0000,  1.5000)
  11 Fe     4.975718    5.742741   10.620568    ( 0.0000,  0.0000,  0.0000)
  12 Co     7.478433    5.755029   10.612261    ( 0.0000,  0.0000,  0.0000)
  13 Cr     9.958968    5.766540   10.606596    ( 0.0000,  0.0000,  0.0000)
  14 Ni    12.428955    5.759114   10.623679    ( 0.0000,  0.0000,  2.0000)
  15 Co    16.172575    7.907763   10.614962    ( 0.0000,  0.0000,  0.0000)
  16 Co     6.230875    7.897556   10.631399    ( 0.0000,  0.0000,  1.5000)
  17 Co     8.712063    7.918800   10.624912    ( 0.0000,  0.0000,  1.5000)
  18 Cr    11.196407    7.900649   10.627583    ( 0.0000,  0.0000,  2.0000)
  19 Ni    13.685743    7.894915   10.608768    ( 0.0000,  0.0000,  0.0000)
  20 Cr    17.413095   10.061737   10.609531    ( 0.0000,  0.0000,  0.0000)
  21 Ni     7.473454   10.060875   10.626761    ( 0.0000,  0.0000,  1.5000)
  22 Co     9.959304   10.058201   10.606068    ( 0.0000,  0.0000,  0.0000)
  23 Co    12.452485   10.052985   10.619834    ( 0.0000,  0.0000,  1.5000)
  24 Co    14.933506   10.061047   10.614433    ( 0.0000,  0.0000,  2.0000)
  25 Co    12.449050   -0.000629   12.627234    ( 0.0000,  0.0000,  2.1000)
  26 Fe     2.492433    0.000558   12.634954    ( 0.0000,  0.0000,  2.1000)
  27 Cr     4.974333    0.000141   12.611941    ( 0.0000,  0.0000,  2.1000)
  28 Fe     7.468637   -0.006559   12.638564    ( 0.0000,  0.0000,  0.0000)
  29 Cr    16.167928   10.788301   12.619514    ( 0.0000,  0.0000,  2.0000)
  30 Fe     1.266555    2.151225   12.633662    ( 0.0000,  0.0000,  2.0000)
  31 Fe     3.735748    2.148121   12.651127    ( 0.0000,  0.0000,  2.1000)
  32 Ni     6.204229    2.151322   12.625297    ( 0.0000,  0.0000,  2.0000)
  33 Co     8.713864    2.159169   12.632341    ( 0.0000,  0.0000,  0.0000)
  34 Cr    11.209280    2.157261   12.630668    ( 0.0000,  0.0000,  2.0000)
  35 Cr     2.491537    4.311041   12.649513    ( 0.0000,  0.0000,  1.5000)
  36 Co     4.975141    4.309004   12.661988    ( 0.0000,  0.0000,  1.5000)
  37 Ni     7.471546    4.302515   12.629612    ( 0.0000,  0.0000,  0.0000)
  38 Ni     9.959331    4.321389   12.624211    ( 0.0000,  0.0000,  2.0000)
  39 Fe    12.447216    4.322736   12.648779    ( 0.0000,  0.0000,  0.0000)
  40 Cr     3.727002    6.455713   12.638564    ( 0.0000,  0.0000,  2.0000)
  41 Co     6.230130    6.458548   12.645726    ( 0.0000,  0.0000,  1.5000)
  42 Fe     8.722502    6.475815   12.624504    ( 0.0000,  0.0000,  2.1000)
  43 Co    11.197735    6.469758   12.643995    ( 0.0000,  0.0000,  1.5000)
  44 Fe    13.683348    6.470059   12.640003    ( 0.0000,  0.0000,  2.1000)
  45 Cr    17.413993    8.621565   12.620189    ( 0.0000,  0.0000,  0.0000)
  46 Ni     7.471608    8.621834   12.638564    ( 0.0000,  0.0000,  1.5000)
  47 Ni     9.955597    8.628593   12.628115    ( 0.0000,  0.0000,  2.1000)
  48 Cr    12.449432    8.615173   12.619279    ( 0.0000,  0.0000,  1.5000)
  49 Fe    14.929575    8.617340   12.626089    ( 0.0000,  0.0000,  2.0000)
  50 Cr     1.254097    0.717223   14.680102    ( 0.0000,  0.0000,  2.1000)
  51 Ni     3.731090    0.711950   14.670063    ( 0.0000,  0.0000,  2.0000)
  52 Co     6.214925    0.718289   14.674818    ( 0.0000,  0.0000,  0.0000)
  53 Cr     8.714063    0.718519   14.689084    ( 0.0000,  0.0000,  2.0000)
  54 Fe    11.204771    0.717512   14.682421    ( 0.0000,  0.0000,  0.0000)
  55 Cr     2.496837    2.862958   14.687264    ( 0.0000,  0.0000,  2.0000)
  56 Fe     4.979214    2.867151   14.683800    ( 0.0000,  0.0000,  2.1000)
  57 Cr     7.478991    2.885690   14.679133    ( 0.0000,  0.0000,  2.1000)
  58 Ni     9.958294    2.881486   14.688056    ( 0.0000,  0.0000,  2.1000)
  59 Ni    12.441997    2.882424   14.688409    ( 0.0000,  0.0000,  0.0000)
  60 Fe     3.731806    5.017201   14.686589    ( 0.0000,  0.0000,  2.1000)
  61 Cr     6.225452    5.035536   14.687205    ( 0.0000,  0.0000,  0.0000)
  62 Co     8.715945    5.032324   14.674525    ( 0.0000,  0.0000,  2.1000)
  63 Cr    11.195745    5.039006   14.696011    ( 0.0000,  0.0000,  2.0000)
  64 Ni    13.700079    5.031203   14.681012    ( 0.0000,  0.0000,  2.1000)
  65 Fe     4.981869    7.184260   14.692048    ( 0.0000,  0.0000,  2.0000)
  66 Fe     7.477161    7.188130   14.678135    ( 0.0000,  0.0000,  1.5000)
  67 Fe     9.952805    7.179334   14.674554    ( 0.0000,  0.0000,  0.0000)
  68 Cr    12.443073    7.188992   14.681100    ( 0.0000,  0.0000,  2.0000)
  69 Cr    14.930068    7.191493   14.686618    ( 0.0000,  0.0000,  0.0000)
  70 Cr     6.231394    9.346900   14.677343    ( 0.0000,  0.0000,  0.0000)
  71 Cr     8.712453    9.336671   14.666629    ( 0.0000,  0.0000,  1.5000)
  72 Cr    11.193692    9.342761   14.657881    ( 0.0000,  0.0000,  1.5000)
  73 Fe    13.688080    9.336294   14.678986    ( 0.0000,  0.0000,  2.1000)
  74 Fe    16.181709    9.338601   14.679603    ( 0.0000,  0.0000,  2.0000)
  75 Fe    12.451515    1.431333   16.739956    ( 0.0000,  0.0000,  2.0000)
  76 Ni     2.493173    1.440441   16.729476    ( 0.0000,  0.0000,  1.5000)
  77 Co     4.973378    1.437348   16.717295    ( 0.0000,  0.0000,  1.5000)
  78 Ni     7.475017    1.438609   16.711571    ( 0.0000,  0.0000,  2.0000)
  79 Fe     9.955789    1.433845   16.723048    ( 0.0000,  0.0000,  2.1000)
  80 Fe    13.696559    3.594351   16.715270    ( 0.0000,  0.0000,  2.1000)
  81 Fe     3.730077    3.579487   16.736903    ( 0.0000,  0.0000,  2.0000)
  82 Fe     6.225541    3.599416   16.704614    ( 0.0000,  0.0000,  1.5000)
  83 Fe     8.709257    3.594792   16.716150    ( 0.0000,  0.0000,  2.1000)
  84 Ni    11.199463    3.603674   16.739691    ( 0.0000,  0.0000,  2.0000)
  85 Ni    14.943900    5.737718   16.712745    ( 0.0000,  0.0000,  1.5000)
  86 Fe     4.972339    5.736543   16.726893    ( 0.0000,  0.0000,  1.5000)
  87 Ni     7.458804    5.749316   16.714624    ( 0.0000,  0.0000,  2.1000)
  88 Co     9.954095    5.748637   16.721228    ( 0.0000,  0.0000,  2.0000)
  89 Fe    12.462014    5.747344   16.728743    ( 0.0000,  0.0000,  2.0000)
  90 Fe    16.183410    7.912818   16.742715    ( 0.0000,  0.0000,  2.0000)
  91 Ni     6.219087    7.908313   16.727040    ( 0.0000,  0.0000,  2.1000)
  92 Fe     8.705037    7.899237   16.717853    ( 0.0000,  0.0000,  1.5000)
  93 Ni    11.200247    7.900293   16.707726    ( 0.0000,  0.0000,  2.0000)
  94 Fe    13.685904    7.915049   16.733058    ( 0.0000,  0.0000,  2.0000)
  95 Fe    17.435836   10.053955   16.714183    ( 0.0000,  0.0000,  2.1000)
  96 Fe     7.479895   10.064335   16.723694    ( 0.0000,  0.0000,  2.1000)
  97 Ni     9.948438   10.062297   16.717999    ( 0.0000,  0.0000,  2.0000)
  98 Ni    12.430846   10.066016   16.706229    ( 0.0000,  0.0000,  2.1000)
  99 Cr    14.931465   10.060206   16.719819    ( 0.0000,  0.0000,  2.0000)
 100 Ni     0.001393   -0.001477   18.721348    ( 0.0000,  0.0000,  2.1000)
 101 Co     8.706806   10.779893   18.727160    ( 0.0000,  0.0000,  2.1000)
 102 Co    11.204107   10.781618   18.717855    ( 0.0000,  0.0000,  1.5000)
 103 Co     7.469960    0.013195   18.707875    ( 0.0000,  0.0000,  2.0000)
 104 Ni    16.181919   10.775754   18.709108    ( 0.0000,  0.0000,  2.1000)
 105 Co     1.248004    2.161303   18.718354    ( 0.0000,  0.0000,  2.1000)
 106 Ni     3.733315    2.155634   18.745800    ( 0.0000,  0.0000,  1.5000)
 107 Co     6.228574    2.157186   18.698042    ( 0.0000,  0.0000,  2.0000)
 108 Co     8.707430    2.146688   18.721378    ( 0.0000,  0.0000,  1.5000)
 109 Ni    11.204420    2.145825   18.737698    ( 0.0000,  0.0000,  0.0000)
 110 Cr     2.490030    4.312410   18.723374    ( 0.0000,  0.0000,  2.1000)
 111 Ni     4.985099    4.302214   18.737992    ( 0.0000,  0.0000,  1.5000)
 112 Cr     7.468273    4.307150   18.718736    ( 0.0000,  0.0000,  1.5000)
 113 Fe     9.951365    4.318112   18.731387    ( 0.0000,  0.0000,  1.5000)
 114 Co    12.445275    4.305296   18.744537    ( 0.0000,  0.0000,  0.0000)
 115 Co     3.740863    6.459076   18.741044    ( 0.0000,  0.0000,  0.0000)
 116 Cr     6.217689    6.472786   18.736054    ( 0.0000,  0.0000,  1.5000)
 117 Cr     8.709004    6.465931   18.718354    ( 0.0000,  0.0000,  0.0000)
 118 Ni    11.207929    6.465576   18.705468    ( 0.0000,  0.0000,  2.1000)
 119 Co    13.697451    6.465489   18.739900    ( 0.0000,  0.0000,  0.0000)
 120 Ni     4.983428    8.632721   18.739518    ( 0.0000,  0.0000,  1.5000)
 121 Ni     7.469224    8.629196   18.723022    ( 0.0000,  0.0000,  1.5000)
 122 Co     9.951770    8.622740   18.693815    ( 0.0000,  0.0000,  2.1000)
 123 Co    12.435945    8.632257   18.713130    ( 0.0000,  0.0000,  0.0000)
 124 Cr    14.940770    8.642831   18.751406    ( 0.0000,  0.0000,  0.0000)

Unit cell:
           periodic     x           y           z      points  spacing
  1. axis:    yes   12.446800    0.000000    0.000000    54     0.1996
  2. axis:    yes    6.223010   10.778600    0.000000    54     0.1996
  3. axis:    no     0.000000    0.000000   29.353100   128     0.2293

  Lengths:  12.446800  12.446046  29.353100
  Angles:   90.000000  90.000000  60.000070

Effective grid spacing dv^(1/3) = 0.2193

     iter     time        total  log10-change:  magmom
                         energy  eigst   dens
iter:   1 04:20:14 -1141.906656                  +175.5308
iter:   2 04:23:56 -2024.164878  +0.50  -1.18    +141.7964
iter:   3 04:27:42 -2009.708879  +0.95  -0.87    +115.3527
iter:   4 04:31:27 -1170.249007  -0.36  -0.84    +79.6980
iter:   5 04:35:12 -1046.571094  -1.26  -1.21    +61.7728
iter:   6 04:38:57 -1031.889610  -1.79  -1.33    +45.0031
iter:   7 04:42:42 -1016.231201  -1.67  -1.36    +39.6965
iter:   8 04:46:24 -1208.740833  -1.03  -1.38    +41.3611
iter:   9 04:50:10 -1127.197204  -0.97  -1.09    +38.4740
iter:  10 04:53:56 -1007.630880  -1.67  -1.17    +32.3186
iter:  11 04:57:41 -1001.837946  -1.95  -1.44    +32.6997
iter:  12 05:01:26 -1002.547403  -1.58  -1.46    +33.5142
iter:  13 05:05:10 -1012.412232  -1.58  -1.53    +35.3070
iter:  14 05:08:52  -990.408709  -1.51  -1.45    +35.6471
iter:  15 05:12:38 -1167.606838  -1.26  -1.72    +37.3371
iter:  16 05:16:23 -1026.951586  -1.40  -1.17    +35.7840
iter:  17 05:20:08  -992.838299  -1.98  -1.43    +34.0398
iter:  18 05:23:51  -992.090502  -2.29  -1.71    +36.0410
iter:  19 05:27:34  -994.565872  -2.05  -1.75    +37.2615
iter:  20 05:31:19  -990.316151  -2.30  -1.73    +40.7152
iter:  21 05:35:04 -1034.684785  -1.91  -1.75    +42.6454
iter:  22 05:38:49  -988.692660  -2.14  -1.43    +41.9123
iter:  23 05:42:34 -1000.466021  -2.50  -1.83    +43.1164
iter:  24 05:46:17  -990.725058  -2.59  -1.65    +45.2845
iter:  25 05:49:55  -990.330601  -2.72  -1.85    +47.0710
iter:  26 05:53:33 -1003.019219  -1.96  -1.91    +47.9713
iter:  27 05:57:10  -990.399330  -2.25  -1.70    +50.1475
iter:  28 06:01:08  -990.628726  -2.65  -2.02    +51.6355
iter:  29 06:05:07  -989.676979  -2.92  -2.04    +52.6458
iter:  30 06:08:44  -992.821666  -2.69  -2.19    +54.6572
iter:  31 06:12:22  -991.152856  -2.81  -1.99    +55.0860
iter:  32 06:16:00  -990.784851  -2.97  -2.13    +58.0671
iter:  33 06:19:45  -990.472468  -3.28  -2.24    +59.6492
iter:  34 06:23:59  -990.907255  -3.16  -2.35    +63.0088
iter:  35 06:27:37  -991.639210  -3.14  -2.33    +64.7566
iter:  36 06:31:15  -991.111961  -3.45  -2.23    +64.9808
iter:  37 06:34:52  -991.295226  -3.68  -2.42    +66.4805
iter:  38 06:38:40  -991.592389  -3.34  -2.42    +68.5283
iter:  39 06:42:43  -991.744197  -3.51  -2.43    +70.0544
iter:  40 06:46:20  -991.887810  -3.51  -2.46    +71.4526
iter:  41 06:49:58  -993.656442  -3.13  -2.48    +72.1731
iter:  42 06:53:35  -992.195569  -3.28  -2.15    +72.1350
iter:  43 06:57:11  -992.228954  -3.46  -2.47    +72.2947
iter:  44 07:01:18  -992.391137  -3.45  -2.51    +73.0413
iter:  45 07:04:04  -992.242359  -3.54  -2.47    +73.1595
iter:  46 07:06:50  -992.326517  -3.59  -2.60    +72.9716
iter:  47 07:09:37  -992.238040c -3.99  -2.54    +73.2042
iter:  48 07:12:24  -992.473115  -3.79  -2.68    +73.7878
iter:  49 07:15:11  -992.199076  -4.30  -2.50    +73.7063
iter:  50 07:17:58  -992.242198  -4.36  -2.80    +73.7244
iter:  51 07:20:45  -992.348048  -4.10  -2.83    +73.7459
iter:  52 07:23:33  -992.387729  -4.21  -2.77    +73.6775
iter:  53 07:26:20  -992.340204c -4.15  -2.76    +73.5957
iter:  54 07:29:08  -992.538801  -3.89  -2.99    +73.7967
iter:  55 07:31:56  -992.390387  -4.23  -2.66    +73.8471
iter:  56 07:34:45  -992.443164  -4.38  -2.99    +73.9104
iter:  57 07:37:34  -992.435964c -4.44  -2.91    +73.8605
iter:  58 07:40:23  -992.434364c -4.61  -3.00    +74.1222
iter:  59 07:43:11  -992.475623c -4.52  -3.20    +74.3623
iter:  60 07:46:00  -992.561455  -4.46  -3.17    +74.3820
iter:  61 07:48:49  -992.546651c -4.39  -2.81    +74.4727
iter:  62 07:51:37  -992.606435c -4.44  -2.94    +74.4955
iter:  63 07:54:26  -992.581309c -4.58  -2.83    +74.4782
iter:  64 07:57:15  -992.625107c -4.48  -3.05    +74.6785
iter:  65 08:00:04  -992.660211c -4.17  -2.86    +74.5800
iter:  66 08:02:53  -993.098149  -3.71  -2.80    +74.6634
iter:  67 08:05:41  -992.772536  -3.81  -2.45    +74.8417
iter:  68 08:08:30  -992.732870  -4.62  -2.64    +74.7433
iter:  69 08:11:19  -992.764707c -4.47  -2.71    +74.5867
iter:  70 08:14:08  -992.839115c -3.67  -2.69    +74.1871
iter:  71 08:16:57  -992.843955c -4.63  -2.65    +74.1716
iter:  72 08:19:45  -993.925218  -3.40  -2.64    +74.1211
iter:  73 08:22:34  -992.824633  -3.72  -2.24    +74.2783
iter:  74 08:25:23  -992.810526  -4.42  -2.67    +74.3839
iter:  75 08:28:11  -992.946542  -3.56  -2.68    +74.3236
iter:  76 08:31:00  -992.927287  -3.92  -2.56    +74.4940
iter:  77 08:33:49  -992.859590c -4.54  -2.55    +74.3316
iter:  78 08:36:38 -1000.158494  -2.77  -2.60    +74.4246
iter:  79 08:39:26  -992.806459  -3.03  -1.86    +74.4733
iter:  80 08:42:15  -992.782053  -4.16  -2.68    +74.4968
iter:  81 08:45:04  -992.799752c -4.41  -2.72    +74.6113
iter:  82 08:47:53  -992.745664c -4.30  -2.70    +74.5348
iter:  83 08:50:41  -992.728467c -4.58  -2.81    +74.5840
iter:  84 08:53:30  -992.674739c -4.48  -2.85    +74.7353
iter:  85 08:56:19  -992.692025c -4.82  -3.24    +74.6410
iter:  86 08:59:07  -992.681516c -4.79  -3.06    +74.7736
iter:  87 09:01:56  -992.678254c -5.02  -3.33    +74.7212
iter:  88 09:04:45  -992.695610c -4.69  -3.31    +75.0585
iter:  89 09:07:34  -992.716496c -4.54  -3.39    +75.2136
iter:  90 09:10:22  -992.705326c -5.37  -3.22    +75.1712
iter:  91 09:13:11  -992.754591c -3.98  -3.29    +75.3829
iter:  92 09:16:00  -992.810014c -4.42  -3.03    +75.4278
iter:  93 09:18:48  -992.763899c -5.21  -2.85    +75.4057
iter:  94 09:21:37  -992.739584c -4.68  -3.00    +75.4581
iter:  95 09:24:26  -992.783101c -4.74  -2.92    +75.3105
iter:  96 09:27:15  -992.767373c -4.31  -2.92    +75.2782
iter:  97 09:30:03  -992.737967c -4.49  -2.85    +75.3966
iter:  98 09:32:52  -992.901120  -3.91  -2.96    +75.1910
iter:  99 09:35:41  -992.691597  -4.37  -2.62    +75.1130
iter: 100 09:38:30  -992.705795  -5.06  -3.23    +75.0823
iter: 101 09:41:19  -992.706232c -4.92  -3.13    +75.1439
iter: 102 09:44:07  -992.700967c -5.11  -3.14    +75.1757
iter: 103 09:46:56  -992.713573c -5.09  -3.22    +75.2775
iter: 104 09:49:45  -992.707246c -5.21  -3.10    +75.3312
iter: 105 09:52:33  -992.703538c -5.22  -3.19    +75.3153
iter: 106 09:55:22  -992.698917c -5.31  -3.28    +75.2785
iter: 107 09:58:11  -992.720111c -4.77  -3.39    +75.2494
iter: 108 10:00:59  -992.704239c -5.09  -3.19    +75.3129
iter: 109 10:03:48  -992.696192c -5.73  -3.25    +75.3983
iter: 110 10:06:37  -992.697839c -5.80  -3.59    +75.3170
iter: 111 10:09:26  -992.701833c -5.40  -3.55    +75.2745
iter: 112 10:12:14  -992.707424c -4.99  -3.63    +75.1047
iter: 113 10:15:03  -992.714995c -4.93  -3.48    +75.0509
iter: 114 10:17:52  -992.704874c -4.72  -3.34    +75.1631
iter: 115 10:20:41  -992.726265c -5.03  -3.44    +75.1261
iter: 116 10:23:29  -992.706624c -5.04  -3.21    +75.2124
iter: 117 10:26:18  -992.730118c -5.21  -3.47    +75.2342
iter: 118 10:29:07  -992.707200c -5.55  -3.13    +75.2922
iter: 119 10:31:56  -992.714004c -5.10  -3.57    +75.4029
iter: 120 10:34:44  -992.709755c -5.21  -3.32    +75.2290
iter: 121 10:37:33  -992.723794c -4.84  -3.47    +75.1319
iter: 122 10:40:22  -992.717666c -4.99  -3.13    +75.1495
iter: 123 10:43:11  -992.706797c -5.55  -3.27    +75.1835
iter: 124 10:46:00  -992.712305c -5.67  -3.62    +75.2107
iter: 125 10:48:48  -992.706291c -6.10  -3.42    +75.1839
iter: 126 10:51:46  -992.708256c -6.38  -3.76    +75.1743
iter: 127 10:54:49  -992.707219c -6.29  -3.62    +75.1626
iter: 128 10:57:52  -992.708052c -5.72  -3.69    +75.1337
iter: 129 11:00:56  -992.710631c -5.82  -3.63    +75.1132
iter: 130 11:04:00  -992.711826c -5.36  -3.43    +75.0663
iter: 131 11:07:04  -992.708863c -5.60  -3.38    +75.1162
iter: 132 11:10:08  -992.706471c -6.11  -3.55    +75.1090
iter: 133 11:13:13  -992.706610c -6.68  -3.89    +75.1013
iter: 134 11:16:18  -992.706435c -6.96  -3.85    +75.0979
iter: 135 11:19:21  -992.706471c -6.69  -3.96    +75.0896
iter: 136 11:22:25  -992.706783c -6.54  -4.02c   +75.0894
iter: 137 11:25:29  -992.706784c -6.55  -3.98    +75.0965
iter: 138 11:28:32  -992.707705c -6.23  -4.12c   +75.0858
iter: 139 11:31:40  -992.706485c -6.67  -3.73    +75.0721
iter: 140 11:34:42  -992.706716c -6.84  -4.50c   +75.0594
iter: 141 11:37:43  -992.706798c -7.40c -4.47c   +75.0704

Converged after 141 iterations.

Dipole moment: (51.824244, 28.723763, -0.000472) |e|*Ang

Total magnetic moment: (0.000000, 0.000000, 75.070425)
Local magnetic moments:
   0 Cr ( 0.000000,  0.000000, -2.215327)
   1 Co ( 0.000000,  0.000000,  1.477098)
   2 Fe ( 0.000000,  0.000000,  2.316317)
   3 Cr ( 0.000000,  0.000000,  0.485950)
   4 Ni ( 0.000000,  0.000000,  0.157778)
   5 Ni ( 0.000000,  0.000000,  0.234081)
   6 Co ( 0.000000,  0.000000,  1.213064)
   7 Cr ( 0.000000,  0.000000, -2.205651)
   8 Co ( 0.000000,  0.000000,  1.354257)
   9 Co ( 0.000000,  0.000000,  1.152882)
  10 Cr ( 0.000000,  0.000000, -2.026330)
  11 Fe ( 0.000000,  0.000000,  2.371571)
  12 Co ( 0.000000,  0.000000,  1.523331)
  13 Cr ( 0.000000,  0.000000, -2.402232)
  14 Ni ( 0.000000,  0.000000,  0.089755)
  15 Co ( 0.000000,  0.000000,  0.974718)
  16 Co ( 0.000000,  0.000000,  1.431413)
  17 Co ( 0.000000,  0.000000,  1.422190)
  18 Cr ( 0.000000,  0.000000,  1.907382)
  19 Ni ( 0.000000,  0.000000,  0.266465)
  20 Cr ( 0.000000,  0.000000,  1.758492)
  21 Ni ( 0.000000,  0.000000,  0.399574)
  22 Co ( 0.000000,  0.000000,  1.330084)
  23 Co ( 0.000000,  0.000000,  0.892348)
  24 Co ( 0.000000,  0.000000,  0.944363)
  25 Co ( 0.000000,  0.000000,  0.513804)
  26 Fe ( 0.000000,  0.000000,  2.082506)
  27 Cr ( 0.000000,  0.000000, -1.268945)
  28 Fe ( 0.000000,  0.000000,  1.705334)
  29 Cr ( 0.000000,  0.000000, -0.981700)
  30 Fe ( 0.000000,  0.000000,  1.529984)
  31 Fe ( 0.000000,  0.000000,  1.920002)
  32 Ni ( 0.000000,  0.000000,  0.243143)
  33 Co ( 0.000000,  0.000000,  0.631540)
  34 Cr ( 0.000000,  0.000000,  1.132540)
  35 Cr ( 0.000000,  0.000000,  0.118868)
  36 Co ( 0.000000,  0.000000,  0.879901)
  37 Ni ( 0.000000,  0.000000,  0.335276)
  38 Ni ( 0.000000,  0.000000,  0.231686)
  39 Fe ( 0.000000,  0.000000, -1.985217)
  40 Cr ( 0.000000,  0.000000, -0.091743)
  41 Co ( 0.000000,  0.000000,  1.179208)
  42 Fe ( 0.000000,  0.000000,  2.381456)
  43 Co ( 0.000000,  0.000000,  0.443374)
  44 Fe ( 0.000000,  0.000000,  1.527472)
  45 Cr ( 0.000000,  0.000000, -0.980621)
  46 Ni ( 0.000000,  0.000000,  0.304136)
  47 Ni ( 0.000000,  0.000000,  0.190879)
  48 Cr ( 0.000000,  0.000000, -0.900992)
  49 Fe ( 0.000000,  0.000000,  1.382339)
  50 Cr ( 0.000000,  0.000000, -0.156086)
  51 Ni ( 0.000000,  0.000000,  0.165793)
  52 Co ( 0.000000,  0.000000,  0.951179)
  53 Cr ( 0.000000,  0.000000, -0.401443)
  54 Fe ( 0.000000,  0.000000, -1.301463)
  55 Cr ( 0.000000,  0.000000, -1.404329)
  56 Fe ( 0.000000,  0.000000,  1.972905)
  57 Cr ( 0.000000,  0.000000, -1.049168)
  58 Ni ( 0.000000,  0.000000,  0.172795)
  59 Ni ( 0.000000,  0.000000,  0.125254)
  60 Fe ( 0.000000,  0.000000,  1.792307)
  61 Cr ( 0.000000,  0.000000, -1.392894)
  62 Co ( 0.000000,  0.000000,  0.759457)
  63 Cr ( 0.000000,  0.000000,  1.209209)
  64 Ni ( 0.000000,  0.000000,  0.124949)
  65 Fe ( 0.000000,  0.000000,  1.483832)
  66 Fe ( 0.000000,  0.000000,  1.848945)
  67 Fe ( 0.000000,  0.000000, -1.610620)
  68 Cr ( 0.000000,  0.000000, -1.131536)
  69 Cr ( 0.000000,  0.000000, -0.973514)
  70 Cr ( 0.000000,  0.000000, -0.381187)
  71 Cr ( 0.000000,  0.000000, -0.947910)
  72 Cr ( 0.000000,  0.000000,  0.861677)
  73 Fe ( 0.000000,  0.000000,  1.244958)
  74 Fe ( 0.000000,  0.000000,  0.602806)
  75 Fe ( 0.000000,  0.000000,  2.155858)
  76 Ni ( 0.000000,  0.000000,  0.422485)
  77 Co ( 0.000000,  0.000000,  1.602740)
  78 Ni ( 0.000000,  0.000000,  0.385453)
  79 Fe ( 0.000000,  0.000000,  2.091061)
  80 Fe ( 0.000000,  0.000000,  2.256527)
  81 Fe ( 0.000000,  0.000000,  2.115033)
  82 Fe ( 0.000000,  0.000000,  2.094497)
  83 Fe ( 0.000000,  0.000000,  2.199251)
  84 Ni ( 0.000000,  0.000000,  0.504011)
  85 Ni ( 0.000000,  0.000000,  0.366250)
  86 Fe ( 0.000000,  0.000000,  1.984208)
  87 Ni ( 0.000000,  0.000000,  0.220002)
  88 Co ( 0.000000,  0.000000,  1.096904)
  89 Fe ( 0.000000,  0.000000,  2.214777)
  90 Fe ( 0.000000,  0.000000,  1.982125)
  91 Ni ( 0.000000,  0.000000,  0.352432)
  92 Fe ( 0.000000,  0.000000,  2.191365)
  93 Ni ( 0.000000,  0.000000,  0.365020)
  94 Fe ( 0.000000,  0.000000,  1.907664)
  95 Fe ( 0.000000,  0.000000,  1.982999)
  96 Fe ( 0.000000,  0.000000,  2.105728)
  97 Ni ( 0.000000,  0.000000,  0.469754)
  98 Ni ( 0.000000,  0.000000,  0.406744)
  99 Cr ( 0.000000,  0.000000, -0.606899)
 100 Ni ( 0.000000,  0.000000,  0.651328)
 101 Co ( 0.000000,  0.000000,  1.745249)
 102 Co ( 0.000000,  0.000000,  1.764607)
 103 Co ( 0.000000,  0.000000,  1.448102)
 104 Ni ( 0.000000,  0.000000,  0.416160)
 105 Co ( 0.000000,  0.000000,  1.602372)
 106 Ni ( 0.000000,  0.000000,  0.566028)
 107 Co ( 0.000000,  0.000000,  1.601577)
 108 Co ( 0.000000,  0.000000,  1.561537)
 109 Ni ( 0.000000,  0.000000,  0.664995)
 110 Cr ( 0.000000,  0.000000, -2.568447)
 111 Ni ( 0.000000,  0.000000,  0.397075)
 112 Cr ( 0.000000,  0.000000, -2.295785)
 113 Fe ( 0.000000,  0.000000,  2.475827)
 114 Co ( 0.000000,  0.000000,  1.615875)
 115 Co ( 0.000000,  0.000000,  1.348320)
 116 Cr ( 0.000000,  0.000000,  2.122972)
 117 Cr ( 0.000000,  0.000000, -2.398177)
 118 Ni ( 0.000000,  0.000000,  0.544240)
 119 Co ( 0.000000,  0.000000,  1.509437)
 120 Ni ( 0.000000,  0.000000,  0.422234)
 121 Ni ( 0.000000,  0.000000,  0.454496)
 122 Co ( 0.000000,  0.000000,  1.640240)
 123 Co ( 0.000000,  0.000000,  1.632811)
 124 Cr ( 0.000000,  0.000000, -2.397544)

Energy contributions relative to reference atoms: (reference = -4451268.207082)

Kinetic:       +226.954677
Potential:     -284.909806
External:        +0.000000
XC:            -977.541073
Entropy (-ST):   -5.675950
Local:          +45.627379
--------------------------
Free energy:   -995.544772
Extrapolated:  -992.706798

Dipole-layer corrected work functions: 4.951274, 4.951911 eV

Spin contamination: 42.692494 electrons
Showing all kpts
                      Up                     Down
 Kpt  Band  Eigenvalues  Occupancy  Eigenvalues  Occupancy
  0   606     -0.02738    0.99477      0.83715    0.03240
  0   607     -0.01540    0.99411      0.84819    0.02911
  0   608     -0.00879    0.99371      0.85595    0.02700
  0   609      0.00562    0.99274      0.86448    0.02485

  1   606     -0.01078    0.99383      0.84390    0.03035
  1   607      0.00423    0.99284      0.85714    0.02669
  1   608      0.01455    0.99207      0.86288    0.02523
  1   609      0.03286    0.99049      0.87137    0.02323


Fermi level: 0.49748

No gap

Forces in eV/Ang:
  0 Cr    0.06477    0.17084   -0.16489
  1 Co   -0.00394    0.05984    0.11114
  2 Fe   -0.11977   -0.26835   -0.33149
  3 Cr    0.52870   -0.29451    0.33626
  4 Ni   -0.22034    0.17490   -0.18492
  5 Ni   -0.11134    0.07341   -0.29982
  6 Co   -0.30568   -0.14885    0.07052
  7 Cr    0.09127    0.25392   -0.02164
  8 Co    0.10988   -0.14367    0.20416
  9 Co   -0.06336   -0.14975    0.13975
 10 Cr   -0.02113    0.01770   -0.33935
 11 Fe    0.14460    0.11027    0.12254
 12 Co   -0.08672    0.17759    0.02380
 13 Cr   -0.26690   -0.14538   -0.12892
 14 Ni    0.21551   -0.23948   -0.01803
 15 Co   -0.14639    0.04095    0.24075
 16 Co    0.14609   -0.23783    0.05524
 17 Co   -0.38507    0.04708   -0.09960
 18 Cr    0.20611    0.11132   -0.25457
 19 Ni    0.24116    0.18453   -0.04624
 20 Cr   -0.27890   -0.09371   -0.05139
 21 Ni    0.15434   -0.12085   -0.04127
 22 Co   -0.18615    0.07374    0.06586
 23 Co    0.00410    0.28602    0.11985
 24 Co   -0.20725   -0.10339    0.18885
 25 Co   -0.14441   -0.01941    0.33401
 26 Fe    0.03835   -0.14432   -0.20408
 27 Cr    0.01058    0.14420   -0.12497
 28 Fe   -0.16952    0.21570    0.05315
 29 Cr   -0.10975    0.03199   -0.30215
 30 Fe    0.02848    0.02740   -0.10041
 31 Fe    0.04356    0.22333   -0.04469
 32 Ni    0.23956   -0.11871    0.22318
 33 Co   -0.10068   -0.07613   -0.20227
 34 Cr   -0.07293   -0.13104    0.00107
 35 Cr    0.27398    0.10642   -0.43916
 36 Co    0.08157    0.06556   -0.18526
 37 Ni    0.06709    0.19063   -0.16974
 38 Ni   -0.13707   -0.18506    0.08751
 39 Fe   -0.23903    0.01838   -0.01391
 40 Cr    0.43113   -0.11840    0.06322
 41 Co   -0.13643    0.05193   -0.12721
 42 Fe   -0.06975   -0.08187   -0.22702
 43 Co    0.13118    0.04422    0.04478
 44 Fe   -0.28347    0.19981   -0.01108
 45 Cr    0.33904   -0.40596   -0.06953
 46 Ni   -0.15199   -0.09581   -0.13299
 47 Ni    0.01900   -0.18084    0.01203
 48 Cr    0.16980   -0.07105   -0.28822
 49 Fe    0.24485    0.08674    0.01030
 50 Cr   -0.55849   -0.07411   -0.24046
 51 Ni    0.11004    0.05554    0.09809
 52 Co    0.11233    0.14873    0.02206
 53 Cr    0.06900   -0.28135   -0.24761
 54 Fe    0.15606    0.10944   -0.14788
 55 Cr   -0.04714    0.19205   -0.01112
 56 Fe    0.12779   -0.22225   -0.33910
 57 Cr    0.26355   -0.12547   -0.20127
 58 Ni    0.00876   -0.10352   -0.15911
 59 Ni    0.02437   -0.24321   -0.21710
 60 Fe    0.00510    0.25658    0.12831
 61 Cr   -0.15632    0.26632   -0.33275
 62 Co   -0.07714   -0.09142    0.06379
 63 Cr   -0.00351    0.07712   -0.47668
 64 Ni   -0.06264    0.05150   -0.07962
 65 Fe    0.00452    0.23217   -0.31524
 66 Fe   -0.20699   -0.05987    0.07340
 67 Fe    0.31656    0.01662   -0.29613
 68 Cr   -0.24405   -0.26063    0.05041
 69 Cr    0.31798    0.08549   -0.12363
 70 Cr   -0.32305    0.22981    0.03742
 71 Cr    0.02198   -0.07799    0.03727
 72 Cr    0.17396   -0.12121    0.19937
 73 Fe    0.14644   -0.00190   -0.25273
 74 Fe    0.08715    0.13775   -0.11600
 75 Fe   -0.01816    0.08837   -0.13213
 76 Ni   -0.00052   -0.12155    0.10221
 77 Co    0.12928    0.12964    0.12596
 78 Ni   -0.21226    0.03662    0.09980
 79 Fe   -0.03331    0.05303   -0.02975
 80 Fe   -0.11763   -0.18605    0.25972
 81 Fe    0.27764   -0.10662    0.36880
 82 Fe   -0.25403   -0.20070    0.39226
 83 Fe    0.04215    0.11431   -0.08651
 84 Ni    0.09893   -0.10852   -0.08512
 85 Ni   -0.02237    0.23392    0.28586
 86 Fe   -0.14187    0.03074   -0.15595
 87 Ni    0.17034    0.05129   -0.19588
 88 Co   -0.11253    0.00990    0.01922
 89 Fe   -0.25417    0.17070    0.48741
 90 Fe   -0.03975   -0.10659    0.10506
 91 Ni    0.08856   -0.08491   -0.27412
 92 Fe    0.02842    0.11498    0.06125
 93 Ni   -0.04619    0.13279    0.01615
 94 Fe    0.03969    0.17330    0.15186
 95 Fe   -0.29773   -0.00719    0.05535
 96 Fe    0.20248   -0.12065    0.16394
 97 Ni   -0.03736   -0.02035    0.07954
 98 Ni    0.18773   -0.01642    0.13533
 99 Cr   -0.03718    0.02219   -0.13149
100 Ni    0.05824    0.00200    0.26810
101 Co    0.08050   -0.05948    0.09279
102 Co    0.05507    0.00826   -0.08875
103 Co   -0.12414   -0.05471    0.04674
104 Ni   -0.03391    0.17623    0.37076
105 Co   -0.17556   -0.14532   -0.05256
106 Ni    0.12642   -0.14635    0.08168
107 Co   -0.18388   -0.11139    0.04684
108 Co    0.10675   -0.16587   -0.03230
109 Ni    0.03798    0.08871    0.15909
110 Cr    0.05327   -0.03196    0.38826
111 Ni   -0.12008   -0.12402    0.21227
112 Cr   -0.42306   -0.84015    0.22626
113 Fe    0.27877   -0.08167    0.18009
114 Co   -0.04218    0.00900   -0.15109
115 Co   -0.16194    0.13673   -0.37481
116 Cr    0.18518   -0.05398    0.51211
117 Cr    0.50628    0.78829    0.30812
118 Ni    0.16839    0.03277    0.31548
119 Co   -0.32096    0.01225   -0.34528
120 Ni   -0.03065    0.12738    0.17551
121 Ni    0.09444    0.31891    0.27592
122 Co   -0.02284    0.21803    0.17682
123 Co   -0.07433    0.06204    0.00835
124 Cr    0.05592   -0.25861    0.36283

Timing:                              incl.     excl.
-----------------------------------------------------------
Forces:                             45.621    45.621   0.2% |
Hamiltonian:                         1.738     0.017   0.0% |
 Atomic:                             0.428     0.002   0.0% |
  XC Correction:                     0.426     0.426   0.0% |
 Calculate atomic Hamiltonians:      0.617     0.617   0.0% |
 Communicate:                        0.081     0.081   0.0% |
 Initialize Hamiltonian:             0.001     0.001   0.0% |
 Poisson:                            0.131     0.131   0.0% |
 XC 3D grid:                         0.464     0.464   0.0% |
LCAO initialization:               398.506     0.478   0.0% |
 LCAO eigensolver:                  27.342     0.023   0.0% |
  Calculate projections:             0.000     0.000   0.0% |
  DenseAtomicCorrection:             0.000     0.000   0.0% |
  Distribute overlap matrix:        13.367    13.367   0.0% |
  Orbital Layouts:                  13.884    13.884   0.1% |
  Potential matrix:                  0.008     0.008   0.0% |
  Sum over cells:                    0.059     0.059   0.0% |
 LCAO to grid:                     367.805   367.805   1.4% ||
 Set positions (LCAO WFS):           2.881     2.503   0.0% |
  Basic WFS set positions:           0.004     0.004   0.0% |
  Basis functions set positions:     0.001     0.001   0.0% |
  P tci:                             0.001     0.001   0.0% |
  ST tci:                            0.149     0.149   0.0% |
  mktci:                             0.224     0.224   0.0% |
PWDescriptor:                        0.114     0.114   0.0% |
SCF-cycle:                       26490.234   725.112   2.7% ||
 Davidson:                       24998.342  7734.901  28.7% |----------|
  Apply H:                         508.515   501.932   1.9% ||
   HMM T:                            6.583     6.583   0.0% |
  Subspace diag:                  2435.412     0.057   0.0% |
   calc_h_matrix:                 1002.221   597.927   2.2% ||
    Apply H:                       404.294   397.289   1.5% ||
     HMM T:                          7.005     7.005   0.0% |
   diagonalize:                    313.894   313.894   1.2% |
   rotate_psi:                    1119.240  1119.240   4.2% |-|
  calc. matrices:                 6077.723  5342.184  19.8% |-------|
   Apply H:                        735.540   721.995   2.7% ||
    HMM T:                          13.545    13.545   0.1% |
  diagonalize:                    5655.750  5655.750  21.0% |-------|
  rotate_psi:                     2586.040  2586.040   9.6% |---|
 Density:                          426.204     0.005   0.0% |
  Atomic density matrices:           3.831     3.831   0.0% |
  Mix:                             209.419   209.419   0.8% |
  Multipole moments:                 0.110     0.110   0.0% |
  Pseudo density:                  212.839   212.834   0.8% |
   Symmetrize density:               0.006     0.006   0.0% |
 Hamiltonian:                      318.239     1.649   0.0% |
  Atomic:                           46.435     0.185   0.0% |
   XC Correction:                   46.250    46.250   0.2% |
  Calculate atomic Hamiltonians:   180.920   180.920   0.7% |
  Communicate:                      34.467    34.467   0.1% |
  Poisson:                           5.849     5.849   0.0% |
  XC 3D grid:                       48.919    48.919   0.2% |
 Orthonormalize:                    22.338     0.001   0.0% |
  calc_s_matrix:                     2.873     2.873   0.0% |
  inverse-cholesky:                  1.161     1.161   0.0% |
  projections:                      13.473    13.473   0.1% |
  rotate_psi_s:                      4.831     4.831   0.0% |
Set symmetry:                        0.001     0.001   0.0% |
Other:                               7.964     7.964   0.0% |
-----------------------------------------------------------
Total:                                     26944.178 100.0%

Date: Tue Apr 18 11:38:34 2023
