
  ___ ___ ___ _ _ _  
 |   |   |_  | | | | 
 | | | | | . | | | | 
 |__ |  _|___|_____|  22.8.0
 |___|_|             

User:   c.zeng@d0075
Date:   Fri Apr 14 01:13:43 2023
Arch:   x86_64
Pid:    93934
CWD:    /home/c.zeng/projects/hea-corrosion/hea-mlp/data-curation/bulk-md/dft-jobs/77
Python: 3.8.1
gpaw:   /home/c.zeng/usr/installs/gpaw/source/gpaw-22.8.0/gpaw
_gpaw:  /home/c.zeng/usr/installs/gpaw/source/gpaw-22.8.0/
        _gpaw.cpython-38-x86_64-linux-gnu.so
ase:    /home/c.zeng/.local/lib/python3.8/site-packages/ase-3.22.1-py3.8.egg/ase (version 3.22.1)
numpy:  /shared/centos7/python/3.8.1/lib/python3.8/site-packages/numpy (version 1.17.4)
scipy:  /shared/centos7/python/3.8.1/lib/python3.8/site-packages/scipy (version 1.4.1)
libxc:  4.2.3
units:  Angstrom and eV
cores: 30
OpenMP: False
OMP_NUM_THREADS: 1

Input parameters:
  convergence: {energy: 0.0001}
  kpts: [2 2 2]
  maxiter: 666
  mode: {ecut: 350.0,
         name: pw}
  occupations: {fixmagmom: False,
                name: fermi-dirac,
                width: 0.1}
  spinpol: True
  xc: PBE

System changes: positions, numbers, cell, pbc, initial_charges, initial_magmoms 

Initialize ...

species:
  Fe:
    name: Iron
    id: 37abbd8d6c3c35915a9b583b742da910
    Z: 26.0
    valence: 8
    core: 18
    charge: 0.0
    file: /home/c.zeng/usr/data/gpaw-setups-0.9.20000/Fe.PBE.gz
    compensation charges: {type: gauss,
                           rc: 0.33,
                           lmax: 2}
    cutoffs: {filter: 2.06,
              core: 2.67}
    valence states:
      #              energy  rcut
      - 4s(2.00)    -5.291   1.164
      - 4p(0.00)    -1.326   1.058
      - 3d(6.00)    -7.505   1.058
      -  s          21.920   1.164
      -  p          25.885   1.058
      -  d          19.706   1.058
  
    # Using partial waves for Fe as LCAO basis

  Cr:
    name: Chromium
    id: 33f258bda2ca9f93018e70263a35547b
    Z: 24.0
    valence: 6
    core: 18
    charge: 0.0
    file: /home/c.zeng/usr/data/gpaw-setups-0.9.20000/Cr.PBE.gz
    compensation charges: {type: gauss,
                           rc: 0.35,
                           lmax: 2}
    cutoffs: {filter: 2.14,
              core: 3.04}
    valence states:
      #              energy  rcut
      - 4s(1.00)    -4.007   1.164
      - 4p(0.00)    -0.989   1.217
      - 3d(5.00)    -2.913   1.111
      -  s          23.205   1.164
      -  p          26.223   1.217
      -  d          24.299   1.111
  
    # Using partial waves for Cr as LCAO basis

  Ni:
    name: Nickel
    id: 0d9f38a9d6e76a2886f07bb4381f212b
    Z: 28.0
    valence: 16
    core: 12
    charge: 0.0
    file: /home/c.zeng/usr/data/gpaw-setups-0.9.20000/Ni.PBE.gz
    compensation charges: {type: gauss,
                           rc: 0.36,
                           lmax: 2}
    cutoffs: {filter: 2.14,
              core: 1.98}
    valence states:
      #              energy  rcut
      - 4s(2.00)    -5.642   1.164
      - 3p(6.00)   -71.394   1.207
      - 4p(0.00)    -1.226   1.207
      - 3d(8.00)    -8.875   1.138
      -  s          21.570   1.164
      -  d          18.337   1.138
  
    # Using partial waves for Ni as LCAO basis

  Al:
    name: Aluminium
    id: 0292cae29f5d6237e50f6abdd43a7bdd
    Z: 13.0
    valence: 3
    core: 10
    charge: 0.0
    file: /home/c.zeng/usr/data/gpaw-setups-0.9.20000/Al.PBE.gz
    compensation charges: {type: gauss,
                           rc: 0.34,
                           lmax: 2}
    cutoffs: {filter: 1.91,
              core: 2.36}
    valence states:
      #              energy  rcut
      - 3s(2.00)    -7.753   1.085
      - 3p(1.00)    -2.712   1.085
      -  s          19.459   1.085
      -  p          24.499   1.085
      -  d           0.000   1.085
  
    # Using partial waves for Al as LCAO basis

  Co:
    name: Cobalt
    id: 339d20d5b0b93d2de9531a1bee871d91
    Z: 27.0
    valence: 9
    core: 18
    charge: 0.0
    file: /home/c.zeng/usr/data/gpaw-setups-0.9.20000/Co.PBE.gz
    compensation charges: {type: gauss,
                           rc: 0.32,
                           lmax: 2}
    cutoffs: {filter: 1.87,
              core: 2.55}
    valence states:
      #              energy  rcut
      - 4s(2.00)    -5.469   1.005
      - 4p(0.00)    -1.277   1.058
      - 3d(7.00)    -8.205   1.005
      -  s          21.742   1.005
      -  p          25.934   1.058
      -  d          19.007   1.005
  
    # Using partial waves for Co as LCAO basis

Reference energy: -3382523.201499  # eV

Spin-polarized calculation.
Magnetic moment: 128.800000

Convergence criteria:
 Maximum [total energy] change in last 3 cyles: 0.0001 eV / electron
 Maximum integral of absolute [dens]ity change: 0.0001 electrons / valence electron
 Maximum integral of absolute [eigenst]ate change: 4e-08 eV^2 / valence electron
 Maximum number of scf [iter]ations: 666
 (Square brackets indicate name in SCF output, whereas a 'c' in
 the SCF output indicates the quantity has converged.)

Symmetries present (total): 1

  ( 1  0  0)
  ( 0  1  0)
  ( 0  0  1)

8 k-points: 2 x 2 x 2 Monkhorst-Pack grid
4 k-points in the irreducible part of the Brillouin zone
       k-points in crystal coordinates                weights
   0:     0.25000000   -0.25000000   -0.25000000          2/8
   1:     0.25000000   -0.25000000    0.25000000          2/8
   2:     0.25000000    0.25000000   -0.25000000          2/8
   3:     0.25000000    0.25000000    0.25000000          2/8

Wave functions: Plane wave expansion
  Cutoff energy: 350.000 eV
  Number of coefficients (min, max): 18865, 18865
  Pulay-stress correction: 0.000000 eV/Ang^3 (de/decut=0.000000)
  Using FFTW library
  ScaLapack parameters: grid=1x1, blocksize=None
  Wavefunction extrapolation:
    Improved wavefunction reuse through dual PAW basis 

Occupation numbers: Fermi-Dirac:
  width: 0.1000  # eV
 

Eigensolver
   Davidson(niter=2) 

Densities:
  Coarse grid: 48*48*48 grid
  Fine grid: 96*96*96 grid
  Total Charge: 0.000000 

Density mixing:
  Method: difference
  Backend: pulay
  Linear mixing parameter: 0.05
  old densities: 5
  Damping of long wavelength oscillations: 50 

Hamiltonian:
  XC and Coulomb potentials evaluated on a 96*96*96 grid
  Using the PBE Exchange-Correlation functional
  External potential:
    NoExternalPotential
 

XC parameters: PBE with 2 nearest neighbor stencil

Memory estimate:
  Process memory now: 238.86 MiB
  Calculator: 1017.03 MiB
    Density: 5.55 MiB
      Arrays: 2.05 MiB
      Localized functions: 2.68 MiB
      Mixer: 0.82 MiB
    Hamiltonian: 1.60 MiB
      Arrays: 1.52 MiB
      XC: 0.00 MiB
      Poisson: 0.00 MiB
      vbar: 0.08 MiB
    Wavefunctions: 1009.87 MiB
      Arrays psit_nG: 747.28 MiB
      Eigensolver: 252.55 MiB
      Projections: 4.92 MiB
      Projectors: 0.73 MiB
      PW-descriptor: 4.39 MiB

Total number of cores used: 30
Parallelization over k-points: 2
Domain decomposition: 5 x 3 x 1

Number of atoms: 108
Number of atomic orbitals: 961
Number of bands in calculation: 649
Number of valence electrons: 945
Bands to converge: occupied

... initialized

Initializing position-dependent things.

Density initialized from atomic densities
Creating initial wave functions:
  649 bands from LCAO basis set

        .--------------------------.  
       /|        Al                |  
      / |   Co      Fe           Ni|  
     /  |                Ni      Fe|  
    /   |Co    Ale         Al     Fe  
   /    |  NCoe     CCr     Co     |  
  / Fe Cr            CCrACo   Fe   |  
 *    NiCo    CrrNi   Fe  Fe  Co   |  
 |      |CrFe    Co Al   FeCrCo   Co  
 | Ni   | AlNi     AlAlNi CrCr     |  
 |   CCo|   NiCre    NNi Ni   Cr   |  
 |    FeCo     AlFe   NiAlCo       |  
 |Co    |  Al   CrFeCo   CrCo     Cr  
 | NiCo .AlrAl-----Fe-Ni--AlCo-----.  
 |     Cr Al    Ni     FeNi   NCr /   
 |Ni  /      CrCr       Ni       /    
 |   / FeCrFe    Coe      Co    /     
 |  Ni      Fe      Co       Cr/      
 | /  Ni                Ni    /       
 |/            Al            /        
 *Fe------------------------*         

Positions:
   0 Fe    10.980925   11.202512   10.960875    ( 0.0000,  0.0000,  2.0000)
   1 Cr    10.782948    1.911939    1.843278    ( 0.0000,  0.0000,  0.0000)
   2 Ni     2.074149    0.232114    1.705412    ( 0.0000,  0.0000,  1.5000)
   3 Cr     1.711023    2.040669   10.761670    ( 0.0000,  0.0000,  0.0000)
   4 Al     3.545848   -0.301289   -0.454798    ( 0.0000,  0.0000,  0.0000)
   5 Fe     3.725614    2.051968    1.711938    ( 0.0000,  0.0000,  2.0000)
   6 Ni     5.498794   10.733226    1.945020    ( 0.0000,  0.0000,  1.5000)
   7 Al     5.178125    1.698621    0.027012    ( 0.0000,  0.0000,  0.0000)
   8 Al     7.130217   10.738019    0.146298    ( 0.0000,  0.0000,  0.0000)
   9 Co     7.309245    1.823816    1.920749    ( 0.0000,  0.0000,  2.1000)
  10 Ni     9.189816    0.204743    1.633748    ( 0.0000,  0.0000,  1.5000)
  11 Co     8.995794    1.844801   -0.017257    ( 0.0000,  0.0000,  2.1000)
  12 Ni     0.180271    3.946457   10.864786    ( 0.0000,  0.0000,  1.5000)
  13 Cr    10.645196    5.513384    2.050114    ( 0.0000,  0.0000,  0.0000)
  14 Fe     1.647227    3.420110    1.899721    ( 0.0000,  0.0000,  2.0000)
  15 Cr     1.706775    5.503242   10.930434    ( 0.0000,  0.0000,  0.0000)
  16 Co     3.601741    3.624998   10.503063    ( 0.0000,  0.0000,  2.1000)
  17 Cr     3.606442    5.297018    1.613099    ( 0.0000,  0.0000,  0.0000)
  18 Co     5.675449    3.568126    1.685075    ( 0.0000,  0.0000,  2.1000)
  19 Fe     5.479458    5.519386    0.058590    ( 0.0000,  0.0000,  2.0000)
  20 Cr     7.147570    3.319754   -0.055844    ( 0.0000,  0.0000,  0.0000)
  21 Fe     7.472335    5.292405    1.943532    ( 0.0000,  0.0000,  2.0000)
  22 Co     9.069081    3.860160    1.658997    ( 0.0000,  0.0000,  2.1000)
  23 Al     8.908031    5.366529   10.771515    ( 0.0000,  0.0000,  0.0000)
  24 Ni    10.777479    7.214228   10.805733    ( 0.0000,  0.0000,  1.5000)
  25 Cr    10.771399    9.079475    1.946692    ( 0.0000,  0.0000,  0.0000)
  26 Cr     1.829924    7.332865    1.974342    ( 0.0000,  0.0000,  0.0000)
  27 Al     1.337373    9.193654    0.303631    ( 0.0000,  0.0000,  0.0000)
  28 Cr     3.632493    7.171962    0.129578    ( 0.0000,  0.0000,  0.0000)
  29 Cr     3.658194    9.208222    1.686577    ( 0.0000,  0.0000,  0.0000)
  30 Fe     5.416743    7.092009    1.778173    ( 0.0000,  0.0000,  2.0000)
  31 Fe     5.294789    8.737477   -0.317972    ( 0.0000,  0.0000,  2.0000)
  32 Ni     7.368285    7.260265    0.113079    ( 0.0000,  0.0000,  1.5000)
  33 Cr     7.171180    8.935207    1.692361    ( 0.0000,  0.0000,  0.0000)
  34 Co     9.056603    7.082189    1.894518    ( 0.0000,  0.0000,  2.1000)
  35 Ni     9.118118    9.171377   10.956317    ( 0.0000,  0.0000,  1.5000)
  36 Ni     0.183622   11.021953    3.642482    ( 0.0000,  0.0000,  1.5000)
  37 Co    10.928283    1.891362    5.626421    ( 0.0000,  0.0000,  2.1000)
  38 Co     1.710108   10.852005    5.420972    ( 0.0000,  0.0000,  2.1000)
  39 Cr     1.845576    1.837851    3.640226    ( 0.0000,  0.0000,  0.0000)
  40 Fe     3.822442   10.873612    3.586019    ( 0.0000,  0.0000,  2.0000)
  41 Al     3.609014    1.463861    5.624171    ( 0.0000,  0.0000,  0.0000)
  42 Fe     5.535733   10.789223    5.385545    ( 0.0000,  0.0000,  2.0000)
  43 Ni     5.376401    2.115821    3.632203    ( 0.0000,  0.0000,  1.5000)
  44 Cr     7.425437   -0.154564    3.583360    ( 0.0000,  0.0000,  0.0000)
  45 Co     7.259096    1.749580    5.375942    ( 0.0000,  0.0000,  2.1000)
  46 Co     8.960294   10.759369    5.349312    ( 0.0000,  0.0000,  2.1000)
  47 Ni     8.961288    1.806539    3.639937    ( 0.0000,  0.0000,  1.5000)
  48 Ni    10.963234    3.308840    3.685547    ( 0.0000,  0.0000,  1.5000)
  49 Cr    11.086147    5.325423    5.527931    ( 0.0000,  0.0000,  0.0000)
  50 Co     1.874245    3.469540    5.349371    ( 0.0000,  0.0000,  2.1000)
  51 Al     1.648973    5.334957    3.325806    ( 0.0000,  0.0000,  0.0000)
  52 Al     3.460674    3.630421    3.571692    ( 0.0000,  0.0000,  0.0000)
  53 Fe     3.722619    5.352377    5.071061    ( 0.0000,  0.0000,  2.0000)
  54 Fe     5.500132    3.697531    5.510064    ( 0.0000,  0.0000,  2.0000)
  55 Fe     5.512595    5.464074    3.501183    ( 0.0000,  0.0000,  2.0000)
  56 Ni     7.396234    3.611077    3.751604    ( 0.0000,  0.0000,  1.5000)
  57 Ni     7.099180    5.282229    5.462428    ( 0.0000,  0.0000,  1.5000)
  58 Co     9.019969    3.671311    5.394980    ( 0.0000,  0.0000,  2.1000)
  59 Co     9.204428    5.319883    3.768308    ( 0.0000,  0.0000,  2.1000)
  60 Fe    10.831422    7.253093    3.685278    ( 0.0000,  0.0000,  2.0000)
  61 Co    10.781483    9.332910    5.113646    ( 0.0000,  0.0000,  2.1000)
  62 Al     1.810112    7.410821    5.224091    ( 0.0000,  0.0000,  0.0000)
  63 Ni     1.907828    9.235986    3.684235    ( 0.0000,  0.0000,  1.5000)
  64 Al     3.692905    7.292532    3.683769    ( 0.0000,  0.0000,  0.0000)
  65 Cr     3.449490    9.060495    5.633166    ( 0.0000,  0.0000,  0.0000)
  66 Al     5.409003    7.059124    5.649777    ( 0.0000,  0.0000,  0.0000)
  67 Ni     5.589760    9.089617    3.699662    ( 0.0000,  0.0000,  1.5000)
  68 Al     7.427499    7.120455    3.632670    ( 0.0000,  0.0000,  0.0000)
  69 Fe     7.339558    9.061732    5.401585    ( 0.0000,  0.0000,  2.0000)
  70 Cr     8.881885    7.073142    5.349017    ( 0.0000,  0.0000,  0.0000)
  71 Cr     9.042316    9.208037    3.496262    ( 0.0000,  0.0000,  0.0000)
  72 Fe    10.607229   10.689418    7.206067    ( 0.0000,  0.0000,  2.0000)
  73 Co    10.652239    1.814849    9.057874    ( 0.0000,  0.0000,  2.1000)
  74 Co     1.519752   -0.140515    8.978208    ( 0.0000,  0.0000,  2.1000)
  75 Co     1.461619    1.609958    7.445223    ( 0.0000,  0.0000,  2.1000)
  76 Fe     3.185931   -0.194111    7.354888    ( 0.0000,  0.0000,  2.0000)
  77 Fe     3.462875    1.878590    8.983080    ( 0.0000,  0.0000,  2.0000)
  78 Cr     5.327403   10.850372    8.709049    ( 0.0000,  0.0000,  0.0000)
  79 Fe     5.331887    1.731634    7.140968    ( 0.0000,  0.0000,  2.0000)
  80 Co     7.466310   10.693948    7.229442    ( 0.0000,  0.0000,  2.1000)
  81 Al     7.345889    1.677050    8.783847    ( 0.0000,  0.0000,  0.0000)
  82 Ni     8.968617   10.848816    9.267604    ( 0.0000,  0.0000,  1.5000)
  83 Ni     9.159052    1.858743    7.090181    ( 0.0000,  0.0000,  1.5000)
  84 Ni    10.836142    3.574139    7.160989    ( 0.0000,  0.0000,  1.5000)
  85 Fe     0.004769    5.184632    8.942554    ( 0.0000,  0.0000,  2.0000)
  86 Co     1.693960    3.655726    8.946168    ( 0.0000,  0.0000,  2.1000)
  87 Cr     1.906141    5.397503    7.193112    ( 0.0000,  0.0000,  0.0000)
  88 Ni     3.609001    3.618431    6.975147    ( 0.0000,  0.0000,  1.5000)
  89 Fe     3.405129    5.567828    9.124466    ( 0.0000,  0.0000,  2.0000)
  90 Ni     5.382251    3.246442    8.981846    ( 0.0000,  0.0000,  1.5000)
  91 Co     5.068589    5.298162    7.322032    ( 0.0000,  0.0000,  2.1000)
  92 Al     7.251605    3.579001    6.961358    ( 0.0000,  0.0000,  0.0000)
  93 Cr     7.044469    5.087576    9.166439    ( 0.0000,  0.0000,  0.0000)
  94 Fe     8.902068    3.673201    8.983456    ( 0.0000,  0.0000,  2.0000)
  95 Cr     9.001032    5.350090    7.053063    ( 0.0000,  0.0000,  0.0000)
  96 Ni    10.990539    7.067394    7.235046    ( 0.0000,  0.0000,  1.5000)
  97 Fe    10.464922    8.847047    9.062894    ( 0.0000,  0.0000,  2.0000)
  98 Co     1.436581    7.378975    9.156111    ( 0.0000,  0.0000,  2.1000)
  99 Ni     1.464634    9.085693    7.248200    ( 0.0000,  0.0000,  1.5000)
 100 Cr     3.400888    7.061432    7.084882    ( 0.0000,  0.0000,  0.0000)
 101 Al     3.367837    8.646561    8.838143    ( 0.0000,  0.0000,  0.0000)
 102 Cr     5.669580    6.882920    8.986795    ( 0.0000,  0.0000,  0.0000)
 103 Co     5.567301    8.788173    7.174210    ( 0.0000,  0.0000,  2.1000)
 104 Al     7.266000    7.142933    7.509380    ( 0.0000,  0.0000,  0.0000)
 105 Ni     7.226017    9.274076    9.022507    ( 0.0000,  0.0000,  1.5000)
 106 Co     9.149536    6.870291    9.040639    ( 0.0000,  0.0000,  2.1000)
 107 Fe     9.302521    8.740733    7.115770    ( 0.0000,  0.0000,  2.0000)

Unit cell:
           periodic     x           y           z      points  spacing
  1. axis:    yes   10.820500    0.000000    0.000000    48     0.2254
  2. axis:    yes    0.000000   10.820500    0.000000    48     0.2254
  3. axis:    yes    0.000000    0.000000   10.820500    48     0.2254

  Lengths:  10.820500  10.820500  10.820500
  Angles:   90.000000  90.000000  90.000000

Effective grid spacing dv^(1/3) = 0.2254

     iter     time        total  log10-change:  magmom
                         energy  eigst   dens
iter:   1 01:18:42  -972.940766                  +129.0868
iter:   2 01:20:53  -869.362135  -0.19  -1.18    +70.9429
iter:   3 01:23:03  -853.436535  -0.84  -1.19    +60.8994
iter:   4 01:25:14  -832.416717  -1.26  -1.27    +56.6212
iter:   5 01:27:24  -824.435153  -1.59  -1.29    +55.0033
iter:   6 01:29:34  -826.770477  -1.34  -1.34    +55.5935
iter:   7 01:31:44  -819.684350  -1.30  -1.39    +54.4330
iter:   8 01:33:54  -811.609361  -1.57  -1.50    +54.5910
iter:   9 01:36:04  -810.542474  -1.80  -1.65    +55.2268
iter:  10 01:38:14  -807.611938  -2.33  -1.70    +55.5705
iter:  11 01:40:24  -807.905708  -2.45  -1.78    +58.3997
iter:  12 01:42:34  -809.263189  -2.36  -1.85    +59.8714
iter:  13 01:44:43  -808.717888  -2.43  -1.85    +60.5081
iter:  14 01:47:49  -808.633691  -2.49  -1.94    +61.7823
iter:  15 01:50:10  -808.815629  -2.67  -2.00    +62.4537
iter:  16 01:52:20  -808.364585  -2.89  -2.02    +62.7834
iter:  17 01:54:30  -808.741148  -3.00  -2.09    +63.8650
iter:  18 01:56:40  -808.244536  -3.03  -2.08    +63.9813
iter:  19 01:58:51  -808.246333  -3.09  -2.23    +64.2993
iter:  20 02:01:01  -808.336523c -3.20  -2.32    +64.6792
iter:  21 02:03:11  -808.386624  -3.27  -2.36    +64.7943
iter:  22 02:05:22  -808.373941c -3.36  -2.36    +65.0123
iter:  23 02:07:32  -808.329055c -3.54  -2.42    +65.1354
iter:  24 02:09:42  -808.333982c -3.60  -2.49    +65.2197
iter:  25 02:11:52  -808.372466c -3.83  -2.56    +65.3245
iter:  26 02:14:03  -808.414724c -3.81  -2.57    +65.1512
iter:  27 02:16:13  -808.428480c -3.87  -2.61    +65.1986
iter:  28 02:18:23  -808.470640c -3.91  -2.64    +65.1110
iter:  29 02:20:33  -808.469764c -4.15  -2.65    +65.0534
iter:  30 02:22:43  -808.511386c -4.10  -2.72    +64.9234
iter:  31 02:24:53  -808.545173c -4.23  -2.75    +64.8725
iter:  32 02:27:03  -808.578860c -4.18  -2.77    +64.7061
iter:  33 02:29:14  -808.604146c -4.23  -2.79    +64.5992
iter:  34 02:31:24  -808.641829c -4.20  -2.83    +64.4787
iter:  35 02:33:34  -808.646968c -4.40  -2.83    +64.3883
iter:  36 02:35:44  -808.666066c -4.31  -2.89    +64.2839
iter:  37 02:37:53  -808.683529c -4.36  -2.92    +64.2373
iter:  38 02:40:03  -808.683465c -4.59  -2.94    +64.1586
iter:  39 02:42:39  -808.695055c -4.66  -3.01    +64.1172
iter:  40 02:45:28  -808.707402c -4.66  -3.02    +64.0620
iter:  41 02:47:38  -808.707137c -4.76  -3.02    +64.0179
iter:  42 02:49:49  -808.712908c -4.89  -3.09    +63.9715
iter:  43 02:51:59  -808.722936c -4.88  -3.14    +63.8993
iter:  44 02:54:09  -808.723232c -4.97  -3.14    +63.8953
iter:  45 02:56:20  -808.728656c -5.01  -3.19    +63.8626
iter:  46 02:58:30  -808.732791c -4.92  -3.20    +63.7706
iter:  47 03:00:41  -808.731945c -5.19  -3.23    +63.7629
iter:  48 03:02:51  -808.736166c -5.26  -3.31    +63.7519
iter:  49 03:05:02  -808.738926c -5.19  -3.34    +63.7084
iter:  50 03:07:12  -808.741120c -5.27  -3.33    +63.6902
iter:  51 03:09:22  -808.741148c -5.28  -3.36    +63.6824
iter:  52 03:11:32  -808.744535c -5.33  -3.48    +63.6459
iter:  53 03:13:42  -808.745615c -5.52  -3.47    +63.5940
iter:  54 03:15:53  -808.746755c -5.65  -3.52    +63.5751
iter:  55 03:18:03  -808.748050c -5.68  -3.53    +63.5649
iter:  56 03:20:13  -808.750084c -5.61  -3.60    +63.5040
iter:  57 03:22:23  -808.753314c -5.27  -3.65    +63.4269
iter:  58 03:24:33  -808.757319c -5.08  -3.68    +63.3243
iter:  59 03:26:43  -808.761413c -4.88  -3.68    +63.2303
iter:  60 03:28:53  -808.767089c -4.54  -3.62    +63.0907
iter:  61 03:31:03  -808.765471c -5.76  -3.46    +63.1535
iter:  62 03:33:13  -808.766055c -6.00  -3.51    +63.1470
iter:  63 03:35:27  -808.767171c -5.54  -3.49    +63.1352
iter:  64 03:38:32  -808.766736c -5.88  -3.45    +63.1393
iter:  65 03:40:47  -808.769069c -5.33  -3.54    +63.1320
iter:  66 03:42:57  -808.766148c -5.75  -3.42    +63.1445
iter:  67 03:45:08  -808.768407c -5.37  -3.54    +63.1324
iter:  68 03:47:18  -808.765788c -5.60  -3.43    +63.1219
iter:  69 03:49:28  -808.765645c -5.97  -3.64    +63.0972
iter:  70 03:51:39  -808.766532c -5.81  -3.66    +63.0877
iter:  71 03:53:48  -808.765634c -6.02  -3.67    +63.0832
iter:  72 03:55:59  -808.765969c -5.90  -3.72    +63.0592
iter:  73 03:58:09  -808.765734c -6.05  -3.95    +63.0587
iter:  74 04:00:19  -808.765554c -6.15  -3.89    +63.0641
iter:  75 04:02:29  -808.765430c -6.44  -3.96    +63.0568
iter:  76 04:04:40  -808.765467c -6.73  -4.09c   +63.0595
iter:  77 04:06:50  -808.765549c -6.86  -4.14c   +63.0586
iter:  78 04:09:00  -808.765186c -6.87  -4.16c   +63.0594
iter:  79 04:11:11  -808.765495c -6.76  -4.17c   +63.0572
iter:  80 04:13:22  -808.765310c -6.80  -4.19c   +63.0578
iter:  81 04:15:31  -808.765224c -6.81  -4.40c   +63.0585
iter:  82 04:17:41  -808.765219c -7.26  -4.34c   +63.0572
iter:  83 04:19:51  -808.765234c -7.29  -4.52c   +63.0588
iter:  84 04:22:00  -808.765315c -7.49c -4.53c   +63.0575

Converged after 84 iterations.

Dipole moment: (-7.481795, 18.911389, -6.753059) |e|*Ang

Total magnetic moment: (0.000000, 0.000000, 63.057528)
Local magnetic moments:
   0 Fe ( 0.000000,  0.000000,  1.500184)
   1 Cr ( 0.000000,  0.000000, -1.012535)
   2 Ni ( 0.000000,  0.000000, -0.048670)
   3 Cr ( 0.000000,  0.000000, -1.499483)
   4 Al ( 0.000000,  0.000000, -0.010901)
   5 Fe ( 0.000000,  0.000000,  2.275345)
   6 Ni ( 0.000000,  0.000000,  0.194059)
   7 Al ( 0.000000,  0.000000, -0.020441)
   8 Al ( 0.000000,  0.000000, -0.005760)
   9 Co ( 0.000000,  0.000000,  1.416800)
  10 Ni ( 0.000000,  0.000000,  0.156504)
  11 Co ( 0.000000,  0.000000,  1.099995)
  12 Ni ( 0.000000,  0.000000,  0.087355)
  13 Cr ( 0.000000,  0.000000,  0.356800)
  14 Fe ( 0.000000,  0.000000,  0.703821)
  15 Cr ( 0.000000,  0.000000, -1.520881)
  16 Co ( 0.000000,  0.000000,  1.098348)
  17 Cr ( 0.000000,  0.000000,  1.185184)
  18 Co ( 0.000000,  0.000000,  1.196330)
  19 Fe ( 0.000000,  0.000000,  1.520015)
  20 Cr ( 0.000000,  0.000000, -1.520477)
  21 Fe ( 0.000000,  0.000000,  2.397660)
  22 Co ( 0.000000,  0.000000,  0.825030)
  23 Al ( 0.000000,  0.000000, -0.028713)
  24 Ni ( 0.000000,  0.000000,  0.138013)
  25 Cr ( 0.000000,  0.000000, -0.810459)
  26 Cr ( 0.000000,  0.000000,  1.475804)
  27 Al ( 0.000000,  0.000000, -0.020667)
  28 Cr ( 0.000000,  0.000000, -1.352769)
  29 Cr ( 0.000000,  0.000000, -2.213489)
  30 Fe ( 0.000000,  0.000000,  1.659677)
  31 Fe ( 0.000000,  0.000000,  1.570268)
  32 Ni ( 0.000000,  0.000000,  0.197195)
  33 Cr ( 0.000000,  0.000000,  1.500317)
  34 Co ( 0.000000,  0.000000,  0.841635)
  35 Ni ( 0.000000,  0.000000,  0.310702)
  36 Ni ( 0.000000,  0.000000,  0.133362)
  37 Co ( 0.000000,  0.000000,  1.557766)
  38 Co ( 0.000000,  0.000000,  1.153660)
  39 Cr ( 0.000000,  0.000000, -1.205943)
  40 Fe ( 0.000000,  0.000000,  2.337134)
  41 Al ( 0.000000,  0.000000, -0.044191)
  42 Fe ( 0.000000,  0.000000,  2.385093)
  43 Ni ( 0.000000,  0.000000,  0.445771)
  44 Cr ( 0.000000,  0.000000, -0.883972)
  45 Co ( 0.000000,  0.000000,  1.481580)
  46 Co ( 0.000000,  0.000000,  1.262453)
  47 Ni ( 0.000000,  0.000000,  0.414899)
  48 Ni ( 0.000000,  0.000000,  0.104832)
  49 Cr ( 0.000000,  0.000000,  1.840280)
  50 Co ( 0.000000,  0.000000,  0.796115)
  51 Al ( 0.000000,  0.000000, -0.014678)
  52 Al ( 0.000000,  0.000000, -0.035944)
  53 Fe ( 0.000000,  0.000000,  1.822177)
  54 Fe ( 0.000000,  0.000000,  2.329746)
  55 Fe ( 0.000000,  0.000000,  2.220372)
  56 Ni ( 0.000000,  0.000000,  0.537831)
  57 Ni ( 0.000000,  0.000000,  0.197039)
  58 Co ( 0.000000,  0.000000,  0.994981)
  59 Co ( 0.000000,  0.000000,  0.505472)
  60 Fe ( 0.000000,  0.000000,  1.571089)
  61 Co ( 0.000000,  0.000000,  1.385404)
  62 Al ( 0.000000,  0.000000, -0.015448)
  63 Ni ( 0.000000,  0.000000,  0.084859)
  64 Al ( 0.000000,  0.000000, -0.011242)
  65 Cr ( 0.000000,  0.000000, -1.857842)
  66 Al ( 0.000000,  0.000000, -0.022491)
  67 Ni ( 0.000000,  0.000000,  0.192231)
  68 Al ( 0.000000,  0.000000, -0.042146)
  69 Fe ( 0.000000,  0.000000,  2.033795)
  70 Cr ( 0.000000,  0.000000, -1.259123)
  71 Cr ( 0.000000,  0.000000,  0.147754)
  72 Fe ( 0.000000,  0.000000,  2.537482)
  73 Co ( 0.000000,  0.000000,  1.518021)
  74 Co ( 0.000000,  0.000000,  1.202953)
  75 Co ( 0.000000,  0.000000,  1.617265)
  76 Fe ( 0.000000,  0.000000,  2.025192)
  77 Fe ( 0.000000,  0.000000,  2.219127)
  78 Cr ( 0.000000,  0.000000, -2.008220)
  79 Fe ( 0.000000,  0.000000,  2.027505)
  80 Co ( 0.000000,  0.000000,  1.381671)
  81 Al ( 0.000000,  0.000000, -0.017857)
  82 Ni ( 0.000000,  0.000000,  0.361608)
  83 Ni ( 0.000000,  0.000000,  0.541636)
  84 Ni ( 0.000000,  0.000000,  0.424335)
  85 Fe ( 0.000000,  0.000000,  2.269632)
  86 Co ( 0.000000,  0.000000,  1.154389)
  87 Cr ( 0.000000,  0.000000, -1.513994)
  88 Ni ( 0.000000,  0.000000,  0.337789)
  89 Fe ( 0.000000,  0.000000,  2.174981)
  90 Ni ( 0.000000,  0.000000,  0.150172)
  91 Co ( 0.000000,  0.000000,  0.584556)
  92 Al ( 0.000000,  0.000000, -0.046416)
  93 Cr ( 0.000000,  0.000000,  0.920223)
  94 Fe ( 0.000000,  0.000000,  1.849600)
  95 Cr ( 0.000000,  0.000000, -0.509235)
  96 Ni ( 0.000000,  0.000000,  0.281586)
  97 Fe ( 0.000000,  0.000000,  2.266316)
  98 Co ( 0.000000,  0.000000,  0.896675)
  99 Ni ( 0.000000,  0.000000,  0.432534)
 100 Cr ( 0.000000,  0.000000,  1.489760)
 101 Al ( 0.000000,  0.000000, -0.009296)
 102 Cr ( 0.000000,  0.000000, -1.166596)
 103 Co ( 0.000000,  0.000000,  0.727462)
 104 Al ( 0.000000,  0.000000, -0.021312)
 105 Ni ( 0.000000,  0.000000,  0.301050)
 106 Co ( 0.000000,  0.000000,  0.966261)
 107 Fe ( 0.000000,  0.000000,  2.273115)

Energy contributions relative to reference atoms: (reference = -3382523.201499)

Kinetic:       +438.417821
Potential:     -403.401590
External:        +0.000000
XC:            -874.768668
Entropy (-ST):   -4.169473
Local:          +33.071859
--------------------------
Free energy:   -810.850052
Extrapolated:  -808.765315

Spin contamination: 25.224053 electrons
Showing only first 2 kpts
                      Up                     Down
 Kpt  Band  Eigenvalues  Occupancy  Eigenvalues  Occupancy
  0   470      9.13326    0.99677     10.08432    0.02235
  0   471      9.14576    0.99634     10.09391    0.02035
  0   472      9.14967    0.99620     10.10640    0.01800
  0   473      9.16603    0.99552     10.11402    0.01670

  1   470      9.11871    0.99721     10.08401    0.02242
  1   471      9.14808    0.99626     10.09295    0.02054
  1   472      9.15867    0.99584     10.10679    0.01794
  1   473      9.17473    0.99512     10.11558    0.01645


Fermi level: 9.70650

No gap

Forces in eV/Ang:
  0 Fe   -0.96026   -0.35378   -0.67885
  1 Cr   -0.52478    0.04516   -0.67270
  2 Ni   -0.60676   -0.04723    0.41183
  3 Cr    0.67340   -0.53277   -0.28508
  4 Al   -0.81293    1.76205    1.44214
  5 Fe   -1.10095   -0.04732    1.03458
  6 Ni    0.26311    1.38179   -0.92938
  7 Al    1.12160   -0.22541   -0.63641
  8 Al    0.50823    0.92653   -0.80966
  9 Co   -0.26289    0.02252   -0.24977
 10 Ni   -1.05947   -0.92574    1.72834
 11 Co   -0.07588    1.14067    0.27128
 12 Ni   -2.05385   -2.47197    0.45416
 13 Cr   -0.71555   -0.45574   -2.31694
 14 Fe    1.41806    0.19169   -1.76787
 15 Cr    1.14070    0.42099    0.10843
 16 Co   -0.19094    0.75598    1.66764
 17 Cr    0.12676    0.03371   -0.09095
 18 Co   -1.00933    0.42303    0.64148
 19 Fe   -0.10633   -1.05303    0.60796
 20 Cr    0.45304    1.29641    0.70287
 21 Fe   -1.93345    0.78720   -0.50281
 22 Co    0.82349   -3.09779    1.31426
 23 Al    0.93816    0.53209    0.30019
 24 Ni   -1.09176   -0.45961    2.14129
 25 Cr   -2.08304   -0.03593    2.53274
 26 Cr   -0.47227    0.77068   -1.39086
 27 Al    2.75107   -1.01747   -3.35500
 28 Cr   -0.33149   -0.15238   -0.26575
 29 Cr    0.44833   -1.03164    1.57354
 30 Fe    0.40430    1.04325    0.03930
 31 Fe    0.46228    0.67002    1.03543
 32 Ni   -0.49248   -0.46309   -1.05436
 33 Cr   -0.02032   -0.59740    1.31020
 34 Co    0.52339    1.60991   -0.22972
 35 Ni   -0.08471   -1.22931    0.49538
 36 Ni   -1.14260    0.45537   -1.39135
 37 Co   -0.26059   -1.03394   -2.13828
 38 Co    0.05721   -0.01862    0.60127
 39 Cr    0.49814   -1.50456    0.06416
 40 Fe   -0.94215   -0.17721   -0.00359
 41 Al   -0.81755    1.53051   -0.73881
 42 Fe    0.21033   -0.04802    0.96514
 43 Ni    0.38112   -1.14838    0.12712
 44 Cr   -0.57497    0.85625   -0.60425
 45 Co   -0.36349   -0.30924    0.19704
 46 Co    0.44575    1.16700    0.64875
 47 Ni    0.97030   -0.30975   -0.14280
 48 Ni   -2.07157    2.06518    0.68948
 49 Cr   -1.07314   -0.32879   -0.56825
 50 Co    0.01610    0.38129    0.87734
 51 Al    1.53010   -0.19998    2.45319
 52 Al    2.24400   -0.53680   -0.17703
 53 Fe   -1.16371    0.08645    1.67068
 54 Fe   -2.08469   -1.05635   -1.92997
 55 Fe   -0.17862   -1.12888   -0.22614
 56 Ni   -1.02518   -0.05467   -1.17593
 57 Ni    0.75106    2.02499   -0.35001
 58 Co    1.47533   -0.70141    0.20072
 59 Co   -0.57133    0.18144   -0.13527
 60 Fe   -0.88313    0.20682   -0.11343
 61 Co   -0.24186   -2.21884    1.41829
 62 Al   -2.17706   -1.03219    1.14377
 63 Ni    0.27794   -0.38017   -1.29116
 64 Al    1.27190    0.67720   -1.83996
 65 Cr    2.01711    1.45279    0.08327
 66 Al    0.88331    0.20874   -1.20656
 67 Ni   -0.89281   -1.47280   -0.34016
 68 Al   -2.24191    0.47497   -1.39356
 69 Fe   -0.07809   -0.92547    0.78259
 70 Cr    2.93171    0.79346    2.32368
 71 Cr    0.32956   -0.68771   -0.60525
 72 Fe   -0.35524    1.07336    0.17401
 73 Co    0.21861    0.61360    0.20836
 74 Co   -0.32849    0.17755    1.19022
 75 Co    1.42471    0.97743   -0.53458
 76 Fe    1.80358    0.77737    0.56312
 77 Fe   -0.96597   -1.02092   -1.00082
 78 Cr    0.47465   -0.87924   -0.56852
 79 Fe    1.08312   -0.18885    0.27710
 80 Co   -0.39313   -0.02222   -1.06425
 81 Al   -0.02234    0.30010    0.46619
 82 Ni    1.11985   -0.06497   -0.85320
 83 Ni   -1.29754   -0.45212    0.54059
 84 Ni   -0.03860    0.40968    0.53538
 85 Fe   -0.06391    1.86390   -0.56467
 86 Co    0.76694   -0.66778   -0.11674
 87 Cr    0.16525   -0.09030   -0.14735
 88 Ni   -0.86646   -1.14860    1.24295
 89 Fe    0.48494   -0.34557    0.42135
 90 Ni    0.68424    1.33483   -0.53602
 91 Co    1.34420    0.22262   -0.05939
 92 Al   -0.05446   -0.65581    2.14294
 93 Cr   -0.32002    0.82531   -1.63672
 94 Fe    1.43736   -0.82983   -0.63224
 95 Cr    1.61423    0.76240    0.33767
 96 Ni   -1.21989   -0.21539   -0.63676
 97 Fe    0.78276    0.99277   -0.02906
 98 Co    1.67359   -1.25372   -0.50023
 99 Ni    0.15094   -1.38471   -0.76092
100 Cr   -0.11451   -0.19617   -0.21578
101 Al    0.84513    0.14549   -0.22873
102 Cr   -3.33900    0.91830    2.13097
103 Co   -0.49670    1.52160    0.59558
104 Al    2.34659    0.42797   -2.26439
105 Ni    0.10665   -1.90971    0.37772
106 Co   -0.75875    0.65674   -0.89568
107 Fe   -1.47298    0.42465   -0.41113

Timing:                              incl.     excl.
-----------------------------------------------------------
Forces:                             20.792    20.792   0.2% |
Hamiltonian:                         0.788     0.006   0.0% |
 Atomic:                             0.381     0.071   0.0% |
  XC Correction:                     0.311     0.311   0.0% |
 Calculate atomic Hamiltonians:      0.264     0.264   0.0% |
 Communicate:                        0.004     0.004   0.0% |
 Initialize Hamiltonian:             0.000     0.000   0.0% |
 Poisson:                            0.001     0.001   0.0% |
 XC 3D grid:                         0.131     0.131   0.0% |
LCAO initialization:               155.727     1.209   0.0% |
 LCAO eigensolver:                  22.457     0.024   0.0% |
  Calculate projections:             0.650     0.650   0.0% |
  DenseAtomicCorrection:             0.875     0.875   0.0% |
  Distribute overlap matrix:         0.431     0.431   0.0% |
  Orbital Layouts:                  12.935    12.935   0.1% |
  Potential matrix:                  5.865     5.865   0.1% |
  Sum over cells:                    1.677     1.677   0.0% |
 LCAO to grid:                     129.618   129.618   1.1% |
 Set positions (LCAO WFS):           2.444     0.975   0.0% |
  Basic WFS set positions:           0.003     0.003   0.0% |
  Basis functions set positions:     0.001     0.001   0.0% |
  P tci:                             0.957     0.957   0.0% |
  ST tci:                            0.233     0.233   0.0% |
  mktci:                             0.274     0.274   0.0% |
PWDescriptor:                        0.080     0.080   0.0% |
SCF-cycle:                       11139.089     1.847   0.0% |
 Davidson:                       10932.307  2085.005  18.4% |------|
  Apply H:                          82.681    79.330   0.7% |
   HMM T:                            3.350     3.350   0.0% |
  Subspace diag:                   793.527     0.115   0.0% |
   calc_h_matrix:                  302.271   196.934   1.7% ||
    Apply H:                       105.337   101.822   0.9% |
     HMM T:                          3.514     3.514   0.0% |
   diagonalize:                    146.083   146.083   1.3% ||
   rotate_psi:                     345.058   345.058   3.0% ||
  calc. matrices:                 1658.787  1495.650  13.2% |----|
   Apply H:                        163.138   156.148   1.4% ||
    HMM T:                           6.990     6.990   0.1% |
  diagonalize:                    5543.598  5543.598  49.0% |-------------------|
  rotate_psi:                      768.709   768.709   6.8% |--|
 Density:                          107.462     0.004   0.0% |
  Atomic density matrices:           2.633     2.633   0.0% |
  Mix:                              51.523    51.523   0.5% |
  Multipole moments:                 0.048     0.048   0.0% |
  Pseudo density:                   53.255    53.250   0.5% |
   Symmetrize density:               0.005     0.005   0.0% |
 Hamiltonian:                       87.129     0.562   0.0% |
  Atomic:                           30.886     4.928   0.0% |
   XC Correction:                   25.959    25.959   0.2% |
  Calculate atomic Hamiltonians:    43.685    43.685   0.4% |
  Communicate:                       0.586     0.586   0.0% |
  Poisson:                           0.066     0.066   0.0% |
  XC 3D grid:                       11.343    11.343   0.1% |
 Orthonormalize:                    10.345     0.002   0.0% |
  calc_s_matrix:                     1.460     1.460   0.0% |
  inverse-cholesky:                  0.681     0.681   0.0% |
  projections:                       5.996     5.996   0.1% |
  rotate_psi_s:                      2.206     2.206   0.0% |
Set symmetry:                        0.001     0.001   0.0% |
Other:                               3.293     3.293   0.0% |
-----------------------------------------------------------
Total:                                     11319.770 100.0%

Date: Fri Apr 14 04:22:23 2023
