
  ___ ___ ___ _ _ _  
 |   |   |_  | | | | 
 | | | | | . | | | | 
 |__ |  _|___|_____|  22.8.0
 |___|_|             

User:   c.zeng@d0037
Date:   Thu Apr 20 07:44:37 2023
Arch:   x86_64
Pid:    259169
CWD:    /home/c.zeng/projects/hea-corrosion/hea-mlp/data-curation/surface-mcmc/dft-jobs/56
Python: 3.8.1
gpaw:   /home/c.zeng/usr/installs/gpaw/source/gpaw-22.8.0/gpaw
_gpaw:  /home/c.zeng/usr/installs/gpaw/source/gpaw-22.8.0/
        _gpaw.cpython-38-x86_64-linux-gnu.so
ase:    /home/c.zeng/.local/lib/python3.8/site-packages/ase-3.22.1-py3.8.egg/ase (version 3.22.1)
numpy:  /home/c.zeng/.local/lib/python3.8/site-packages/numpy (version 1.24.2)
scipy:  /home/c.zeng/.local/lib/python3.8/site-packages/scipy (version 1.10.1)
libxc:  4.2.3
units:  Angstrom and eV
cores: 30
OpenMP: False
OMP_NUM_THREADS: 1

Input parameters:
  convergence: {energy: 0.0001}
  kpts: [2 2 1]
  maxiter: 666
  mode: {ecut: 350.0,
         name: pw}
  occupations: {fixmagmom: False,
                name: fermi-dirac,
                width: 0.1}
  poissonsolver: {dipolelayer: xy}
  spinpol: True
  symmetry: {point_group: False}
  xc: PBE

System changes: positions, numbers, cell, pbc, initial_charges, initial_magmoms 

Initialize ...

species:
  Co:
    name: Cobalt
    id: 339d20d5b0b93d2de9531a1bee871d91
    Z: 27.0
    valence: 9
    core: 18
    charge: 0.0
    file: /home/c.zeng/usr/data/gpaw-setups-0.9.20000/Co.PBE.gz
    compensation charges: {type: gauss,
                           rc: 0.32,
                           lmax: 2}
    cutoffs: {filter: 1.87,
              core: 2.55}
    valence states:
      #              energy  rcut
      - 4s(2.00)    -5.469   1.005
      - 4p(0.00)    -1.277   1.058
      - 3d(7.00)    -8.205   1.005
      -  s          21.742   1.005
      -  p          25.934   1.058
      -  d          19.007   1.005
  
    # Using partial waves for Co as LCAO basis

  Cr:
    name: Chromium
    id: 33f258bda2ca9f93018e70263a35547b
    Z: 24.0
    valence: 6
    core: 18
    charge: 0.0
    file: /home/c.zeng/usr/data/gpaw-setups-0.9.20000/Cr.PBE.gz
    compensation charges: {type: gauss,
                           rc: 0.35,
                           lmax: 2}
    cutoffs: {filter: 2.14,
              core: 3.04}
    valence states:
      #              energy  rcut
      - 4s(1.00)    -4.007   1.164
      - 4p(0.00)    -0.989   1.217
      - 3d(5.00)    -2.913   1.111
      -  s          23.205   1.164
      -  p          26.223   1.217
      -  d          24.299   1.111
  
    # Using partial waves for Cr as LCAO basis

  Ni:
    name: Nickel
    id: 0d9f38a9d6e76a2886f07bb4381f212b
    Z: 28.0
    valence: 16
    core: 12
    charge: 0.0
    file: /home/c.zeng/usr/data/gpaw-setups-0.9.20000/Ni.PBE.gz
    compensation charges: {type: gauss,
                           rc: 0.36,
                           lmax: 2}
    cutoffs: {filter: 2.14,
              core: 1.98}
    valence states:
      #              energy  rcut
      - 4s(2.00)    -5.642   1.164
      - 3p(6.00)   -71.394   1.207
      - 4p(0.00)    -1.226   1.207
      - 3d(8.00)    -8.875   1.138
      -  s          21.570   1.164
      -  d          18.337   1.138
  
    # Using partial waves for Ni as LCAO basis

  Al:
    name: Aluminium
    id: 0292cae29f5d6237e50f6abdd43a7bdd
    Z: 13.0
    valence: 3
    core: 10
    charge: 0.0
    file: /home/c.zeng/usr/data/gpaw-setups-0.9.20000/Al.PBE.gz
    compensation charges: {type: gauss,
                           rc: 0.34,
                           lmax: 2}
    cutoffs: {filter: 1.91,
              core: 2.36}
    valence states:
      #              energy  rcut
      - 3s(2.00)    -7.753   1.085
      - 3p(1.00)    -2.712   1.085
      -  s          19.459   1.085
      -  p          24.499   1.085
      -  d           0.000   1.085
  
    # Using partial waves for Al as LCAO basis

  Fe:
    name: Iron
    id: 37abbd8d6c3c35915a9b583b742da910
    Z: 26.0
    valence: 8
    core: 18
    charge: 0.0
    file: /home/c.zeng/usr/data/gpaw-setups-0.9.20000/Fe.PBE.gz
    compensation charges: {type: gauss,
                           rc: 0.33,
                           lmax: 2}
    cutoffs: {filter: 2.06,
              core: 2.67}
    valence states:
      #              energy  rcut
      - 4s(2.00)    -5.291   1.164
      - 4p(0.00)    -1.326   1.058
      - 3d(6.00)    -7.505   1.058
      -  s          21.920   1.164
      -  p          25.885   1.058
      -  d          19.706   1.058
  
    # Using partial waves for Fe as LCAO basis

Reference energy: -4275894.041763  # eV

Spin-polarized calculation.
Magnetic moment: 165.900000

Convergence criteria:
 Maximum [total energy] change in last 3 cyles: 0.0001 eV / electron
 Maximum integral of absolute [dens]ity change: 0.0001 electrons / valence electron
 Maximum integral of absolute [eigenst]ate change: 4e-08 eV^2 / valence electron
 Maximum number of scf [iter]ations: 666
 (Square brackets indicate name in SCF output, whereas a 'c' in
 the SCF output indicates the quantity has converged.)

Symmetries present (total): 1

  ( 1  0  0)
  ( 0  1  0)
  ( 0  0  1)

4 k-points: 2 x 2 x 1 Monkhorst-Pack grid
2 k-points in the irreducible part of the Brillouin zone
       k-points in crystal coordinates                weights
   0:     0.25000000   -0.25000000    0.00000000          2/4
   1:     0.25000000    0.25000000    0.00000000          2/4

Wave functions: Plane wave expansion
  Cutoff energy: 350.000 eV
  Number of coefficients (min, max): 58901, 58943
  Pulay-stress correction: 0.000000 eV/Ang^3 (de/decut=0.000000)
  Using FFTW library
  ScaLapack parameters: grid=1x1, blocksize=None
  Wavefunction extrapolation:
    Improved wavefunction reuse through dual PAW basis 

Occupation numbers: Fermi-Dirac:
  width: 0.1000  # eV
 

Eigensolver
   Davidson(niter=2) 

Densities:
  Coarse grid: 54*54*128 grid
  Fine grid: 108*108*256 grid
  Total Charge: 0.000000 

Density mixing:
  Method: difference
  Backend: pulay
  Linear mixing parameter: 0.05
  old densities: 5
  Damping of long wavelength oscillations: 50 

Hamiltonian:
  XC and Coulomb potentials evaluated on a 108*108*256 grid
  Using the PBE Exchange-Correlation functional
  External potential:
    NoExternalPotential
 

XC parameters: PBE with 2 nearest neighbor stencil

Memory estimate:
  Process memory now: 370.48 MiB
  Calculator: 2335.53 MiB
    Density: 17.84 MiB
      Arrays: 6.75 MiB
      Localized functions: 8.39 MiB
      Mixer: 2.70 MiB
    Hamiltonian: 5.27 MiB
      Arrays: 5.01 MiB
      XC: 0.00 MiB
      Poisson: 0.00 MiB
      vbar: 0.25 MiB
    Wavefunctions: 2312.43 MiB
      Arrays psit_nG: 1458.82 MiB
      Eigensolver: 834.29 MiB
      Projections: 3.66 MiB
      Projectors: 1.14 MiB
      PW-descriptor: 14.51 MiB

Total number of cores used: 30
Parallelization over k-points: 2
Domain decomposition: 1 x 3 x 5

Number of atoms: 125
Number of atomic orbitals: 1185
Number of bands in calculation: 811
Number of valence electrons: 1179
Bands to converge: occupied

... initialized

Initializing position-dependent things.

Density initialized from atomic densities
Creating initial wave functions:
  811 bands from LCAO basis set

                                                                  
                                                                  
                                                                  
                                                                  
                             Cr                       Cr          
                               Ni    Fe    Ni    Cr    Ni         
                          Co     Ni    Cr    Cr    Co             
                                Fe    Co    Fe    Al    Cr        
                Co    Cr   NCr   CCo    FAl   Cr    Ni            
           Ni     Co   CCo   CFe   FCo   Cr     Ni   Ni           
             Cr    Co     CoCo    Ni    Fe     Fe                 
                  Fe    NNi   FCr   CFe   CNi   ANi               
              Fe   NNi   CNi   CFFe  FNCr  NNi   Fe               
               Fe    Co    Cr    Ni     Fe                        
                          Fe    NFe   CFe   CNi   CNi   Al        
           Co    Cr   ACr  CCFe   FCr   CFe   CFe   Ni            
            Ni    Fe    Fe    Fe    Ni                            
                       Co    Cr    Al    Cr    Cr                 
       Ni    Cr   CCr    Co    NFe   Co    Ni                     
              Cr    Co    Cr     Cr    Co                         
                                                                  
                                                                  
                                                                  
                                                                  
                                                                  

Positions:
   0 Co    12.486468    1.462777   10.528605    ( 0.0000,  0.0000,  1.5000)
   1 Cr     2.491286    1.427324   10.624355    ( 0.0000,  0.0000,  2.0000)
   2 Co     4.996443    1.433664   10.615695    ( 0.0000,  0.0000,  2.1000)
   3 Cr     7.497692    1.450585   10.618513    ( 0.0000,  0.0000,  2.0000)
   4 Cr     9.980354    1.438381   10.617016    ( 0.0000,  0.0000,  2.1000)
   5 Ni    13.725570    3.599047   10.613993    ( 0.0000,  0.0000,  2.1000)
   6 Co     3.721032    3.570702   10.596763    ( 0.0000,  0.0000,  1.5000)
   7 Co     6.265421    3.568181   10.621801    ( 0.0000,  0.0000,  2.0000)
   8 Ni     8.741341    3.586865   10.615549    ( 0.0000,  0.0000,  2.0000)
   9 Co    11.233064    3.610428   10.573163    ( 0.0000,  0.0000,  0.0000)
  10 Cr    14.927431    5.761281   10.554435    ( 0.0000,  0.0000,  1.5000)
  11 Co     5.002416    5.751707   10.362584    ( 0.0000,  0.0000,  0.0000)
  12 Cr     7.528897    5.754942   10.601782    ( 0.0000,  0.0000,  1.5000)
  13 Al     9.984614    5.751426   10.596909    ( 0.0000,  0.0000,  2.1000)
  14 Cr    12.467830    5.774643   10.569993    ( 0.0000,  0.0000,  0.0000)
  15 Ni    16.185528    7.952943   10.517715    ( 0.0000,  0.0000,  0.0000)
  16 Co     6.281890    7.953062   10.585785    ( 0.0000,  0.0000,  2.0000)
  17 Cr     8.751632    7.929564   10.589659    ( 0.0000,  0.0000,  2.0000)
  18 Co    11.232798    7.933199   10.565472    ( 0.0000,  0.0000,  0.0000)
  19 Co    13.711755    7.928211   10.595530    ( 0.0000,  0.0000,  2.0000)
  20 Al    17.465073   10.103493   10.559367    ( 0.0000,  0.0000,  2.1000)
  21 Ni     7.524528   10.087482   10.585491    ( 0.0000,  0.0000,  2.1000)
  22 Cr     9.999339   10.092837   10.628699    ( 0.0000,  0.0000,  2.1000)
  23 Co    12.492524   10.103136   10.590364    ( 0.0000,  0.0000,  1.5000)
  24 Co    14.967562   10.103591   10.598553    ( 0.0000,  0.0000,  1.5000)
  25 Ni     0.039549    0.061487   12.592509    ( 0.0000,  0.0000,  0.0000)
  26 Cr     2.543839    0.004196   12.633574    ( 0.0000,  0.0000,  2.1000)
  27 Cr     5.007959    0.016292   12.619485    ( 0.0000,  0.0000,  1.5000)
  28 Al    13.725047   10.821613   12.614847    ( 0.0000,  0.0000,  1.5000)
  29 Fe     9.941746    0.020015   12.634836    ( 0.0000,  0.0000,  2.1000)
  30 Ni     1.280557    2.197634   12.622449    ( 0.0000,  0.0000,  2.0000)
  31 Fe     3.757003    2.159238   12.617870    ( 0.0000,  0.0000,  0.0000)
  32 Fe     6.259391    2.150539   12.632283    ( 0.0000,  0.0000,  0.0000)
  33 Fe     8.729061    2.160536   12.640942    ( 0.0000,  0.0000,  1.5000)
  34 Ni    11.206426    2.199527   12.600112    ( 0.0000,  0.0000,  0.0000)
  35 Fe    14.980028    4.321894   12.623066    ( 0.0000,  0.0000,  1.5000)
  36 Al     5.000637    4.306532   12.605865    ( 0.0000,  0.0000,  0.0000)
  37 Cr     7.511972    4.316766   12.613115    ( 0.0000,  0.0000,  2.0000)
  38 Fe     9.977581    4.334444   12.603575    ( 0.0000,  0.0000,  2.0000)
  39 Fe    12.466237    4.352219   12.609857    ( 0.0000,  0.0000,  0.0000)
  40 Ni    16.217374    6.438246   12.562775    ( 0.0000,  0.0000,  2.1000)
  41 Fe     6.249088    6.441384   12.586551    ( 0.0000,  0.0000,  2.1000)
  42 Fe     8.734867    6.480104   12.598380    ( 0.0000,  0.0000,  2.1000)
  43 Fe    11.217541    6.497393   12.580210    ( 0.0000,  0.0000,  1.5000)
  44 Ni    13.747589    6.470530   12.591629    ( 0.0000,  0.0000,  0.0000)
  45 Co     4.965631    8.600697   12.619661    ( 0.0000,  0.0000,  0.0000)
  46 Cr     7.527050    8.647229   12.603517    ( 0.0000,  0.0000,  2.0000)
  47 Fe     9.992787    8.639093   12.602137    ( 0.0000,  0.0000,  0.0000)
  48 Ni    12.461146    8.678950   12.599202    ( 0.0000,  0.0000,  2.1000)
  49 Fe    14.923147    8.662851   12.605102    ( 0.0000,  0.0000,  0.0000)
  50 Co     1.264555    0.726556   14.701676    ( 0.0000,  0.0000,  2.1000)
  51 Cr     3.750060    0.743838   14.683888    ( 0.0000,  0.0000,  1.5000)
  52 Cr     6.237655    0.730758   14.677812    ( 0.0000,  0.0000,  2.1000)
  53 Fe     8.726659    0.737641   14.712772    ( 0.0000,  0.0000,  2.0000)
  54 Cr    11.216460    0.725550   14.709367    ( 0.0000,  0.0000,  2.1000)
  55 Fe     2.513395    2.883675   14.691579    ( 0.0000,  0.0000,  1.5000)
  56 Co     4.990849    2.893120   14.684241    ( 0.0000,  0.0000,  2.0000)
  57 Cr     7.488486    2.893629   14.696334    ( 0.0000,  0.0000,  0.0000)
  58 Ni     9.972278    2.890664   14.692489    ( 0.0000,  0.0000,  2.0000)
  59 Fe    12.467576    2.877141   14.691667    ( 0.0000,  0.0000,  0.0000)
  60 Ni     3.758526    5.050346   14.670151    ( 0.0000,  0.0000,  2.0000)
  61 Fe     6.246120    5.038056   14.669564    ( 0.0000,  0.0000,  1.5000)
  62 Fe     8.732126    5.049902   14.667773    ( 0.0000,  0.0000,  1.5000)
  63 Ni    11.205583    5.023028   14.695277    ( 0.0000,  0.0000,  1.5000)
  64 Ni    13.756582    5.017781   14.684505    ( 0.0000,  0.0000,  2.0000)
  65 Ni     5.010694    7.182699   14.702674    ( 0.0000,  0.0000,  1.5000)
  66 Fe     7.485228    7.189460   14.657588    ( 0.0000,  0.0000,  0.0000)
  67 Co     9.946463    7.198159   14.653068    ( 0.0000,  0.0000,  2.1000)
  68 Co    12.473405    7.201264   14.677166    ( 0.0000,  0.0000,  0.0000)
  69 Ni    15.017763    7.213900   14.645054    ( 0.0000,  0.0000,  2.1000)
  70 Co     6.251064    9.372532   14.712302    ( 0.0000,  0.0000,  2.1000)
  71 Ni     8.729758    9.372705   14.658410    ( 0.0000,  0.0000,  0.0000)
  72 Fe    11.200962    9.406124   14.647901    ( 0.0000,  0.0000,  1.5000)
  73 Fe    13.749704    9.394894   14.665366    ( 0.0000,  0.0000,  2.0000)
  74 Ni    16.223386    9.399309   14.720785    ( 0.0000,  0.0000,  1.5000)
  75 Cr    12.479408    1.425961   16.738106    ( 0.0000,  0.0000,  1.5000)
  76 Fe     2.490684    1.454436   16.739222    ( 0.0000,  0.0000,  1.5000)
  77 Ni     4.964072    1.458060   16.748615    ( 0.0000,  0.0000,  2.0000)
  78 Ni     7.493576    1.474137   16.738664    ( 0.0000,  0.0000,  1.5000)
  79 Fe     9.990724    1.450314   16.751932    ( 0.0000,  0.0000,  2.0000)
  80 Ni    13.736871    3.597619   16.749671    ( 0.0000,  0.0000,  2.1000)
  81 Fe     3.731782    3.620695   16.737637    ( 0.0000,  0.0000,  2.0000)
  82 Ni     6.217757    3.600962   16.741893    ( 0.0000,  0.0000,  0.0000)
  83 Cr     8.739843    3.608427   16.720025    ( 0.0000,  0.0000,  2.1000)
  84 Fe    11.236517    3.591755   16.778291    ( 0.0000,  0.0000,  2.0000)
  85 Ni    14.987780    5.779273   16.714506    ( 0.0000,  0.0000,  0.0000)
  86 Co     4.996827    5.757928   16.729565    ( 0.0000,  0.0000,  1.5000)
  87 Co     7.493878    5.760427   16.738488    ( 0.0000,  0.0000,  2.0000)
  88 Fe     9.975457    5.766269   16.736932    ( 0.0000,  0.0000,  2.0000)
  89 Cr    12.478104    5.731140   16.775473    ( 0.0000,  0.0000,  1.5000)
  90 Ni    16.238159    7.937775   16.730328    ( 0.0000,  0.0000,  2.0000)
  91 Ni     6.231444    7.940404   16.765522    ( 0.0000,  0.0000,  0.0000)
  92 Cr     8.728840    7.936931   16.735611    ( 0.0000,  0.0000,  0.0000)
  93 Fe    11.192557    7.913866   16.746149    ( 0.0000,  0.0000,  0.0000)
  94 Cr    13.768802    7.904897   16.753722    ( 0.0000,  0.0000,  1.5000)
  95 Cr    17.466742   10.100767   16.763996    ( 0.0000,  0.0000,  2.0000)
  96 Fe     7.483726   10.114128   16.752695    ( 0.0000,  0.0000,  0.0000)
  97 Co     9.946168   10.127316   16.729242    ( 0.0000,  0.0000,  0.0000)
  98 Fe    12.492406   10.089342   16.764671    ( 0.0000,  0.0000,  0.0000)
  99 Al    15.005292   10.118575   16.753076    ( 0.0000,  0.0000,  2.0000)
 100 Cr     6.250979   10.817826   18.755486    ( 0.0000,  0.0000,  2.1000)
 101 Cr     2.491992    0.007607   18.757365    ( 0.0000,  0.0000,  2.0000)
 102 Co     4.959039    0.011376   18.813253    ( 0.0000,  0.0000,  1.5000)
 103 Co     7.505721    0.033872   18.830425    ( 0.0000,  0.0000,  0.0000)
 104 Cr    16.226478   10.816744   18.766934    ( 0.0000,  0.0000,  1.5000)
 105 Ni     1.262456    2.149912   18.735438    ( 0.0000,  0.0000,  2.1000)
 106 Co     3.733330    2.172036   18.731769    ( 0.0000,  0.0000,  2.1000)
 107 Co     6.235561    2.176310   18.762208    ( 0.0000,  0.0000,  0.0000)
 108 Fe     8.740232    2.176277   18.742160    ( 0.0000,  0.0000,  2.0000)
 109 Co    11.216255    2.130427   18.758333    ( 0.0000,  0.0000,  1.5000)
 110 Co     2.521812    4.343315   18.747649    ( 0.0000,  0.0000,  2.1000)
 111 Cr     4.991012    4.329273   18.757688    ( 0.0000,  0.0000,  0.0000)
 112 Cr     7.490880    4.334898   18.725399    ( 0.0000,  0.0000,  2.1000)
 113 Co     9.943770    4.322230   18.730184    ( 0.0000,  0.0000,  2.0000)
 114 Al    12.464525    4.326265   18.943816    ( 0.0000,  0.0000,  0.0000)
 115 Co    16.224051    6.495359   18.723022    ( 0.0000,  0.0000,  2.0000)
 116 Co     6.226814    6.495348   18.761650    ( 0.0000,  0.0000,  0.0000)
 117 Ni     8.730619    6.495759   18.735203    ( 0.0000,  0.0000,  1.5000)
 118 Cr    11.207915    6.503819   18.742835    ( 0.0000,  0.0000,  2.1000)
 119 Cr    13.765796    6.524169   18.782109    ( 0.0000,  0.0000,  0.0000)
 120 Ni    17.450702    8.660601   18.763558    ( 0.0000,  0.0000,  0.0000)
 121 Ni     7.490686    8.670024   18.761621    ( 0.0000,  0.0000,  1.5000)
 122 Fe     9.981419    8.673010   18.727630    ( 0.0000,  0.0000,  2.1000)
 123 Ni    12.489241    8.635804   18.838438    ( 0.0000,  0.0000,  0.0000)
 124 Cr    14.988874    8.667774   18.729832    ( 0.0000,  0.0000,  2.1000)

Unit cell:
           periodic     x           y           z      points  spacing
  1. axis:    yes   12.474800    0.000000    0.000000    54     0.2001
  2. axis:    yes    6.246240   10.818800    0.000000    54     0.2003
  3. axis:    no     0.000000    0.000000   29.353100   128     0.2293

  Lengths:  12.474800  12.492476  29.353100
  Angles:   90.000000  90.000000  59.999988

Effective grid spacing dv^(1/3) = 0.2198

     iter     time        total  log10-change:  magmom
                         energy  eigst   dens
iter:   1 07:54:07 -1056.521662                  +165.5126
iter:   2 07:57:24 -2044.358322  +0.35  -1.21    +130.7959
iter:   3 08:00:41 -1420.704237  +0.43  -0.81    +103.4239
iter:   4 08:03:56 -1083.968648  -0.69  -0.98    +67.9701
iter:   5 08:07:13 -1008.632211  -1.31  -1.22    +53.2788
iter:   6 08:10:30  -996.377291  -1.80  -1.33    +47.0059
iter:   7 08:13:48  -991.987391  -1.87  -1.36    +44.0111
iter:   8 08:17:05 -1684.950305  -0.57  -1.38    +44.5173
iter:   9 08:20:23 -1000.044073  -0.71  -0.87    +42.1022
iter:  10 08:23:40  -979.268148  -1.61  -1.36    +39.8038
iter:  11 08:26:55  -967.619365  -1.73  -1.44    +40.4263
iter:  12 08:30:11 -1002.520488  -1.55  -1.57    +40.7284
iter:  13 08:33:28  -993.519958  -1.56  -1.40    +41.9854
iter:  14 08:36:46  -969.165789  -1.61  -1.45    +41.3068
iter:  15 08:40:03  -974.306740  -1.79  -1.71    +41.0714
iter:  16 08:43:21 -1008.524282  -1.70  -1.60    +41.6517
iter:  17 08:46:37  -965.167362  -2.02  -1.38    +42.0046
iter:  18 08:49:54  -975.772442  -2.08  -1.76    +43.9514
iter:  19 08:53:11  -966.979356  -2.25  -1.63    +44.0551
iter:  20 08:56:28  -964.948066  -2.40  -1.75    +45.4336
iter:  21 08:59:45  -964.889525  -2.47  -1.82    +47.6150
iter:  22 09:03:02  -967.628945  -2.46  -1.86    +48.8964
iter:  23 09:06:20  -964.497754  -2.81  -1.76    +50.9949
iter:  24 09:09:38  -966.106860  -2.87  -1.87    +53.0894
iter:  25 09:12:54  -973.471026  -2.29  -1.88    +54.2215
iter:  26 09:16:11  -967.770671  -2.37  -1.71    +54.9329
iter:  27 09:19:28  -965.653415  -2.68  -1.92    +55.6686
iter:  28 09:22:46  -978.130826  -2.12  -2.07    +57.5042
iter:  29 09:26:01  -971.196887  -2.24  -1.69    +57.1164
iter:  30 09:29:17  -965.547755  -2.73  -1.84    +57.8980
iter:  31 09:32:34  -965.851365  -3.17  -2.16    +59.3529
iter:  32 09:35:51  -965.451804  -3.56  -2.16    +60.4729
iter:  33 09:39:08  -965.830760  -3.49  -2.28    +62.3454
iter:  34 09:42:25  -966.598784  -3.13  -2.29    +64.0293
iter:  35 09:45:42  -966.558478  -3.26  -2.23    +64.7401
iter:  36 09:48:59  -967.108654  -3.22  -2.27    +65.8530
iter:  37 09:52:16  -966.995729  -3.09  -2.26    +66.4665
iter:  38 09:55:33  -970.669925  -2.83  -2.39    +66.9902
iter:  39 09:58:49  -967.097347  -3.02  -1.95    +67.5299
iter:  40 10:02:06  -967.210453  -3.41  -2.44    +68.7584
iter:  41 10:05:23  -967.490130  -3.37  -2.47    +69.3256
iter:  42 10:08:38  -967.139517  -4.02  -2.35    +69.8448
iter:  43 10:11:56  -967.363020  -3.70  -2.60    +71.0467
iter:  44 10:15:13  -967.717530  -3.76  -2.58    +71.6269
iter:  45 10:18:30  -967.579591  -3.68  -2.42    +71.8742
iter:  46 10:21:48  -967.591304  -3.62  -2.56    +72.5009
iter:  47 10:25:05  -967.759858  -3.52  -2.63    +72.6651
iter:  48 10:28:22  -967.602442  -3.85  -2.52    +72.9253
iter:  49 10:31:41  -967.615543  -3.94  -2.74    +73.3411
iter:  50 10:34:59  -967.870943  -3.83  -2.82    +73.5609
iter:  51 10:38:19  -967.626372  -4.23  -2.52    +73.7706
iter:  52 10:41:39  -967.666837  -4.40  -2.90    +74.0873
iter:  53 10:44:59  -967.762669  -3.77  -2.90    +74.8270
iter:  54 10:48:18  -967.813994  -4.32  -2.85    +74.9545
iter:  55 10:51:40  -967.816254c -4.39  -2.76    +75.0622
iter:  56 10:55:09  -967.869449c -4.44  -2.77    +75.2730
iter:  57 10:58:42  -967.846352c -4.74  -2.69    +75.4755
iter:  58 11:02:17  -967.929208c -4.20  -2.76    +75.7691
iter:  59 11:05:51  -967.996378  -4.12  -2.71    +75.5838
iter:  60 11:09:25  -968.203768  -3.48  -2.64    +76.1153
iter:  61 11:12:59  -967.950111  -3.81  -2.48    +75.9516
iter:  62 11:16:32  -967.965220  -3.85  -2.67    +76.0197
iter:  63 11:20:11  -968.050904c -4.04  -2.66    +76.0276
iter:  64 11:23:56  -967.910397  -4.41  -2.58    +76.0267
iter:  65 11:27:29  -967.913236  -4.47  -2.79    +75.9828
iter:  66 11:31:03  -967.918066c -4.51  -2.81    +75.9985
iter:  67 11:34:38  -968.017020c -4.27  -2.79    +76.0757
iter:  68 11:38:12  -967.927941c -4.40  -2.66    +76.1536
iter:  69 11:41:45  -969.073064  -3.47  -2.83    +76.1476
iter:  70 11:45:19  -967.943350  -3.71  -2.23    +76.1542
iter:  71 11:48:52  -967.931460  -4.27  -2.83    +76.1851
iter:  72 11:52:26  -968.010784c -4.18  -2.89    +76.2644
iter:  73 11:55:59  -967.937091c -4.43  -2.72    +76.2279
iter:  74 11:59:49  -967.950523c -4.44  -2.94    +76.0817
iter:  75 12:03:24  -967.930600c -4.67  -2.87    +76.0870
iter:  76 12:06:57  -967.954779c -4.38  -3.03    +76.0862
iter:  77 12:10:32  -967.962503c -4.47  -2.95    +76.0681
iter:  78 12:14:05  -968.083288  -4.15  -2.92    +75.9544
iter:  79 12:17:40  -967.969961  -4.32  -2.66    +75.9444
iter:  80 12:21:13  -967.954284  -4.45  -2.88    +75.9590
iter:  81 12:24:47  -967.936152c -5.10  -3.04    +75.8871
iter:  82 12:28:20  -967.939424c -5.03  -3.24    +75.8025
iter:  83 12:31:53  -967.947597c -5.05  -3.24    +75.7796
iter:  84 12:35:23  -967.941046c -5.34  -3.19    +75.7560
iter:  85 12:38:55  -968.006672c -4.79  -3.32    +75.7141
iter:  86 12:42:29  -967.950593c -4.69  -2.86    +75.7200
iter:  87 12:46:02  -967.951023c -5.06  -3.16    +75.7203
iter:  88 12:49:23  -967.951930c -5.17  -3.29    +75.7002
iter:  89 12:52:49  -967.949521c -5.09  -3.32    +75.6685
iter:  90 12:56:10  -967.953462c -5.65  -3.34    +75.6307
iter:  91 12:59:37  -967.951610c -5.35  -3.33    +75.6043
iter:  92 13:02:58  -967.948956c -5.78  -3.30    +75.5754
iter:  93 13:06:21  -967.952085c -5.71  -3.44    +75.5523
iter:  94 13:09:47  -967.952529c -6.02  -3.49    +75.5145
iter:  95 13:13:15  -967.955395c -5.54  -3.51    +75.4652
iter:  96 13:16:43  -967.953942c -6.02  -3.45    +75.4647
iter:  97 13:20:16  -967.963853c -5.09  -3.51    +75.4363
iter:  98 13:23:43  -968.035474c -4.63  -3.21    +75.4317
iter:  99 13:27:07  -967.956142c -5.02  -2.82    +75.3959
iter: 100 13:30:27  -967.956078c -5.55  -3.55    +75.4404
iter: 101 13:33:48  -967.956171c -5.96  -3.82    +75.4095
iter: 102 13:37:13  -967.956762c -6.13  -3.86    +75.3823
iter: 103 13:40:42  -967.956621c -6.46  -3.81    +75.3632
iter: 104 13:44:12  -967.978181c -5.21  -3.89    +75.3388
iter: 105 13:47:56  -967.957096c -5.53  -3.05    +75.3404
iter: 106 13:51:29  -967.956892c -6.27  -4.00    +75.3153
iter: 107 13:54:59  -967.957521c -6.54  -3.99    +75.3052
iter: 108 13:58:30  -967.957695c -6.39  -4.03c   +75.2911
iter: 109 14:02:00  -967.957834c -6.71  -3.98    +75.2804
iter: 110 14:05:31  -967.958523c -6.19  -4.09c   +75.2628
iter: 111 14:09:01  -967.958650c -6.32  -3.59    +75.2621
iter: 112 14:12:31  -967.959022c -6.82  -3.93    +75.2466
iter: 113 14:16:01  -967.959074c -6.33  -3.96    +75.2117
iter: 114 14:19:32  -967.959057c -6.53  -3.97    +75.2119
iter: 115 14:23:02  -967.958956c -6.80  -4.25c   +75.2032
iter: 116 14:26:38  -967.958942c -6.97  -4.48c   +75.1948
iter: 117 14:30:20  -967.959365c -7.03  -4.52c   +75.1868
iter: 118 14:33:50  -967.959418c -7.07  -4.46c   +75.1756
iter: 119 14:37:21  -967.959681c -6.43  -4.52c   +75.1460
iter: 120 14:40:52  -967.959427c -7.20  -4.31c   +75.1654
iter: 121 14:44:22  -967.960542c -5.67  -4.32c   +75.0794
iter: 122 14:47:53  -967.961059c -5.82  -4.18c   +75.0365
iter: 123 14:51:24  -967.961219c -6.19  -4.09c   +75.0153
iter: 124 14:55:09  -967.961177c -6.35  -3.96    +75.0526
iter: 125 14:58:43  -967.961350c -6.62  -4.02c   +75.0311
iter: 126 15:02:15  -967.961285c -6.91  -3.96    +75.0462
iter: 127 15:05:48  -967.960649c -6.20  -4.02c   +75.0265
iter: 128 15:09:20  -967.962054c -6.15  -3.90    +75.0387
iter: 129 15:12:53  -967.960741c -6.38  -3.93    +75.0244
iter: 130 15:16:26  -967.973722c -5.47  -3.82    +75.0168
iter: 131 15:19:59  -967.960989c -5.87  -3.23    +75.0235
iter: 132 15:23:31  -967.960460c -6.60  -4.27c   +75.0206
iter: 133 15:27:04  -967.960748c -7.12  -4.27c   +75.0218
iter: 134 15:30:54  -967.960702c -7.38  -4.46c   +75.0195
iter: 135 15:34:28  -967.960727c -7.45c -4.53c   +75.0222

Converged after 135 iterations.

Dipole moment: (46.061300, 22.610389, -0.010482) |e|*Ang

Total magnetic moment: (0.000000, 0.000000, 75.022219)
Local magnetic moments:
   0 Co ( 0.000000,  0.000000,  1.284023)
   1 Cr ( 0.000000,  0.000000,  1.655420)
   2 Co ( 0.000000,  0.000000,  0.800002)
   3 Cr ( 0.000000,  0.000000,  1.463727)
   4 Cr ( 0.000000,  0.000000, -2.398723)
   5 Ni ( 0.000000,  0.000000,  0.320440)
   6 Co ( 0.000000,  0.000000,  1.103344)
   7 Co ( 0.000000,  0.000000,  0.767853)
   8 Ni ( 0.000000,  0.000000,  0.155268)
   9 Co ( 0.000000,  0.000000,  1.213497)
  10 Cr ( 0.000000,  0.000000,  2.108998)
  11 Co ( 0.000000,  0.000000,  1.617032)
  12 Cr ( 0.000000,  0.000000, -2.052779)
  13 Al ( 0.000000,  0.000000, -0.023769)
  14 Cr ( 0.000000,  0.000000, -2.406752)
  15 Ni ( 0.000000,  0.000000,  0.490810)
  16 Co ( 0.000000,  0.000000,  1.079008)
  17 Cr ( 0.000000,  0.000000,  1.606313)
  18 Co ( 0.000000,  0.000000,  1.171959)
  19 Co ( 0.000000,  0.000000,  1.427748)
  20 Al ( 0.000000,  0.000000, -0.031975)
  21 Ni ( 0.000000,  0.000000,  0.090263)
  22 Cr ( 0.000000,  0.000000, -1.865911)
  23 Co ( 0.000000,  0.000000,  1.073486)
  24 Co ( 0.000000,  0.000000,  1.136682)
  25 Ni ( 0.000000,  0.000000,  0.305717)
  26 Cr ( 0.000000,  0.000000,  0.096157)
  27 Cr ( 0.000000,  0.000000,  0.179457)
  28 Al ( 0.000000,  0.000000, -0.046500)
  29 Fe ( 0.000000,  0.000000,  2.131257)
  30 Ni ( 0.000000,  0.000000,  0.337512)
  31 Fe ( 0.000000,  0.000000, -1.266512)
  32 Fe ( 0.000000,  0.000000,  1.339032)
  33 Fe ( 0.000000,  0.000000,  1.534939)
  34 Ni ( 0.000000,  0.000000,  0.289446)
  35 Fe ( 0.000000,  0.000000,  2.231909)
  36 Al ( 0.000000,  0.000000, -0.038664)
  37 Cr ( 0.000000,  0.000000, -0.758981)
  38 Fe ( 0.000000,  0.000000,  2.074201)
  39 Fe ( 0.000000,  0.000000,  2.421735)
  40 Ni ( 0.000000,  0.000000,  0.485908)
  41 Fe ( 0.000000,  0.000000,  2.075394)
  42 Fe ( 0.000000,  0.000000,  1.357451)
  43 Fe ( 0.000000,  0.000000,  2.196005)
  44 Ni ( 0.000000,  0.000000,  0.478013)
  45 Co ( 0.000000,  0.000000,  1.510623)
  46 Cr ( 0.000000,  0.000000, -1.459412)
  47 Fe ( 0.000000,  0.000000,  1.524685)
  48 Ni ( 0.000000,  0.000000,  0.450384)
  49 Fe ( 0.000000,  0.000000,  2.552030)
  50 Co ( 0.000000,  0.000000,  0.425894)
  51 Cr ( 0.000000,  0.000000, -0.482532)
  52 Cr ( 0.000000,  0.000000, -1.091824)
  53 Fe ( 0.000000,  0.000000,  1.620180)
  54 Cr ( 0.000000,  0.000000, -0.777899)
  55 Fe ( 0.000000,  0.000000,  2.254186)
  56 Co ( 0.000000,  0.000000,  0.692236)
  57 Cr ( 0.000000,  0.000000, -1.080604)
  58 Ni ( 0.000000,  0.000000,  0.129016)
  59 Fe ( 0.000000,  0.000000, -2.103946)
  60 Ni ( 0.000000,  0.000000,  0.423475)
  61 Fe ( 0.000000,  0.000000,  2.039170)
  62 Fe ( 0.000000,  0.000000,  1.889350)
  63 Ni ( 0.000000,  0.000000,  0.327425)
  64 Ni ( 0.000000,  0.000000,  0.319144)
  65 Ni ( 0.000000,  0.000000,  0.553369)
  66 Fe ( 0.000000,  0.000000,  2.276651)
  67 Co ( 0.000000,  0.000000,  1.250840)
  68 Co ( 0.000000,  0.000000,  1.399001)
  69 Ni ( 0.000000,  0.000000,  0.508968)
  70 Co ( 0.000000,  0.000000,  1.271036)
  71 Ni ( 0.000000,  0.000000,  0.307443)
  72 Fe ( 0.000000,  0.000000,  2.100037)
  73 Fe ( 0.000000,  0.000000,  1.991430)
  74 Ni ( 0.000000,  0.000000,  0.241833)
  75 Cr ( 0.000000,  0.000000, -0.262438)
  76 Fe ( 0.000000,  0.000000,  2.052994)
  77 Ni ( 0.000000,  0.000000,  0.481834)
  78 Ni ( 0.000000,  0.000000,  0.265133)
  79 Fe ( 0.000000,  0.000000,  1.618819)
  80 Ni ( 0.000000,  0.000000,  0.352444)
  81 Fe ( 0.000000,  0.000000,  2.400970)
  82 Ni ( 0.000000,  0.000000,  0.316153)
  83 Cr ( 0.000000,  0.000000, -1.339370)
  84 Fe ( 0.000000,  0.000000,  1.980642)
  85 Ni ( 0.000000,  0.000000,  0.379646)
  86 Co ( 0.000000,  0.000000,  1.488715)
  87 Co ( 0.000000,  0.000000,  1.130101)
  88 Fe ( 0.000000,  0.000000,  2.049471)
  89 Cr ( 0.000000,  0.000000, -1.139946)
  90 Ni ( 0.000000,  0.000000,  0.280633)
  91 Ni ( 0.000000,  0.000000,  0.343341)
  92 Cr ( 0.000000,  0.000000, -1.770467)
  93 Fe ( 0.000000,  0.000000,  1.925981)
  94 Cr ( 0.000000,  0.000000, -1.726714)
  95 Cr ( 0.000000,  0.000000,  0.788902)
  96 Fe ( 0.000000,  0.000000,  1.824775)
  97 Co ( 0.000000,  0.000000,  1.208807)
  98 Fe ( 0.000000,  0.000000,  2.411475)
  99 Al ( 0.000000,  0.000000, -0.028892)
 100 Cr ( 0.000000,  0.000000, -1.676672)
 101 Cr ( 0.000000,  0.000000, -2.279341)
 102 Co ( 0.000000,  0.000000,  1.562764)
 103 Co ( 0.000000,  0.000000,  1.210232)
 104 Cr ( 0.000000,  0.000000, -1.910843)
 105 Ni ( 0.000000,  0.000000,  0.241128)
 106 Co ( 0.000000,  0.000000,  1.426384)
 107 Co ( 0.000000,  0.000000,  1.432853)
 108 Fe ( 0.000000,  0.000000,  2.301467)
 109 Co ( 0.000000,  0.000000,  0.841023)
 110 Co ( 0.000000,  0.000000,  1.350239)
 111 Cr ( 0.000000,  0.000000, -2.494141)
 112 Cr ( 0.000000,  0.000000,  1.559516)
 113 Co ( 0.000000,  0.000000,  0.907094)
 114 Al ( 0.000000,  0.000000, -0.024571)
 115 Co ( 0.000000,  0.000000,  1.297584)
 116 Co ( 0.000000,  0.000000,  1.375701)
 117 Ni ( 0.000000,  0.000000,  0.283833)
 118 Cr ( 0.000000,  0.000000, -2.052690)
 119 Cr ( 0.000000,  0.000000,  1.515850)
 120 Ni ( 0.000000,  0.000000,  0.115116)
 121 Ni ( 0.000000,  0.000000,  0.173751)
 122 Fe ( 0.000000,  0.000000,  2.431716)
 123 Ni ( 0.000000,  0.000000,  0.302651)
 124 Cr ( 0.000000,  0.000000,  1.550636)

Energy contributions relative to reference atoms: (reference = -4275894.041763)

Kinetic:       +279.179903
Potential:     -314.125195
External:        +0.000000
XC:            -973.048455
Entropy (-ST):   -5.624642
Local:          +42.845341
--------------------------
Free energy:   -970.773048
Extrapolated:  -967.960727

Dipole-layer corrected work functions: 4.925621, 4.939675 eV

Spin contamination: 40.858504 electrons
Showing all kpts
                      Up                     Down
 Kpt  Band  Eigenvalues  Occupancy  Eigenvalues  Occupancy
  0   587     -0.03903    0.99507      0.83669    0.03075
  0   588     -0.02429    0.99429      0.85184    0.02655
  0   589     -0.01497    0.99373      0.85963    0.02460
  0   590     -0.00236    0.99290      0.86671    0.02296

  1   587     -0.01095    0.99348      0.83080    0.03256
  1   588      0.00048    0.99269      0.84799    0.02756
  1   589      0.01251    0.99177      0.85694    0.02526
  1   590      0.02321    0.99085      0.86847    0.02257


Fermi level: 0.49164

No gap

Forces in eV/Ang:
  0 Co   -0.17121    0.27759    0.70532
  1 Cr    0.48466    0.21297   -0.11086
  2 Co   -0.07372    0.02169    0.42259
  3 Cr   -0.46215    0.50724   -0.69425
  4 Cr   -0.33789    0.54463   -0.20907
  5 Ni   -0.17906   -0.17906   -0.18299
  6 Co    0.43618    0.28165   -0.11622
  7 Co   -0.08301    0.32044    0.06475
  8 Ni   -0.14358    0.02513   -0.27395
  9 Co    0.42058   -0.22507    0.33403
 10 Cr    0.23586    0.01035   -0.33367
 11 Co    0.23068    0.06702    0.89801
 12 Cr   -1.36307    0.24837   -0.23244
 13 Al    0.13186   -0.36408   -1.60883
 14 Cr    0.92252   -0.06209   -0.22020
 15 Ni    0.25698   -0.31632    0.41553
 16 Co   -0.46243   -0.45191    0.40412
 17 Cr   -0.68165    0.45189   -0.20396
 18 Co    0.45057    0.28348    0.38564
 19 Co   -0.15120    0.61504    0.12050
 20 Al    0.75870   -0.84372   -0.62945
 21 Ni   -0.23835    0.02470   -0.12522
 22 Cr    0.25210    0.12732   -0.35897
 23 Co   -0.00373   -0.36989   -0.00230
 24 Co   -0.08372   -0.21950   -0.11604
 25 Ni   -0.35713   -0.30350    0.45556
 26 Cr   -0.06333    0.50220    0.08121
 27 Cr   -0.87757    0.15555   -0.43254
 28 Al    0.40270   -0.30754   -0.04692
 29 Fe    0.58105   -0.19880    0.26018
 30 Ni   -0.28683   -0.38635    0.23668
 31 Fe   -0.24743   -0.98181   -0.09454
 32 Fe   -0.20055    0.20138   -0.08722
 33 Fe    0.20705    0.46703    0.12389
 34 Ni    0.38074   -0.23195    0.10820
 35 Fe   -0.37974   -0.19773   -0.09530
 36 Al   -0.61876    0.19858   -0.27076
 37 Cr    0.82875   -0.21713   -0.36934
 38 Fe   -0.15601   -0.66328    0.44950
 39 Fe    0.09599   -0.19690   -0.10139
 40 Ni    0.33244    0.44259   -0.12008
 41 Fe   -0.08740    0.72579   -0.51323
 42 Fe   -0.21271    0.09437    0.58137
 43 Fe    0.37396    0.54413    0.73738
 44 Ni   -0.21252    0.19283    0.51054
 45 Co    0.24738    0.33798    0.26028
 46 Cr   -0.36798   -0.23952   -0.40483
 47 Fe   -0.02044    0.05235    0.24717
 48 Ni    0.03721   -0.39951   -0.14682
 49 Fe    0.74012   -0.78326   -0.16467
 50 Co   -0.27374   -0.01281   -0.35817
 51 Cr   -0.11159    0.04891    0.07239
 52 Cr   -0.51389    0.07823    0.70819
 53 Fe   -0.07915    0.25066   -0.23219
 54 Cr    0.37206   -0.00989   -0.25585
 55 Fe   -0.25296   -0.12638   -0.44582
 56 Co    0.14903   -0.30211    0.09246
 57 Cr   -0.22811   -0.04470   -0.43684
 58 Ni    0.08971   -0.04620   -0.08440
 59 Fe    0.16412   -0.31071    0.30306
 60 Ni    0.02294    0.06790   -0.02257
 61 Fe   -0.03964   -0.10116    0.41981
 62 Fe    0.16210    0.01467   -0.02878
 63 Ni    0.30680    0.33051   -0.13677
 64 Ni   -0.38410    0.43239   -0.00650
 65 Ni    0.13319    0.42576   -0.38018
 66 Fe    0.00050    0.32205    0.36206
 67 Co    0.33214    0.08987    0.25340
 68 Co   -0.15313    0.01531    0.06441
 69 Ni   -0.42757   -0.04553    0.07290
 70 Co   -0.20558    0.19986   -0.59016
 71 Ni    0.10322    0.05322    0.24729
 72 Fe    0.04468   -0.59099    0.11543
 73 Fe   -0.34760   -0.47934    0.13511
 74 Ni    0.17162   -0.37224   -0.49021
 75 Cr   -0.15940    0.39083    0.20567
 76 Fe    0.11026   -0.31915    0.21531
 77 Ni    0.31819   -0.19148   -0.01197
 78 Ni   -0.30268   -0.13473    0.20941
 79 Fe    0.16625    0.52637   -0.04429
 80 Ni   -0.16692    0.37470   -0.17456
 81 Fe    0.33893    0.08829    0.13654
 82 Ni    0.01995    0.08196   -0.37421
 83 Cr    0.20562    0.22440    0.28489
 84 Fe   -0.19889   -0.07787   -0.27058
 85 Ni    0.10224   -0.09856    0.14179
 86 Co    0.28374    0.00308    0.29140
 87 Co   -0.41701    0.00660    0.07205
 88 Fe   -0.11931    0.10578    0.12352
 89 Cr    0.21429    0.06942   -0.86809
 90 Ni   -0.08823   -0.28098   -0.05386
 91 Ni    0.11695   -0.13669   -0.34984
 92 Cr    0.06668   -0.05676    0.08800
 93 Fe    0.60104    0.18655   -0.16351
 94 Cr   -0.39567    0.12706    0.06757
 95 Cr    1.02589   -0.39344    0.32566
 96 Fe    0.22641   -0.05747   -0.22973
 97 Co    0.51178   -0.09566    0.09474
 98 Fe   -0.56673   -0.00462    0.48875
 99 Al   -0.86474    0.52084   -0.85756
100 Cr   -0.40779    0.16954    0.06684
101 Cr    0.35203    0.21608    0.02701
102 Co    0.47459    0.14223   -0.65171
103 Co   -0.61283   -0.02784   -0.26945
104 Cr    0.22282    0.58023    0.60789
105 Ni   -0.06303    0.14660    0.30912
106 Co    0.04650   -0.08417    0.14540
107 Co    0.06372   -0.44705   -0.18663
108 Fe   -0.03786   -0.07002    0.36328
109 Co   -0.01739   -0.09218   -0.31449
110 Co    0.11391   -0.00909   -0.10156
111 Cr   -0.34954    0.16529    0.35155
112 Cr    0.37876    0.19720    0.11522
113 Co    0.11454    0.03877    0.11517
114 Al    0.19080   -1.12369    0.67831
115 Co   -0.00512   -0.09916   -0.14556
116 Co    0.04621    0.08334   -0.39070
117 Ni   -0.20286    0.01712    0.19624
118 Cr   -0.45575    0.54568    0.33264
119 Cr   -0.24581   -0.34301   -0.26486
120 Ni    0.27005   -0.25001    0.08610
121 Ni   -0.04647   -0.37069    0.14623
122 Fe   -0.07876   -0.13271    0.19066
123 Ni    0.02199    0.45726   -0.34355
124 Cr   -0.12702   -0.24721    0.70043

Timing:                              incl.     excl.
-----------------------------------------------------------
Forces:                             64.703    64.703   0.2% |
Hamiltonian:                         2.041     0.015   0.0% |
 Atomic:                             0.420     0.001   0.0% |
  XC Correction:                     0.419     0.419   0.0% |
 Calculate atomic Hamiltonians:      0.980     0.980   0.0% |
 Communicate:                        0.100     0.100   0.0% |
 Initialize Hamiltonian:             0.000     0.000   0.0% |
 Poisson:                            0.114     0.114   0.0% |
 XC 3D grid:                         0.412     0.412   0.0% |
LCAO initialization:               348.232     0.593   0.0% |
 LCAO eigensolver:                  21.143     0.014   0.0% |
  Calculate projections:             0.000     0.000   0.0% |
  DenseAtomicCorrection:             0.000     0.000   0.0% |
  Distribute overlap matrix:        12.169    12.169   0.0% |
  Orbital Layouts:                   8.906     8.906   0.0% |
  Potential matrix:                  0.006     0.006   0.0% |
  Sum over cells:                    0.047     0.047   0.0% |
 LCAO to grid:                     323.544   323.544   1.1% |
 Set positions (LCAO WFS):           2.953     2.595   0.0% |
  Basic WFS set positions:           0.004     0.004   0.0% |
  Basis functions set positions:     0.001     0.001   0.0% |
  P tci:                             0.000     0.000   0.0% |
  ST tci:                            0.144     0.144   0.0% |
  mktci:                             0.208     0.208   0.0% |
PWDescriptor:                        0.111     0.111   0.0% |
SCF-cycle:                       27836.566     1.645   0.0% |
 Davidson:                       26889.262  7525.859  26.6% |----------|
  Apply H:                         470.836   462.520   1.6% ||
   HMM T:                            8.317     8.317   0.0% |
  Subspace diag:                  2590.854     0.065   0.0% |
   calc_h_matrix:                 1095.613   671.867   2.4% ||
    Apply H:                       423.746   415.266   1.5% ||
     HMM T:                          8.480     8.480   0.0% |
   diagonalize:                    243.370   243.370   0.9% |
   rotate_psi:                    1251.806  1251.806   4.4% |-|
  calc. matrices:                 6085.607  5294.089  18.7% |------|
   Apply H:                        791.518   774.199   2.7% ||
    HMM T:                          17.319    17.319   0.1% |
  diagonalize:                    7545.734  7545.734  26.7% |----------|
  rotate_psi:                     2670.372  2670.372   9.4% |---|
 Density:                          521.222     0.005   0.0% |
  Atomic density matrices:           4.378     4.378   0.0% |
  Mix:                             298.562   298.562   1.1% |
  Multipole moments:                 0.117     0.117   0.0% |
  Pseudo density:                  218.159   218.151   0.8% |
   Symmetrize density:               0.008     0.008   0.0% |
 Hamiltonian:                      402.771     1.997   0.0% |
  Atomic:                           56.561     0.194   0.0% |
   XC Correction:                   56.367    56.367   0.2% |
  Calculate atomic Hamiltonians:   265.426   265.426   0.9% |
  Communicate:                      18.438    18.438   0.1% |
  Poisson:                           6.314     6.314   0.0% |
  XC 3D grid:                       54.036    54.036   0.2% |
 Orthonormalize:                    21.666     0.001   0.0% |
  calc_s_matrix:                     2.734     2.734   0.0% |
  inverse-cholesky:                  1.121     1.121   0.0% |
  projections:                      13.162    13.162   0.0% |
  rotate_psi_s:                      4.648     4.648   0.0% |
Set symmetry:                        0.001     0.001   0.0% |
Other:                              13.047    13.047   0.0% |
-----------------------------------------------------------
Total:                                     28264.702 100.0%

Date: Thu Apr 20 15:35:42 2023
