
  ___ ___ ___ _ _ _  
 |   |   |_  | | | | 
 | | | | | . | | | | 
 |__ |  _|___|_____|  22.8.0
 |___|_|             

User:   c.zeng@d0127
Date:   Thu Apr 13 22:52:36 2023
Arch:   x86_64
Pid:    132894
CWD:    /home/c.zeng/projects/hea-corrosion/hea-mlp/data-curation/bulk-md/dft-jobs/52
Python: 3.8.1
gpaw:   /home/c.zeng/usr/installs/gpaw/source/gpaw-22.8.0/gpaw
_gpaw:  /home/c.zeng/usr/installs/gpaw/source/gpaw-22.8.0/
        _gpaw.cpython-38-x86_64-linux-gnu.so
ase:    /home/c.zeng/.local/lib/python3.8/site-packages/ase-3.22.1-py3.8.egg/ase (version 3.22.1)
numpy:  /shared/centos7/python/3.8.1/lib/python3.8/site-packages/numpy (version 1.17.4)
scipy:  /shared/centos7/python/3.8.1/lib/python3.8/site-packages/scipy (version 1.4.1)
libxc:  4.2.3
units:  Angstrom and eV
cores: 30
OpenMP: False
OMP_NUM_THREADS: 1

Input parameters:
  convergence: {energy: 0.0001}
  kpts: [2 2 2]
  maxiter: 666
  mode: {ecut: 350.0,
         name: pw}
  occupations: {fixmagmom: False,
                name: fermi-dirac,
                width: 0.1}
  spinpol: True
  xc: PBE

System changes: positions, numbers, cell, pbc, initial_charges, initial_magmoms 

Initialize ...

species:
  Co:
    name: Cobalt
    id: 339d20d5b0b93d2de9531a1bee871d91
    Z: 27.0
    valence: 9
    core: 18
    charge: 0.0
    file: /home/c.zeng/usr/data/gpaw-setups-0.9.20000/Co.PBE.gz
    compensation charges: {type: gauss,
                           rc: 0.32,
                           lmax: 2}
    cutoffs: {filter: 1.87,
              core: 2.55}
    valence states:
      #              energy  rcut
      - 4s(2.00)    -5.469   1.005
      - 4p(0.00)    -1.277   1.058
      - 3d(7.00)    -8.205   1.005
      -  s          21.742   1.005
      -  p          25.934   1.058
      -  d          19.007   1.005
  
    # Using partial waves for Co as LCAO basis

  Ni:
    name: Nickel
    id: 0d9f38a9d6e76a2886f07bb4381f212b
    Z: 28.0
    valence: 16
    core: 12
    charge: 0.0
    file: /home/c.zeng/usr/data/gpaw-setups-0.9.20000/Ni.PBE.gz
    compensation charges: {type: gauss,
                           rc: 0.36,
                           lmax: 2}
    cutoffs: {filter: 2.14,
              core: 1.98}
    valence states:
      #              energy  rcut
      - 4s(2.00)    -5.642   1.164
      - 3p(6.00)   -71.394   1.207
      - 4p(0.00)    -1.226   1.207
      - 3d(8.00)    -8.875   1.138
      -  s          21.570   1.164
      -  d          18.337   1.138
  
    # Using partial waves for Ni as LCAO basis

  Al:
    name: Aluminium
    id: 0292cae29f5d6237e50f6abdd43a7bdd
    Z: 13.0
    valence: 3
    core: 10
    charge: 0.0
    file: /home/c.zeng/usr/data/gpaw-setups-0.9.20000/Al.PBE.gz
    compensation charges: {type: gauss,
                           rc: 0.34,
                           lmax: 2}
    cutoffs: {filter: 1.91,
              core: 2.36}
    valence states:
      #              energy  rcut
      - 3s(2.00)    -7.753   1.085
      - 3p(1.00)    -2.712   1.085
      -  s          19.459   1.085
      -  p          24.499   1.085
      -  d           0.000   1.085
  
    # Using partial waves for Al as LCAO basis

  Cr:
    name: Chromium
    id: 33f258bda2ca9f93018e70263a35547b
    Z: 24.0
    valence: 6
    core: 18
    charge: 0.0
    file: /home/c.zeng/usr/data/gpaw-setups-0.9.20000/Cr.PBE.gz
    compensation charges: {type: gauss,
                           rc: 0.35,
                           lmax: 2}
    cutoffs: {filter: 2.14,
              core: 3.04}
    valence states:
      #              energy  rcut
      - 4s(1.00)    -4.007   1.164
      - 4p(0.00)    -0.989   1.217
      - 3d(5.00)    -2.913   1.111
      -  s          23.205   1.164
      -  p          26.223   1.217
      -  d          24.299   1.111
  
    # Using partial waves for Cr as LCAO basis

  Fe:
    name: Iron
    id: 37abbd8d6c3c35915a9b583b742da910
    Z: 26.0
    valence: 8
    core: 18
    charge: 0.0
    file: /home/c.zeng/usr/data/gpaw-setups-0.9.20000/Fe.PBE.gz
    compensation charges: {type: gauss,
                           rc: 0.33,
                           lmax: 2}
    cutoffs: {filter: 2.06,
              core: 2.67}
    valence states:
      #              energy  rcut
      - 4s(2.00)    -5.291   1.164
      - 4p(0.00)    -1.326   1.058
      - 3d(6.00)    -7.505   1.058
      -  s          21.920   1.164
      -  p          25.885   1.058
      -  d          19.706   1.058
  
    # Using partial waves for Fe as LCAO basis

Reference energy: -3548577.034362  # eV

Spin-polarized calculation.
Magnetic moment: 136.400000

Convergence criteria:
 Maximum [total energy] change in last 3 cyles: 0.0001 eV / electron
 Maximum integral of absolute [dens]ity change: 0.0001 electrons / valence electron
 Maximum integral of absolute [eigenst]ate change: 4e-08 eV^2 / valence electron
 Maximum number of scf [iter]ations: 666
 (Square brackets indicate name in SCF output, whereas a 'c' in
 the SCF output indicates the quantity has converged.)

Symmetries present (total): 1

  ( 1  0  0)
  ( 0  1  0)
  ( 0  0  1)

8 k-points: 2 x 2 x 2 Monkhorst-Pack grid
4 k-points in the irreducible part of the Brillouin zone
       k-points in crystal coordinates                weights
   0:     0.25000000   -0.25000000   -0.25000000          2/8
   1:     0.25000000   -0.25000000    0.25000000          2/8
   2:     0.25000000    0.25000000   -0.25000000          2/8
   3:     0.25000000    0.25000000    0.25000000          2/8

Wave functions: Plane wave expansion
  Cutoff energy: 350.000 eV
  Number of coefficients (min, max): 18331, 18331
  Pulay-stress correction: 0.000000 eV/Ang^3 (de/decut=0.000000)
  Using FFTW library
  ScaLapack parameters: grid=1x1, blocksize=None
  Wavefunction extrapolation:
    Improved wavefunction reuse through dual PAW basis 

Occupation numbers: Fermi-Dirac:
  width: 0.1000  # eV
 

Eigensolver
   Davidson(niter=2) 

Densities:
  Coarse grid: 48*48*48 grid
  Fine grid: 96*96*96 grid
  Total Charge: 0.000000 

Density mixing:
  Method: difference
  Backend: pulay
  Linear mixing parameter: 0.05
  old densities: 5
  Damping of long wavelength oscillations: 50 

Hamiltonian:
  XC and Coulomb potentials evaluated on a 96*96*96 grid
  Using the PBE Exchange-Correlation functional
  External potential:
    NoExternalPotential
 

XC parameters: PBE with 2 nearest neighbor stencil

Memory estimate:
  Process memory now: 250.22 MiB
  Calculator: 1030.73 MiB
    Density: 5.48 MiB
      Arrays: 2.05 MiB
      Localized functions: 2.61 MiB
      Mixer: 0.82 MiB
    Hamiltonian: 1.60 MiB
      Arrays: 1.52 MiB
      XC: 0.00 MiB
      Poisson: 0.00 MiB
      vbar: 0.08 MiB
    Wavefunctions: 1023.65 MiB
      Arrays psit_nG: 754.10 MiB
      Eigensolver: 259.26 MiB
      Projections: 5.19 MiB
      Projectors: 0.71 MiB
      PW-descriptor: 4.39 MiB

Total number of cores used: 30
Parallelization over k-points: 2
Domain decomposition: 5 x 3 x 1

Number of atoms: 108
Number of atomic orbitals: 994
Number of bands in calculation: 674
Number of valence electrons: 980
Bands to converge: occupied

... initialized

Initializing position-dependent things.

Density initialized from atomic densities
Creating initial wave functions:
  674 bands from LCAO basis set

        .--------Cr---------------.  
       /|                         |  
      / |   Co Fe     Fe    CrAl  |  
     / Ni       Ni     Fei        |  
    /   Al       CoFe     Cr      |  
   /o   | NiCr             Fee    |  
  /  Co |    FeFe   CoNi          |  
 *      Ni  Co  Al     CCr      Co|  
 | Co   Fe Fe Co  CoCr  CrCr    Ni|  
 |      |Cr Co  Co CFe     FeCr   |  
 |     Fe  NiNiCr   CrCoNi  NiFe  |  
 |     FeFe Al CCo      CCr    Ni |  
 |Ni    |NiNi   NiNiCo  CrFe    Al|  
 |  Cr  .-NiNi-----CoCrAl--Fe-----.  
 |     /   CrCCoNi  FeCrNi    Fe /   
 |    NiAl         Cr    Cr     /    
 Ni  /   Al     Al  Fe         /e    
 |Ni/      Fe  Fe    Co       /      
 | /                  Fe     /       
 |/   Cr                Al  /        
 *----------------Cr-------Co        

Positions:
   0 Co    10.621418    0.013369   10.859829    ( 0.0000,  0.0000,  2.1000)
   1 Ni    10.791917    1.928352    1.620629    ( 0.0000,  0.0000,  1.5000)
   2 Al     1.782828   -0.125738    1.658501    ( 0.0000,  0.0000,  0.0000)
   3 Cr     1.750125    1.595677   10.800356    ( 0.0000,  0.0000,  0.0000)
   4 Cr     3.801459   -0.220100   10.672471    ( 0.0000,  0.0000,  0.0000)
   5 Fe     3.526286    1.562094    1.863297    ( 0.0000,  0.0000,  2.0000)
   6 Fe     5.634503    0.002070    2.066298    ( 0.0000,  0.0000,  2.0000)
   7 Fe     5.307914    1.642583   -0.120688    ( 0.0000,  0.0000,  2.0000)
   8 Cr     7.055476    0.102579    0.168014    ( 0.0000,  0.0000,  0.0000)
   9 Fe     7.283657    1.791058    1.977622    ( 0.0000,  0.0000,  2.0000)
  10 Fe     8.776366    0.043294    1.754222    ( 0.0000,  0.0000,  2.0000)
  11 Al     8.946039    1.898718    0.167779    ( 0.0000,  0.0000,  0.0000)
  12 Co    10.779930    3.525614   10.544183    ( 0.0000,  0.0000,  2.1000)
  13 Fe    10.652618    5.336095    1.707599    ( 0.0000,  0.0000,  2.0000)
  14 Al     1.763009    3.786835    1.856661    ( 0.0000,  0.0000,  0.0000)
  15 Al     2.000587    5.339030   10.792722    ( 0.0000,  0.0000,  0.0000)
  16 Cr     3.504750    3.616388   10.690208    ( 0.0000,  0.0000,  0.0000)
  17 Cr     3.543913    5.470606    1.867790    ( 0.0000,  0.0000,  0.0000)
  18 Al     5.117778    3.420622    1.722831    ( 0.0000,  0.0000,  0.0000)
  19 Co     5.325090    5.229982   10.705605    ( 0.0000,  0.0000,  2.1000)
  20 Co     7.187688    3.536634    0.247575    ( 0.0000,  0.0000,  2.1000)
  21 Cr     7.185168    5.392289    1.894525    ( 0.0000,  0.0000,  0.0000)
  22 Cr     9.062203    3.503269    1.968566    ( 0.0000,  0.0000,  0.0000)
  23 Cr     9.052654    5.104196   -0.134826    ( 0.0000,  0.0000,  0.0000)
  24 Fe    10.465247    6.826681   10.740228    ( 0.0000,  0.0000,  2.0000)
  25 Al    10.357536    8.780765    1.759693    ( 0.0000,  0.0000,  0.0000)
  26 Ni     1.575584    7.283510    1.790457    ( 0.0000,  0.0000,  1.5000)
  27 Cr     1.610946    8.850051   10.781860    ( 0.0000,  0.0000,  0.0000)
  28 Fe     3.784367    7.185087   10.693801    ( 0.0000,  0.0000,  2.0000)
  29 Ni     3.737854    9.057373    1.784463    ( 0.0000,  0.0000,  1.5000)
  30 Co     5.383165    7.062491    1.723585    ( 0.0000,  0.0000,  2.1000)
  31 Fe     5.521640    8.980387   10.730043    ( 0.0000,  0.0000,  2.0000)
  32 Fe     7.137939    7.062995   10.501954    ( 0.0000,  0.0000,  2.0000)
  33 Cr     7.196455    8.962099    1.682631    ( 0.0000,  0.0000,  0.0000)
  34 Fe     8.876119    6.954642    1.825717    ( 0.0000,  0.0000,  2.0000)
  35 Cr     8.822307    8.666946   -0.164563    ( 0.0000,  0.0000,  0.0000)
  36 Ni    10.729957    0.071323    3.383574    ( 0.0000,  0.0000,  1.5000)
  37 Ni     0.031658    1.769068    5.265039    ( 0.0000,  0.0000,  1.5000)
  38 Co     1.683104   -0.067340    5.304314    ( 0.0000,  0.0000,  2.1000)
  39 Ni     1.724272    1.695861    3.553159    ( 0.0000,  0.0000,  1.5000)
  40 Co     3.532623   -0.163936    3.568456    ( 0.0000,  0.0000,  2.1000)
  41 Ni     3.442965    1.839815    5.268715    ( 0.0000,  0.0000,  1.5000)
  42 Co     5.277070    0.183873    5.238167    ( 0.0000,  0.0000,  2.1000)
  43 Ni     5.473338    1.973541    3.592170    ( 0.0000,  0.0000,  1.5000)
  44 Cr     7.298906    0.126799    3.752094    ( 0.0000,  0.0000,  0.0000)
  45 Co     7.301459    1.975409    5.258754    ( 0.0000,  0.0000,  2.1000)
  46 Al     9.118831   10.842787    5.560932    ( 0.0000,  0.0000,  0.0000)
  47 Ni     9.055384    1.888910    3.702672    ( 0.0000,  0.0000,  1.5000)
  48 Cr    10.736877    3.856793    3.698442    ( 0.0000,  0.0000,  0.0000)
  49 Fe    -0.163537    5.593617    5.267995    ( 0.0000,  0.0000,  2.0000)
  50 Fe     1.623097    3.479607    5.290519    ( 0.0000,  0.0000,  2.0000)
  51 Ni     1.719044    5.651400    3.777505    ( 0.0000,  0.0000,  1.5000)
  52 Ni     3.469311    3.378582    3.595364    ( 0.0000,  0.0000,  1.5000)
  53 Ni     3.494003    5.504409    5.405009    ( 0.0000,  0.0000,  1.5000)
  54 Co     5.407324    3.484011    5.365742    ( 0.0000,  0.0000,  2.1000)
  55 Cr     5.542164    5.469423    3.427295    ( 0.0000,  0.0000,  0.0000)
  56 Cr     7.235712    3.594799    3.599647    ( 0.0000,  0.0000,  0.0000)
  57 Co     7.034053    5.515290    5.351335    ( 0.0000,  0.0000,  2.1000)
  58 Cr     8.841823    3.641180    5.446529    ( 0.0000,  0.0000,  0.0000)
  59 Fe     8.859583    5.432657    3.771338    ( 0.0000,  0.0000,  2.0000)
  60 Ni    10.488279    7.164588    3.549751    ( 0.0000,  0.0000,  1.5000)
  61 Ni    10.532363    9.084054    5.015596    ( 0.0000,  0.0000,  1.5000)
  62 Cr     1.534528    7.247562    5.423808    ( 0.0000,  0.0000,  0.0000)
  63 Ni     1.779130    8.865974    3.423752    ( 0.0000,  0.0000,  1.5000)
  64 Co     3.784620    7.152924    3.626902    ( 0.0000,  0.0000,  2.1000)
  65 Co     3.200504    8.671611    5.403511    ( 0.0000,  0.0000,  2.1000)
  66 Co     5.458031    7.314518    5.514335    ( 0.0000,  0.0000,  2.1000)
  67 Cr     5.665413    8.777953    3.398952    ( 0.0000,  0.0000,  0.0000)
  68 Cr     7.417337    7.164185    3.694026    ( 0.0000,  0.0000,  0.0000)
  69 Cr     6.972370    8.911680    5.355746    ( 0.0000,  0.0000,  0.0000)
  70 Fe     8.861603    7.169838    5.435046    ( 0.0000,  0.0000,  2.0000)
  71 Ni     8.758521    9.119667    3.559485    ( 0.0000,  0.0000,  1.5000)
  72 Al     0.140594   10.436880    7.214040    ( 0.0000,  0.0000,  0.0000)
  73 Co     0.266808    1.598188    8.892728    ( 0.0000,  0.0000,  2.1000)
  74 Co     1.898941   -0.226967    9.147952    ( 0.0000,  0.0000,  2.1000)
  75 Fe     1.795925    2.048417    7.092821    ( 0.0000,  0.0000,  2.0000)
  76 Fe     3.381622    0.010133    7.089533    ( 0.0000,  0.0000,  2.0000)
  77 Fe     3.527370    1.627817    8.902506    ( 0.0000,  0.0000,  2.0000)
  78 Fe     5.649579   10.649350    8.717412    ( 0.0000,  0.0000,  2.0000)
  79 Cr     5.281335    1.570840    7.100654    ( 0.0000,  0.0000,  0.0000)
  80 Ni     7.090656   10.812309    6.893712    ( 0.0000,  0.0000,  1.5000)
  81 Cr     7.129045    1.886097    8.893732    ( 0.0000,  0.0000,  0.0000)
  82 Al     9.041614   10.694331    9.111866    ( 0.0000,  0.0000,  0.0000)
  83 Ni     8.948730    1.733534    7.420696    ( 0.0000,  0.0000,  1.5000)
  84 Cr    -0.186045    3.682260    7.162218    ( 0.0000,  0.0000,  0.0000)
  85 Co     0.126918    5.376984    8.955228    ( 0.0000,  0.0000,  2.1000)
  86 Ni     1.713251    3.625295    8.603799    ( 0.0000,  0.0000,  1.5000)
  87 Fe     1.585480    5.311820    6.941915    ( 0.0000,  0.0000,  2.0000)
  88 Co     3.618757    3.616938    6.900590    ( 0.0000,  0.0000,  2.1000)
  89 Fe     3.603866    5.500154    8.678117    ( 0.0000,  0.0000,  2.0000)
  90 Al     5.099128    3.587342    8.916641    ( 0.0000,  0.0000,  0.0000)
  91 Co     5.355026    5.390375    7.016507    ( 0.0000,  0.0000,  2.1000)
  92 Fe     7.020621    3.739929    7.205193    ( 0.0000,  0.0000,  2.0000)
  93 Ni     7.068421    5.442518    8.962552    ( 0.0000,  0.0000,  1.5000)
  94 Cr     8.754257    3.365393    9.022553    ( 0.0000,  0.0000,  0.0000)
  95 Cr     8.855897    5.270006    7.134557    ( 0.0000,  0.0000,  0.0000)
  96 Co    10.635627    7.268121    7.202797    ( 0.0000,  0.0000,  2.1000)
  97 Ni    10.757419    8.910056    9.118555    ( 0.0000,  0.0000,  1.5000)
  98 Ni     1.906843    7.132565    8.913575    ( 0.0000,  0.0000,  1.5000)
  99 Co     1.898906    8.956965    7.283064    ( 0.0000,  0.0000,  2.1000)
 100 Co     3.727155    7.269522    7.281291    ( 0.0000,  0.0000,  2.1000)
 101 Ni     3.634119    8.832413    8.867458    ( 0.0000,  0.0000,  1.5000)
 102 Fe     5.321415    7.193216    8.911891    ( 0.0000,  0.0000,  2.0000)
 103 Co     5.478573    9.148933    6.959691    ( 0.0000,  0.0000,  2.1000)
 104 Co     6.975949    7.195504    7.224919    ( 0.0000,  0.0000,  2.1000)
 105 Ni     7.186415    8.931467    8.936503    ( 0.0000,  0.0000,  1.5000)
 106 Fe     8.872101    6.944404    8.798475    ( 0.0000,  0.0000,  2.0000)
 107 Fe     8.867605    8.969357    7.216333    ( 0.0000,  0.0000,  2.0000)

Unit cell:
           periodic     x           y           z      points  spacing
  1. axis:    yes   10.722400    0.000000    0.000000    48     0.2234
  2. axis:    yes    0.000000   10.722400    0.000000    48     0.2234
  3. axis:    yes    0.000000    0.000000   10.722400    48     0.2234

  Lengths:  10.722400  10.722400  10.722400
  Angles:   90.000000  90.000000  90.000000

Effective grid spacing dv^(1/3) = 0.2234

     iter     time        total  log10-change:  magmom
                         energy  eigst   dens
iter:   1 22:57:09 -1012.154136                  +136.6833
iter:   2 22:58:51  -898.257125  -0.24  -1.19    +76.0112
iter:   3 23:00:34  -890.150322  -0.83  -1.21    +63.9197
iter:   4 23:02:16  -871.230650  -1.19  -1.28    +59.4608
iter:   5 23:03:58  -854.812664  -1.60  -1.28    +55.9422
iter:   6 23:05:41  -856.814757  -1.25  -1.37    +56.3108
iter:   7 23:07:23  -848.337996  -1.30  -1.44    +54.9314
iter:   8 23:09:05  -838.709603  -1.64  -1.56    +54.2238
iter:   9 23:10:47  -838.357704  -2.10  -1.74    +55.2427
iter:  10 23:12:29  -838.117653  -2.30  -1.78    +56.2470
iter:  11 23:14:12  -838.138860  -2.54  -1.82    +57.0796
iter:  12 23:15:54  -838.395098  -2.40  -1.84    +58.5668
iter:  13 23:17:36  -838.872976  -2.45  -1.90    +59.2127
iter:  14 23:19:19  -839.148603  -2.38  -1.96    +59.3618
iter:  15 23:21:01  -838.675707  -2.60  -1.99    +60.1950
iter:  16 23:22:44  -838.521214  -2.71  -2.04    +60.5510
iter:  17 23:24:26  -838.074350  -2.97  -2.09    +61.0602
iter:  18 23:26:09  -838.857793  -2.80  -2.19    +61.4048
iter:  19 23:27:51  -838.199910  -2.97  -2.14    +61.7598
iter:  20 23:29:33  -838.512431  -3.01  -2.24    +62.0460
iter:  21 23:31:16  -838.275357  -3.03  -2.24    +61.9800
iter:  22 23:32:58  -838.189798  -3.21  -2.35    +62.3752
iter:  23 23:34:41  -838.212347c -3.22  -2.40    +62.3753
iter:  24 23:36:23  -838.067256  -3.30  -2.42    +62.5380
iter:  25 23:38:05  -838.159176  -3.39  -2.57    +62.7268
iter:  26 23:39:48  -838.078422c -3.71  -2.56    +62.8604
iter:  27 23:41:30  -838.078888c -3.88  -2.65    +62.8102
iter:  28 23:43:12  -838.115004c -4.01  -2.71    +62.8067
iter:  29 23:44:54  -838.121754c -4.10  -2.70    +62.9427
iter:  30 23:46:36  -838.141639c -4.14  -2.78    +62.8970
iter:  31 23:48:19  -838.151296c -4.17  -2.75    +62.7995
iter:  32 23:50:01  -838.214537c -3.92  -2.85    +62.6285
iter:  33 23:51:43  -838.182051c -4.12  -2.76    +62.6685
iter:  34 23:53:26  -838.223080c -4.07  -2.93    +62.5199
iter:  35 23:55:08  -838.187504c -4.42  -2.87    +62.4100
iter:  36 23:56:50  -838.225534c -4.35  -3.05    +62.3298
iter:  37 23:58:33  -838.213819c -4.69  -2.98    +62.2757
iter:  38 00:00:15  -838.231720c -4.81  -3.09    +62.1339
iter:  39 00:01:58  -838.278513c -4.18  -3.10    +61.6395
iter:  40 00:03:40  -838.372877  -3.14  -3.01    +59.8721
iter:  41 00:05:22  -838.353184c -4.46  -2.82    +60.5115
iter:  42 00:07:05  -838.341931c -4.50  -2.90    +60.3311
iter:  43 00:08:47  -838.333696c -4.67  -2.95    +60.3838
iter:  44 00:10:29  -838.352565c -4.36  -3.01    +60.3503
iter:  45 00:12:12  -838.307134c -4.42  -2.93    +60.3834
iter:  46 00:13:54  -838.308588c -4.67  -3.26    +60.4098
iter:  47 00:15:36  -838.306309c -5.24  -3.27    +60.3794
iter:  48 00:17:19  -838.310107c -5.21  -3.30    +60.3881
iter:  49 00:19:01  -838.314822c -5.10  -3.35    +60.4420
iter:  50 00:20:44  -838.316302c -4.93  -3.34    +60.4178
iter:  51 00:22:26  -838.313855c -5.22  -3.33    +60.4510
iter:  52 00:24:08  -838.315987c -5.29  -3.56    +60.4655
iter:  53 00:25:51  -838.314440c -5.59  -3.53    +60.4565
iter:  54 00:27:33  -838.315157c -5.72  -3.62    +60.4646
iter:  55 00:29:16  -838.315417c -5.67  -3.68    +60.4501
iter:  56 00:30:58  -838.316127c -5.82  -3.65    +60.4688
iter:  57 00:32:41  -838.315423c -6.02  -3.69    +60.4613
iter:  58 00:34:23  -838.315753c -6.04  -3.74    +60.4636
iter:  59 00:36:05  -838.316297c -6.12  -3.78    +60.4677
iter:  60 00:37:48  -838.316214c -6.39  -3.77    +60.4534
iter:  61 00:39:30  -838.316678c -6.07  -3.82    +60.4530
iter:  62 00:41:12  -838.316493c -6.06  -3.79    +60.4332
iter:  63 00:42:55  -838.317835c -5.90  -3.91    +60.4309
iter:  64 00:44:37  -838.316374c -6.18  -3.81    +60.4262
iter:  65 00:46:20  -838.316812c -6.51  -4.17c   +60.4195
iter:  66 00:48:02  -838.316743c -6.93  -4.14c   +60.4181
iter:  67 00:49:45  -838.316935c -6.80  -4.23c   +60.4065
iter:  68 00:51:27  -838.316980c -7.04  -4.23c   +60.4078
iter:  69 00:53:09  -838.317152c -7.05  -4.24c   +60.3997
iter:  70 00:54:51  -838.317941c -5.72  -4.24c   +60.3459
iter:  71 00:56:34  -838.318578c -5.72  -4.10c   +60.3080
iter:  72 00:58:16  -838.318172c -6.63  -3.98    +60.3320
iter:  73 00:59:59  -838.318340c -6.72  -4.08c   +60.3258
iter:  74 01:01:41  -838.318760c -6.87  -4.09c   +60.3226
iter:  75 01:03:24  -838.318275c -6.29  -4.05c   +60.3228
iter:  76 01:05:06  -838.318372c -6.44  -3.94    +60.3252
iter:  77 01:06:48  -838.318186c -7.10  -4.16c   +60.3187
iter:  78 01:08:30  -838.318245c -6.56  -4.22c   +60.3147
iter:  79 01:10:13  -838.318357c -6.86  -4.11c   +60.3163
iter:  80 01:11:55  -838.318127c -7.06  -4.29c   +60.3176
iter:  81 01:13:37  -838.318416c -7.10  -4.25c   +60.3152
iter:  82 01:15:19  -838.318169c -7.01  -4.31c   +60.3107
iter:  83 01:17:01  -838.318430c -7.06  -4.30c   +60.3112
iter:  84 01:18:44  -838.318369c -7.37  -4.36c   +60.3176
iter:  85 01:20:27  -838.318272c -7.05  -4.56c   +60.3160
iter:  86 01:22:09  -838.318478c -7.33  -4.34c   +60.3165
iter:  87 01:23:51  -838.318344c -7.65c -4.57c   +60.3199

Converged after 87 iterations.

Dipole moment: (31.960566, 15.788025, 2.323849) |e|*Ang

Total magnetic moment: (0.000000, 0.000000, 60.319928)
Local magnetic moments:
   0 Co ( 0.000000,  0.000000,  0.119560)
   1 Ni ( 0.000000,  0.000000, -0.003422)
   2 Al ( 0.000000,  0.000000, -0.012501)
   3 Cr ( 0.000000,  0.000000, -1.654470)
   4 Cr ( 0.000000,  0.000000, -1.271055)
   5 Fe ( 0.000000,  0.000000,  2.162654)
   6 Fe ( 0.000000,  0.000000,  1.398033)
   7 Fe ( 0.000000,  0.000000,  1.750317)
   8 Cr ( 0.000000,  0.000000, -0.842473)
   9 Fe ( 0.000000,  0.000000,  1.466605)
  10 Fe ( 0.000000,  0.000000,  1.668852)
  11 Al ( 0.000000,  0.000000, -0.013857)
  12 Co ( 0.000000,  0.000000,  0.329710)
  13 Fe ( 0.000000,  0.000000,  1.687111)
  14 Al ( 0.000000,  0.000000, -0.010712)
  15 Al ( 0.000000,  0.000000, -0.022990)
  16 Cr ( 0.000000,  0.000000,  1.665241)
  17 Cr ( 0.000000,  0.000000, -1.631822)
  18 Al ( 0.000000,  0.000000, -0.020039)
  19 Co ( 0.000000,  0.000000,  1.210190)
  20 Co ( 0.000000,  0.000000,  0.925435)
  21 Cr ( 0.000000,  0.000000, -0.882316)
  22 Cr ( 0.000000,  0.000000,  1.009075)
  23 Cr ( 0.000000,  0.000000, -1.288544)
  24 Fe ( 0.000000,  0.000000,  1.820893)
  25 Al ( 0.000000,  0.000000, -0.010350)
  26 Ni ( 0.000000,  0.000000,  0.094250)
  27 Cr ( 0.000000,  0.000000, -1.909907)
  28 Fe ( 0.000000,  0.000000,  2.306063)
  29 Ni ( 0.000000,  0.000000,  0.161547)
  30 Co ( 0.000000,  0.000000,  0.682467)
  31 Fe ( 0.000000,  0.000000,  1.573381)
  32 Fe ( 0.000000,  0.000000,  1.947272)
  33 Cr ( 0.000000,  0.000000, -0.490871)
  34 Fe ( 0.000000,  0.000000,  1.376789)
  35 Cr ( 0.000000,  0.000000, -1.515972)
  36 Ni ( 0.000000,  0.000000,  0.319454)
  37 Ni ( 0.000000,  0.000000,  0.251145)
  38 Co ( 0.000000,  0.000000,  1.523567)
  39 Ni ( 0.000000,  0.000000,  0.408602)
  40 Co ( 0.000000,  0.000000,  1.587034)
  41 Ni ( 0.000000,  0.000000,  0.464214)
  42 Co ( 0.000000,  0.000000,  1.348905)
  43 Ni ( 0.000000,  0.000000,  0.234867)
  44 Cr ( 0.000000,  0.000000, -0.847014)
  45 Co ( 0.000000,  0.000000,  0.633294)
  46 Al ( 0.000000,  0.000000, -0.010567)
  47 Ni ( 0.000000,  0.000000,  0.083185)
  48 Cr ( 0.000000,  0.000000, -1.329966)
  49 Fe ( 0.000000,  0.000000,  1.510842)
  50 Fe ( 0.000000,  0.000000,  2.190981)
  51 Ni ( 0.000000,  0.000000,  0.188474)
  52 Ni ( 0.000000,  0.000000,  0.295007)
  53 Ni ( 0.000000,  0.000000,  0.463320)
  54 Co ( 0.000000,  0.000000,  1.424266)
  55 Cr ( 0.000000,  0.000000,  0.997333)
  56 Cr ( 0.000000,  0.000000, -0.647922)
  57 Co ( 0.000000,  0.000000,  0.797942)
  58 Cr ( 0.000000,  0.000000,  0.586924)
  59 Fe ( 0.000000,  0.000000, -0.033171)
  60 Ni ( 0.000000,  0.000000,  0.225316)
  61 Ni ( 0.000000,  0.000000,  0.232062)
  62 Cr ( 0.000000,  0.000000, -1.530195)
  63 Ni ( 0.000000,  0.000000,  0.356708)
  64 Co ( 0.000000,  0.000000,  1.275193)
  65 Co ( 0.000000,  0.000000,  1.371076)
  66 Co ( 0.000000,  0.000000,  1.051683)
  67 Cr ( 0.000000,  0.000000, -0.012146)
  68 Cr ( 0.000000,  0.000000, -0.462324)
  69 Cr ( 0.000000,  0.000000, -0.458474)
  70 Fe ( 0.000000,  0.000000,  1.728036)
  71 Ni ( 0.000000,  0.000000,  0.056194)
  72 Al ( 0.000000,  0.000000, -0.040356)
  73 Co ( 0.000000,  0.000000,  0.854416)
  74 Co ( 0.000000,  0.000000,  0.733470)
  75 Fe ( 0.000000,  0.000000,  2.304275)
  76 Fe ( 0.000000,  0.000000,  2.482252)
  77 Fe ( 0.000000,  0.000000,  1.972254)
  78 Fe ( 0.000000,  0.000000,  2.057490)
  79 Cr ( 0.000000,  0.000000, -1.612001)
  80 Ni ( 0.000000,  0.000000,  0.185302)
  81 Cr ( 0.000000,  0.000000, -1.051093)
  82 Al ( 0.000000,  0.000000,  0.000241)
  83 Ni ( 0.000000,  0.000000,  0.078517)
  84 Cr ( 0.000000,  0.000000, -0.768190)
  85 Co ( 0.000000,  0.000000,  1.011570)
  86 Ni ( 0.000000,  0.000000,  0.450161)
  87 Fe ( 0.000000,  0.000000,  2.303975)
  88 Co ( 0.000000,  0.000000,  1.386237)
  89 Fe ( 0.000000,  0.000000,  2.301906)
  90 Al ( 0.000000,  0.000000, -0.037835)
  91 Co ( 0.000000,  0.000000,  1.454587)
  92 Fe ( 0.000000,  0.000000,  1.869991)
  93 Ni ( 0.000000,  0.000000,  0.411577)
  94 Cr ( 0.000000,  0.000000,  0.965845)
  95 Cr ( 0.000000,  0.000000, -0.649900)
  96 Co ( 0.000000,  0.000000,  1.394400)
  97 Ni ( 0.000000,  0.000000,  0.066035)
  98 Ni ( 0.000000,  0.000000,  0.469263)
  99 Co ( 0.000000,  0.000000,  1.357225)
 100 Co ( 0.000000,  0.000000,  1.514072)
 101 Ni ( 0.000000,  0.000000,  0.468022)
 102 Fe ( 0.000000,  0.000000,  2.144319)
 103 Co ( 0.000000,  0.000000,  1.201160)
 104 Co ( 0.000000,  0.000000,  1.323239)
 105 Ni ( 0.000000,  0.000000,  0.237813)
 106 Fe ( 0.000000,  0.000000,  2.076899)
 107 Fe ( 0.000000,  0.000000,  2.191187)

Energy contributions relative to reference atoms: (reference = -3548577.034362)

Kinetic:       +383.945234
Potential:     -376.837574
External:        +0.000000
XC:            -879.052817
Entropy (-ST):   -4.404651
Local:          +35.829139
--------------------------
Free energy:   -840.520669
Extrapolated:  -838.318344

Spin contamination: 25.316910 electrons
Showing only first 2 kpts
                      Up                     Down
 Kpt  Band  Eigenvalues  Occupancy  Eigenvalues  Occupancy
  0   488      9.50782    0.99465     10.38072    0.02918
  0   489      9.52551    0.99362     10.39081    0.02645
  0   490      9.53485    0.99300     10.39766    0.02475
  0   491      9.55478    0.99146     10.41690    0.02050

  1   488      9.50785    0.99464     10.37848    0.02982
  1   489      9.52647    0.99355     10.39689    0.02493
  1   490      9.54240    0.99245     10.40491    0.02305
  1   491      9.55190    0.99170     10.41705    0.02047


Fermi level: 10.03026

No gap

Forces in eV/Ang:
  0 Co    0.58909   -0.97160   -0.08834
  1 Ni    0.12061   -0.63928    2.15047
  2 Al   -0.20890   -0.24842    2.40733
  3 Cr    0.89455    1.85065   -1.85095
  4 Cr    0.22481    0.92408   -0.57103
  5 Fe    0.29118    0.16700   -0.31549
  6 Fe   -1.35532    0.59174   -0.30823
  7 Fe   -0.21206    0.36046    0.74747
  8 Cr   -0.02638   -0.34634   -1.05550
  9 Fe   -1.00427    0.45111   -0.36040
 10 Fe    0.71502   -0.02000    0.14675
 11 Al    0.50084   -0.92886   -0.87970
 12 Co    0.78439    0.29518    0.00046
 13 Fe    0.07952    0.21778    1.38984
 14 Al   -0.18986   -2.61104    1.09065
 15 Al   -2.54615    2.57868   -2.65170
 16 Cr   -0.69090   -1.80609   -0.01528
 17 Cr    1.31264    0.85151    0.94629
 18 Al    1.60396    0.22358    0.72123
 19 Co    0.05424    0.76166    0.50063
 20 Co   -0.73970    0.27818   -0.42317
 21 Cr   -0.39732   -0.14040   -1.09473
 22 Cr   -0.19602    1.73559    0.15003
 23 Cr   -1.15672    0.46270    0.21524
 24 Fe    1.20435    2.06108   -1.03270
 25 Al    1.08810    1.18583    0.68314
 26 Ni    0.98394   -1.44139   -0.36778
 27 Cr    1.24072   -1.22215   -1.13455
 28 Fe   -0.86408   -0.02463    0.54232
 29 Ni   -0.22894   -1.32469    0.05162
 30 Co    0.32408    0.69703   -0.28227
 31 Fe   -0.52615   -0.00052    0.28053
 32 Fe   -0.13493    0.29902    2.30240
 33 Cr    0.67049   -1.42755    0.33777
 34 Fe   -1.52391   -0.20380   -1.15919
 35 Cr   -0.01800   -0.13734    0.72211
 36 Ni   -0.42748   -0.24387   -0.14271
 37 Ni    0.10598    0.27084    1.21095
 38 Co    0.77080   -0.03519   -0.26775
 39 Ni    0.03078    0.35125   -0.49524
 40 Co    0.26560    0.66290    0.92679
 41 Ni    0.55835   -1.24994    0.55620
 42 Co    0.03471   -0.80593   -0.35996
 43 Ni   -0.75307   -1.19908   -0.03687
 44 Cr   -1.26373    0.53404   -0.32962
 45 Co   -1.19271   -0.88193    1.60698
 46 Al   -1.44583    0.26438   -1.27902
 47 Ni    0.16757   -0.31301   -1.07961
 48 Cr   -0.85576   -1.34153    0.20654
 49 Fe    0.51417   -1.30337    1.53845
 50 Fe    0.90786    1.54149   -0.33101
 51 Ni    0.56791   -0.90980   -1.39905
 52 Ni    0.34581    2.00157   -0.50466
 53 Ni    0.56611   -0.02080   -0.22166
 54 Co   -0.12377    0.97628    0.18651
 55 Cr   -0.77946   -0.41784    1.07895
 56 Cr    0.00100    0.46235   -0.11221
 57 Co    0.51289   -0.75331    0.20114
 58 Cr    0.80224   -0.22060   -0.03916
 59 Fe   -0.22293   -1.09559   -0.82113
 60 Ni    0.82771    0.22419   -0.12438
 61 Ni    1.17038   -0.97453    1.79083
 62 Cr    0.22379    0.15223    0.22651
 63 Ni   -0.24148    0.39786    0.81535
 64 Co   -0.67637    0.45482   -0.57002
 65 Co    2.01888    1.52946   -0.62498
 66 Co   -1.80969   -1.16260   -1.60159
 67 Cr   -0.86216    0.24164    0.52689
 68 Cr   -1.53559    0.12013   -0.82365
 69 Cr    1.42562    0.94699   -0.33371
 70 Fe   -0.06706    0.79484    0.97888
 71 Ni    0.46046   -0.68709    0.33415
 72 Al    0.90782    1.20424    0.40373
 73 Co   -0.49233    0.79573    0.20750
 74 Co   -0.29833    1.00774    0.02744
 75 Fe   -0.21259   -2.47256   -0.59700
 76 Fe    0.55944   -0.22828   -0.20582
 77 Fe   -0.32756    0.27527   -0.06702
 78 Fe   -1.74248    0.40701    1.49834
 79 Cr   -0.60199    1.30183   -0.62161
 80 Ni    1.36892    0.23214    0.28609
 81 Cr   -0.39187   -0.33152    0.56584
 82 Al   -0.93954    0.46006   -0.92607
 83 Ni    0.54700   -0.40261   -1.93601
 84 Cr    0.09741   -0.69500   -0.43190
 85 Co   -0.61362    0.06063   -0.69005
 86 Ni    1.22272    0.44265    2.67085
 87 Fe    0.55347    0.93292    0.29779
 88 Co   -0.34033   -0.06601    0.81629
 89 Fe   -0.82188   -1.25231    0.73837
 90 Al    1.67095   -0.10265   -0.85523
 91 Co   -0.33646    0.10097    0.28059
 92 Fe    0.03310   -1.34720   -0.88513
 93 Ni   -0.24026   -1.91511   -0.65542
 94 Cr    0.70303    2.04384   -0.98638
 95 Cr    0.31646    0.52632    0.28326
 96 Co    0.51131    0.20901   -0.03211
 97 Ni   -0.60346   -0.82222   -0.89799
 98 Ni   -1.13870   -0.06371    0.29447
 99 Co   -0.54759   -1.29982   -0.20557
100 Co   -0.68898   -0.50777   -2.22431
101 Ni    0.27087    1.74231    1.04714
102 Fe    1.16739   -0.14055    0.17191
103 Co   -1.84376   -0.66004    0.93918
104 Co    1.14006   -0.31304   -0.10770
105 Ni   -0.14237    0.10704   -0.57910
106 Fe    0.64011    0.89724    0.36563
107 Fe   -0.06449   -0.93422   -0.47398

Timing:                              incl.     excl.
-----------------------------------------------------------
Forces:                             19.823    19.823   0.2% |
Hamiltonian:                         0.670     0.006   0.0% |
 Atomic:                             0.369     0.116   0.0% |
  XC Correction:                     0.253     0.253   0.0% |
 Calculate atomic Hamiltonians:      0.170     0.170   0.0% |
 Communicate:                        0.000     0.000   0.0% |
 Initialize Hamiltonian:             0.000     0.000   0.0% |
 Poisson:                            0.001     0.001   0.0% |
 XC 3D grid:                         0.125     0.125   0.0% |
LCAO initialization:               160.548     1.054   0.0% |
 LCAO eigensolver:                  17.590     0.014   0.0% |
  Calculate projections:             0.453     0.453   0.0% |
  DenseAtomicCorrection:             0.627     0.627   0.0% |
  Distribute overlap matrix:         3.463     3.463   0.0% |
  Orbital Layouts:                   7.776     7.776   0.1% |
  Potential matrix:                  4.587     4.587   0.1% |
  Sum over cells:                    0.670     0.670   0.0% |
 LCAO to grid:                     139.836   139.836   1.5% ||
 Set positions (LCAO WFS):           2.068     1.058   0.0% |
  Basic WFS set positions:           0.003     0.003   0.0% |
  Basis functions set positions:     0.001     0.001   0.0% |
  P tci:                             0.572     0.572   0.0% |
  ST tci:                            0.175     0.175   0.0% |
  mktci:                             0.260     0.260   0.0% |
PWDescriptor:                        0.063     0.063   0.0% |
SCF-cycle:                        8912.363     1.227   0.0% |
 Davidson:                        8750.970  2145.272  23.6% |--------|
  Apply H:                          88.408    86.119   0.9% |
   HMM T:                            2.289     2.289   0.0% |
  Subspace diag:                   842.756     0.074   0.0% |
   calc_h_matrix:                  330.670   208.301   2.3% ||
    Apply H:                       122.369   120.290   1.3% ||
     HMM T:                          2.080     2.080   0.0% |
   diagonalize:                    133.519   133.519   1.5% ||
   rotate_psi:                     378.494   378.494   4.2% |-|
  calc. matrices:                 1695.617  1521.451  16.7% |------|
   Apply H:                        174.166   169.739   1.9% ||
    HMM T:                           4.427     4.427   0.0% |
  diagonalize:                    3158.323  3158.323  34.7% |-------------|
  rotate_psi:                      820.594   820.594   9.0% |---|
 Density:                           89.726     0.002   0.0% |
  Atomic density matrices:           1.974     1.974   0.0% |
  Mix:                              21.851    21.851   0.2% |
  Multipole moments:                 0.046     0.046   0.0% |
  Pseudo density:                   65.853    65.849   0.7% |
   Symmetrize density:               0.004     0.004   0.0% |
 Hamiltonian:                       60.159     0.615   0.0% |
  Atomic:                           32.163     9.984   0.1% |
   XC Correction:                   22.179    22.179   0.2% |
  Calculate atomic Hamiltonians:    17.037    17.037   0.2% |
  Communicate:                       0.443     0.443   0.0% |
  Poisson:                           0.113     0.113   0.0% |
  XC 3D grid:                        9.788     9.788   0.1% |
 Orthonormalize:                    10.282     0.001   0.0% |
  calc_s_matrix:                     1.435     1.435   0.0% |
  inverse-cholesky:                  0.597     0.597   0.0% |
  projections:                       5.987     5.987   0.1% |
  rotate_psi_s:                      2.262     2.262   0.0% |
Set symmetry:                        0.001     0.001   0.0% |
Other:                               3.175     3.175   0.0% |
-----------------------------------------------------------
Total:                                      9096.644 100.0%

Date: Fri Apr 14 01:24:13 2023
