
  ___ ___ ___ _ _ _  
 |   |   |_  | | | | 
 | | | | | . | | | | 
 |__ |  _|___|_____|  22.8.0
 |___|_|             

User:   c.zeng@d0018
Date:   Thu Apr 20 13:24:14 2023
Arch:   x86_64
Pid:    212792
CWD:    /home/c.zeng/projects/hea-corrosion/hea-mlp/data-curation/surface-mcmc/dft-jobs/78
Python: 3.8.1
gpaw:   /home/c.zeng/usr/installs/gpaw/source/gpaw-22.8.0/gpaw
_gpaw:  /home/c.zeng/usr/installs/gpaw/source/gpaw-22.8.0/
        _gpaw.cpython-38-x86_64-linux-gnu.so
ase:    /home/c.zeng/.local/lib/python3.8/site-packages/ase-3.22.1-py3.8.egg/ase (version 3.22.1)
numpy:  /home/c.zeng/.local/lib/python3.8/site-packages/numpy (version 1.24.2)
scipy:  /home/c.zeng/.local/lib/python3.8/site-packages/scipy (version 1.10.1)
libxc:  4.2.3
units:  Angstrom and eV
cores: 30
OpenMP: False
OMP_NUM_THREADS: 1

Input parameters:
  convergence: {energy: 0.0001}
  kpts: [2 2 1]
  maxiter: 666
  mode: {ecut: 350.0,
         name: pw}
  occupations: {fixmagmom: False,
                name: fermi-dirac,
                width: 0.1}
  poissonsolver: {dipolelayer: xy}
  spinpol: True
  symmetry: {point_group: False}
  xc: PBE

System changes: positions, numbers, cell, pbc, initial_charges, initial_magmoms 

Initialize ...

species:
  Fe:
    name: Iron
    id: 37abbd8d6c3c35915a9b583b742da910
    Z: 26.0
    valence: 8
    core: 18
    charge: 0.0
    file: /home/c.zeng/usr/data/gpaw-setups-0.9.20000/Fe.PBE.gz
    compensation charges: {type: gauss,
                           rc: 0.33,
                           lmax: 2}
    cutoffs: {filter: 2.06,
              core: 2.67}
    valence states:
      #              energy  rcut
      - 4s(2.00)    -5.291   1.164
      - 4p(0.00)    -1.326   1.058
      - 3d(6.00)    -7.505   1.058
      -  s          21.920   1.164
      -  p          25.885   1.058
      -  d          19.706   1.058
  
    # Using partial waves for Fe as LCAO basis

  Cr:
    name: Chromium
    id: 33f258bda2ca9f93018e70263a35547b
    Z: 24.0
    valence: 6
    core: 18
    charge: 0.0
    file: /home/c.zeng/usr/data/gpaw-setups-0.9.20000/Cr.PBE.gz
    compensation charges: {type: gauss,
                           rc: 0.35,
                           lmax: 2}
    cutoffs: {filter: 2.14,
              core: 3.04}
    valence states:
      #              energy  rcut
      - 4s(1.00)    -4.007   1.164
      - 4p(0.00)    -0.989   1.217
      - 3d(5.00)    -2.913   1.111
      -  s          23.205   1.164
      -  p          26.223   1.217
      -  d          24.299   1.111
  
    # Using partial waves for Cr as LCAO basis

  Co:
    name: Cobalt
    id: 339d20d5b0b93d2de9531a1bee871d91
    Z: 27.0
    valence: 9
    core: 18
    charge: 0.0
    file: /home/c.zeng/usr/data/gpaw-setups-0.9.20000/Co.PBE.gz
    compensation charges: {type: gauss,
                           rc: 0.32,
                           lmax: 2}
    cutoffs: {filter: 1.87,
              core: 2.55}
    valence states:
      #              energy  rcut
      - 4s(2.00)    -5.469   1.005
      - 4p(0.00)    -1.277   1.058
      - 3d(7.00)    -8.205   1.005
      -  s          21.742   1.005
      -  p          25.934   1.058
      -  d          19.007   1.005
  
    # Using partial waves for Co as LCAO basis

  Ni:
    name: Nickel
    id: 0d9f38a9d6e76a2886f07bb4381f212b
    Z: 28.0
    valence: 16
    core: 12
    charge: 0.0
    file: /home/c.zeng/usr/data/gpaw-setups-0.9.20000/Ni.PBE.gz
    compensation charges: {type: gauss,
                           rc: 0.36,
                           lmax: 2}
    cutoffs: {filter: 2.14,
              core: 1.98}
    valence states:
      #              energy  rcut
      - 4s(2.00)    -5.642   1.164
      - 3p(6.00)   -71.394   1.207
      - 4p(0.00)    -1.226   1.207
      - 3d(8.00)    -8.875   1.138
      -  s          21.570   1.164
      -  d          18.337   1.138
  
    # Using partial waves for Ni as LCAO basis

  Al:
    name: Aluminium
    id: 0292cae29f5d6237e50f6abdd43a7bdd
    Z: 13.0
    valence: 3
    core: 10
    charge: 0.0
    file: /home/c.zeng/usr/data/gpaw-setups-0.9.20000/Al.PBE.gz
    compensation charges: {type: gauss,
                           rc: 0.34,
                           lmax: 2}
    cutoffs: {filter: 1.91,
              core: 2.36}
    valence states:
      #              energy  rcut
      - 3s(2.00)    -7.753   1.085
      - 3p(1.00)    -2.712   1.085
      -  s          19.459   1.085
      -  p          24.499   1.085
      -  d           0.000   1.085
  
    # Using partial waves for Al as LCAO basis

Reference energy: -4275894.041763  # eV

Spin-polarized calculation.
Magnetic moment: 165.900000

Convergence criteria:
 Maximum [total energy] change in last 3 cyles: 0.0001 eV / electron
 Maximum integral of absolute [dens]ity change: 0.0001 electrons / valence electron
 Maximum integral of absolute [eigenst]ate change: 4e-08 eV^2 / valence electron
 Maximum number of scf [iter]ations: 666
 (Square brackets indicate name in SCF output, whereas a 'c' in
 the SCF output indicates the quantity has converged.)

Symmetries present (total): 1

  ( 1  0  0)
  ( 0  1  0)
  ( 0  0  1)

4 k-points: 2 x 2 x 1 Monkhorst-Pack grid
2 k-points in the irreducible part of the Brillouin zone
       k-points in crystal coordinates                weights
   0:     0.25000000   -0.25000000    0.00000000          2/4
   1:     0.25000000    0.25000000    0.00000000          2/4

Wave functions: Plane wave expansion
  Cutoff energy: 350.000 eV
  Number of coefficients (min, max): 58901, 58943
  Pulay-stress correction: 0.000000 eV/Ang^3 (de/decut=0.000000)
  Using FFTW library
  ScaLapack parameters: grid=1x1, blocksize=None
  Wavefunction extrapolation:
    Improved wavefunction reuse through dual PAW basis 

Occupation numbers: Fermi-Dirac:
  width: 0.1000  # eV
 

Eigensolver
   Davidson(niter=2) 

Densities:
  Coarse grid: 54*54*128 grid
  Fine grid: 108*108*256 grid
  Total Charge: 0.000000 

Density mixing:
  Method: difference
  Backend: pulay
  Linear mixing parameter: 0.05
  old densities: 5
  Damping of long wavelength oscillations: 50 

Hamiltonian:
  XC and Coulomb potentials evaluated on a 108*108*256 grid
  Using the PBE Exchange-Correlation functional
  External potential:
    NoExternalPotential
 

XC parameters: PBE with 2 nearest neighbor stencil

Memory estimate:
  Process memory now: 370.50 MiB
  Calculator: 2335.53 MiB
    Density: 17.84 MiB
      Arrays: 6.75 MiB
      Localized functions: 8.39 MiB
      Mixer: 2.70 MiB
    Hamiltonian: 5.27 MiB
      Arrays: 5.01 MiB
      XC: 0.00 MiB
      Poisson: 0.00 MiB
      vbar: 0.25 MiB
    Wavefunctions: 2312.43 MiB
      Arrays psit_nG: 1458.82 MiB
      Eigensolver: 834.29 MiB
      Projections: 3.66 MiB
      Projectors: 1.14 MiB
      PW-descriptor: 14.51 MiB

Total number of cores used: 30
Parallelization over k-points: 2
Domain decomposition: 1 x 3 x 5

Number of atoms: 125
Number of atomic orbitals: 1185
Number of bands in calculation: 811
Number of valence electrons: 1179
Bands to converge: occupied

... initialized

Initializing position-dependent things.

Density initialized from atomic densities
Creating initial wave functions:
  811 bands from LCAO basis set

                                                                  
                                                                  
                                                                  
                                                                  
                             Cr                       Cr          
                               Ni    Co    Ni    Cr    Ni         
                          Co     Ni    Cr    Cr    Co             
                                Co    Fe    Fe    Al    Cr        
                Co    Cr   NCr   CCo    FAl   Cr    Ni            
           Ni     Co   CCo   FCo   FFe   Cr     Ni   Ni           
             Cr    Co     CoFe    Ni    Fe     Fe                 
                  Fe    NNi   CCr   CCo   FNi   ANi               
              Fe   NNi   FNi   CCCo  FNCr  NNi   Fe               
               Co    Fe    Cr    Ni     Fe                        
                          Fe    NCo   CFe   CNi   CNi   Al        
           Fe    Cr   ACr  CCCo   FCr   CFe   CFe   Ni            
            Ni    Fe    Fe    Fe    Ni                            
                       Co    Cr    Al    Cr    Cr                 
       Ni    Cr   CCr    Co    NFe   Fe    Ni                     
              Cr    Co    Cr     Cr    Fe                         
                                                                  
                                                                  
                                                                  
                                                                  
                                                                  

Positions:
   0 Fe    12.486468    1.462777   10.528605    ( 0.0000,  0.0000,  1.5000)
   1 Cr     2.491286    1.427324   10.624355    ( 0.0000,  0.0000,  2.0000)
   2 Co     4.996443    1.433664   10.615695    ( 0.0000,  0.0000,  2.1000)
   3 Cr     7.497692    1.450585   10.618513    ( 0.0000,  0.0000,  2.0000)
   4 Cr     9.980354    1.438381   10.617016    ( 0.0000,  0.0000,  2.1000)
   5 Ni    13.725570    3.599047   10.613993    ( 0.0000,  0.0000,  2.1000)
   6 Co     3.721032    3.570702   10.596763    ( 0.0000,  0.0000,  1.5000)
   7 Co     6.265421    3.568181   10.621801    ( 0.0000,  0.0000,  2.0000)
   8 Ni     8.741341    3.586865   10.615549    ( 0.0000,  0.0000,  2.0000)
   9 Fe    11.233064    3.610428   10.573163    ( 0.0000,  0.0000,  0.0000)
  10 Cr    14.927431    5.761281   10.554435    ( 0.0000,  0.0000,  1.5000)
  11 Co     5.002416    5.751707   10.362584    ( 0.0000,  0.0000,  0.0000)
  12 Cr     7.528897    5.754942   10.601782    ( 0.0000,  0.0000,  1.5000)
  13 Al     9.984614    5.751426   10.596909    ( 0.0000,  0.0000,  2.1000)
  14 Cr    12.467830    5.774643   10.569993    ( 0.0000,  0.0000,  0.0000)
  15 Ni    16.185528    7.952943   10.517715    ( 0.0000,  0.0000,  0.0000)
  16 Co     6.281890    7.953062   10.585785    ( 0.0000,  0.0000,  2.0000)
  17 Cr     8.751632    7.929564   10.589659    ( 0.0000,  0.0000,  2.0000)
  18 Co    11.232798    7.933199   10.565472    ( 0.0000,  0.0000,  0.0000)
  19 Co    13.711755    7.928211   10.595530    ( 0.0000,  0.0000,  2.0000)
  20 Al    17.465073   10.103493   10.559367    ( 0.0000,  0.0000,  2.1000)
  21 Ni     7.524528   10.087482   10.585491    ( 0.0000,  0.0000,  2.1000)
  22 Cr     9.999339   10.092837   10.628699    ( 0.0000,  0.0000,  2.1000)
  23 Co    12.492524   10.103136   10.590364    ( 0.0000,  0.0000,  1.5000)
  24 Co    14.967562   10.103591   10.598553    ( 0.0000,  0.0000,  1.5000)
  25 Ni     0.039549    0.061487   12.592509    ( 0.0000,  0.0000,  0.0000)
  26 Cr     2.543839    0.004196   12.633574    ( 0.0000,  0.0000,  2.1000)
  27 Cr     5.007959    0.016292   12.619485    ( 0.0000,  0.0000,  1.5000)
  28 Al    13.725047   10.821613   12.614847    ( 0.0000,  0.0000,  1.5000)
  29 Fe     9.941746    0.020015   12.634836    ( 0.0000,  0.0000,  2.1000)
  30 Ni     1.280557    2.197634   12.622449    ( 0.0000,  0.0000,  2.0000)
  31 Fe     3.757003    2.159238   12.617870    ( 0.0000,  0.0000,  0.0000)
  32 Fe     6.259391    2.150539   12.632283    ( 0.0000,  0.0000,  0.0000)
  33 Fe     8.729061    2.160536   12.640942    ( 0.0000,  0.0000,  1.5000)
  34 Ni    11.206426    2.199527   12.600112    ( 0.0000,  0.0000,  0.0000)
  35 Fe    14.980028    4.321894   12.623066    ( 0.0000,  0.0000,  1.5000)
  36 Al     5.000637    4.306532   12.605865    ( 0.0000,  0.0000,  0.0000)
  37 Cr     7.511972    4.316766   12.613115    ( 0.0000,  0.0000,  2.0000)
  38 Fe     9.977581    4.334444   12.603575    ( 0.0000,  0.0000,  2.0000)
  39 Fe    12.466237    4.352219   12.609857    ( 0.0000,  0.0000,  0.0000)
  40 Ni    16.217374    6.438246   12.562775    ( 0.0000,  0.0000,  2.1000)
  41 Fe     6.249088    6.441384   12.586551    ( 0.0000,  0.0000,  2.1000)
  42 Co     8.734867    6.480104   12.598380    ( 0.0000,  0.0000,  2.1000)
  43 Fe    11.217541    6.497393   12.580210    ( 0.0000,  0.0000,  1.5000)
  44 Ni    13.747589    6.470530   12.591629    ( 0.0000,  0.0000,  0.0000)
  45 Fe     4.965631    8.600697   12.619661    ( 0.0000,  0.0000,  0.0000)
  46 Cr     7.527050    8.647229   12.603517    ( 0.0000,  0.0000,  2.0000)
  47 Fe     9.992787    8.639093   12.602137    ( 0.0000,  0.0000,  0.0000)
  48 Ni    12.461146    8.678950   12.599202    ( 0.0000,  0.0000,  2.1000)
  49 Fe    14.923147    8.662851   12.605102    ( 0.0000,  0.0000,  0.0000)
  50 Fe     1.264555    0.726556   14.701676    ( 0.0000,  0.0000,  2.1000)
  51 Cr     3.750060    0.743838   14.683888    ( 0.0000,  0.0000,  1.5000)
  52 Cr     6.237655    0.730758   14.677812    ( 0.0000,  0.0000,  2.1000)
  53 Co     8.726659    0.737641   14.712772    ( 0.0000,  0.0000,  2.0000)
  54 Cr    11.216460    0.725550   14.709367    ( 0.0000,  0.0000,  2.1000)
  55 Co     2.513395    2.883675   14.691579    ( 0.0000,  0.0000,  1.5000)
  56 Fe     4.990849    2.893120   14.684241    ( 0.0000,  0.0000,  2.0000)
  57 Cr     7.488486    2.893629   14.696334    ( 0.0000,  0.0000,  0.0000)
  58 Ni     9.972278    2.890664   14.692489    ( 0.0000,  0.0000,  2.0000)
  59 Fe    12.467576    2.877141   14.691667    ( 0.0000,  0.0000,  0.0000)
  60 Ni     3.758526    5.050346   14.670151    ( 0.0000,  0.0000,  2.0000)
  61 Fe     6.246120    5.038056   14.669564    ( 0.0000,  0.0000,  1.5000)
  62 Co     8.732126    5.049902   14.667773    ( 0.0000,  0.0000,  1.5000)
  63 Ni    11.205583    5.023028   14.695277    ( 0.0000,  0.0000,  1.5000)
  64 Ni    13.756582    5.017781   14.684505    ( 0.0000,  0.0000,  2.0000)
  65 Ni     5.010694    7.182699   14.702674    ( 0.0000,  0.0000,  1.5000)
  66 Co     7.485228    7.189460   14.657588    ( 0.0000,  0.0000,  0.0000)
  67 Co     9.946463    7.198159   14.653068    ( 0.0000,  0.0000,  2.1000)
  68 Fe    12.473405    7.201264   14.677166    ( 0.0000,  0.0000,  0.0000)
  69 Ni    15.017763    7.213900   14.645054    ( 0.0000,  0.0000,  2.1000)
  70 Fe     6.251064    9.372532   14.712302    ( 0.0000,  0.0000,  2.1000)
  71 Ni     8.729758    9.372705   14.658410    ( 0.0000,  0.0000,  0.0000)
  72 Fe    11.200962    9.406124   14.647901    ( 0.0000,  0.0000,  1.5000)
  73 Fe    13.749704    9.394894   14.665366    ( 0.0000,  0.0000,  2.0000)
  74 Ni    16.223386    9.399309   14.720785    ( 0.0000,  0.0000,  1.5000)
  75 Cr    12.479408    1.425961   16.738106    ( 0.0000,  0.0000,  1.5000)
  76 Fe     2.490684    1.454436   16.739222    ( 0.0000,  0.0000,  1.5000)
  77 Ni     4.964072    1.458060   16.748615    ( 0.0000,  0.0000,  2.0000)
  78 Ni     7.493576    1.474137   16.738664    ( 0.0000,  0.0000,  1.5000)
  79 Co     9.990724    1.450314   16.751932    ( 0.0000,  0.0000,  2.0000)
  80 Ni    13.736871    3.597619   16.749671    ( 0.0000,  0.0000,  2.1000)
  81 Fe     3.731782    3.620695   16.737637    ( 0.0000,  0.0000,  2.0000)
  82 Ni     6.217757    3.600962   16.741893    ( 0.0000,  0.0000,  0.0000)
  83 Cr     8.739843    3.608427   16.720025    ( 0.0000,  0.0000,  2.1000)
  84 Co    11.236517    3.591755   16.778291    ( 0.0000,  0.0000,  2.0000)
  85 Ni    14.987780    5.779273   16.714506    ( 0.0000,  0.0000,  0.0000)
  86 Co     4.996827    5.757928   16.729565    ( 0.0000,  0.0000,  1.5000)
  87 Fe     7.493878    5.760427   16.738488    ( 0.0000,  0.0000,  2.0000)
  88 Fe     9.975457    5.766269   16.736932    ( 0.0000,  0.0000,  2.0000)
  89 Cr    12.478104    5.731140   16.775473    ( 0.0000,  0.0000,  1.5000)
  90 Ni    16.238159    7.937775   16.730328    ( 0.0000,  0.0000,  2.0000)
  91 Ni     6.231444    7.940404   16.765522    ( 0.0000,  0.0000,  0.0000)
  92 Cr     8.728840    7.936931   16.735611    ( 0.0000,  0.0000,  0.0000)
  93 Fe    11.192557    7.913866   16.746149    ( 0.0000,  0.0000,  0.0000)
  94 Cr    13.768802    7.904897   16.753722    ( 0.0000,  0.0000,  1.5000)
  95 Cr    17.466742   10.100767   16.763996    ( 0.0000,  0.0000,  2.0000)
  96 Co     7.483726   10.114128   16.752695    ( 0.0000,  0.0000,  0.0000)
  97 Fe     9.946168   10.127316   16.729242    ( 0.0000,  0.0000,  0.0000)
  98 Fe    12.492406   10.089342   16.764671    ( 0.0000,  0.0000,  0.0000)
  99 Al    15.005292   10.118575   16.753076    ( 0.0000,  0.0000,  2.0000)
 100 Cr     6.250979   10.817826   18.755486    ( 0.0000,  0.0000,  2.1000)
 101 Cr     2.491992    0.007607   18.757365    ( 0.0000,  0.0000,  2.0000)
 102 Co     4.959039    0.011376   18.813253    ( 0.0000,  0.0000,  1.5000)
 103 Co     7.505721    0.033872   18.830425    ( 0.0000,  0.0000,  0.0000)
 104 Cr    16.226478   10.816744   18.766934    ( 0.0000,  0.0000,  1.5000)
 105 Ni     1.262456    2.149912   18.735438    ( 0.0000,  0.0000,  2.1000)
 106 Co     3.733330    2.172036   18.731769    ( 0.0000,  0.0000,  2.1000)
 107 Co     6.235561    2.176310   18.762208    ( 0.0000,  0.0000,  0.0000)
 108 Co     8.740232    2.176277   18.742160    ( 0.0000,  0.0000,  2.0000)
 109 Fe    11.216255    2.130427   18.758333    ( 0.0000,  0.0000,  1.5000)
 110 Co     2.521812    4.343315   18.747649    ( 0.0000,  0.0000,  2.1000)
 111 Cr     4.991012    4.329273   18.757688    ( 0.0000,  0.0000,  0.0000)
 112 Cr     7.490880    4.334898   18.725399    ( 0.0000,  0.0000,  2.1000)
 113 Co     9.943770    4.322230   18.730184    ( 0.0000,  0.0000,  2.0000)
 114 Al    12.464525    4.326265   18.943816    ( 0.0000,  0.0000,  0.0000)
 115 Co    16.224051    6.495359   18.723022    ( 0.0000,  0.0000,  2.0000)
 116 Co     6.226814    6.495348   18.761650    ( 0.0000,  0.0000,  0.0000)
 117 Ni     8.730619    6.495759   18.735203    ( 0.0000,  0.0000,  1.5000)
 118 Cr    11.207915    6.503819   18.742835    ( 0.0000,  0.0000,  2.1000)
 119 Cr    13.765796    6.524169   18.782109    ( 0.0000,  0.0000,  0.0000)
 120 Ni    17.450702    8.660601   18.763558    ( 0.0000,  0.0000,  0.0000)
 121 Ni     7.490686    8.670024   18.761621    ( 0.0000,  0.0000,  1.5000)
 122 Co     9.981419    8.673010   18.727630    ( 0.0000,  0.0000,  2.1000)
 123 Ni    12.489241    8.635804   18.838438    ( 0.0000,  0.0000,  0.0000)
 124 Cr    14.988874    8.667774   18.729832    ( 0.0000,  0.0000,  2.1000)

Unit cell:
           periodic     x           y           z      points  spacing
  1. axis:    yes   12.474800    0.000000    0.000000    54     0.2001
  2. axis:    yes    6.246240   10.818800    0.000000    54     0.2003
  3. axis:    no     0.000000    0.000000   29.353100   128     0.2293

  Lengths:  12.474800  12.492476  29.353100
  Angles:   90.000000  90.000000  59.999988

Effective grid spacing dv^(1/3) = 0.2198

     iter     time        total  log10-change:  magmom
                         energy  eigst   dens
iter:   1 13:34:27 -1056.814719                  +165.5127
iter:   2 13:38:09 -2185.362693  +0.44  -1.21    +131.2699
iter:   3 13:41:50 -1366.383889  +0.45  -0.79    +103.7096
iter:   4 13:45:32 -1075.045330  -0.72  -1.01    +69.9285
iter:   5 13:49:13 -1007.553807  -1.31  -1.23    +55.8329
iter:   6 13:52:55  -995.645664  -1.77  -1.33    +48.7917
iter:   7 13:56:36  -992.147239  -1.87  -1.36    +45.6302
iter:   8 14:00:18 -1670.136526  -0.58  -1.37    +45.9172
iter:   9 14:04:00  -990.694604  -0.74  -0.87    +43.5877
iter:  10 14:07:41  -979.572673  -1.63  -1.39    +42.0599
iter:  11 14:11:23  -968.769138  -1.72  -1.44    +42.5914
iter:  12 14:15:03 -1002.695211  -1.53  -1.56    +42.8325
iter:  13 14:18:44 -1004.426207  -1.49  -1.39    +44.0473
iter:  14 14:22:25  -971.232096  -1.63  -1.41    +43.2983
iter:  15 14:26:07  -974.567328  -1.74  -1.69    +41.4971
iter:  16 14:29:49  -991.172557  -1.76  -1.60    +41.7288
iter:  17 14:33:30  -963.801716  -2.16  -1.48    +42.2801
iter:  18 14:37:12  -974.093576  -2.27  -1.76    +44.1647
iter:  19 14:40:55  -968.651763  -2.24  -1.63    +44.1193
iter:  20 14:44:38  -964.920696  -2.45  -1.70    +45.3237
iter:  21 14:48:20  -964.493614  -2.55  -1.78    +47.5099
iter:  22 14:52:03  -964.512510  -2.64  -1.84    +48.7228
iter:  23 14:55:46  -963.595529  -2.79  -1.82    +50.8228
iter:  24 14:59:29  -967.909816  -2.60  -1.88    +52.3923
iter:  25 15:03:12  -965.399941  -2.51  -1.79    +53.2059
iter:  26 15:06:54  -990.460161  -2.17  -1.87    +54.1403
iter:  27 15:10:37  -965.822714  -2.39  -1.51    +55.0926
iter:  28 15:14:19  -979.479209  -2.12  -1.94    +57.0257
iter:  29 15:17:59  -965.638565  -2.41  -1.65    +56.7071
iter:  30 15:21:42  -965.579610  -2.97  -1.97    +57.8748
iter:  31 15:25:25  -965.588218c -2.91  -2.02    +59.2804
iter:  32 15:29:08  -981.838725  -2.38  -2.01    +60.4652
iter:  33 15:32:51  -967.315279  -2.43  -1.63    +61.6585
iter:  34 15:36:36  -968.300996  -2.90  -1.95    +62.6607
iter:  35 15:40:19  -967.482818  -2.67  -1.99    +62.4862
iter:  36 15:44:02  -967.276015  -2.83  -2.07    +63.7085
iter:  37 15:47:42  -967.783774  -2.64  -2.12    +64.9306
iter:  38 15:51:25  -966.959855  -2.97  -2.11    +65.7600
iter:  39 15:55:08  -972.273225  -2.53  -2.32    +67.3125
iter:  40 15:58:51  -967.788616  -2.77  -1.90    +67.5542
iter:  41 16:02:34  -967.245466  -3.20  -2.20    +68.7883
iter:  42 16:06:17  -967.433183  -3.41  -2.47    +69.9729
iter:  43 16:10:00  -967.496397  -3.68  -2.40    +71.0309
iter:  44 16:13:43  -967.564577  -3.53  -2.43    +72.4446
iter:  45 16:17:26  -967.908540  -3.52  -2.51    +73.5626
iter:  46 16:21:09  -967.991035  -3.99  -2.43    +73.8395
iter:  47 16:24:51  -971.761428  -2.82  -2.40    +74.6548
iter:  48 16:28:35  -967.883792  -3.14  -1.96    +74.7235
iter:  49 16:32:18  -967.886182  -3.81  -2.56    +75.2119
iter:  50 16:36:01  -967.881790c -4.14  -2.65    +75.5137
iter:  51 16:39:43  -968.161939  -3.48  -2.71    +76.1708
iter:  52 16:43:26  -967.965561  -3.85  -2.54    +76.1510
iter:  53 16:47:09  -968.001697  -4.04  -2.71    +76.5266
iter:  54 16:50:52  -968.318300  -3.83  -2.77    +76.8463
iter:  55 16:54:36  -968.048707  -4.20  -2.50    +76.8531
iter:  56 16:58:18  -968.086977  -4.33  -2.78    +77.0219
iter:  57 17:01:59  -968.139282c -4.17  -2.82    +77.2122
iter:  58 17:05:41  -968.171812c -4.23  -2.83    +77.2441
iter:  59 17:09:24  -968.212975c -4.28  -2.77    +77.3393
iter:  60 17:13:07  -968.273090c -4.35  -2.75    +77.4641
iter:  61 17:16:50  -968.243326c -4.50  -2.71    +77.5541
iter:  62 17:20:32  -968.306241c -4.33  -2.82    +77.5636
iter:  63 17:24:15  -968.327723c -3.94  -2.78    +77.5790
iter:  64 17:27:58  -968.367045c -4.05  -2.81    +77.5322
iter:  65 17:31:41  -968.353439c -4.39  -2.75    +77.5158
iter:  66 17:35:24  -968.394626c -4.26  -2.87    +77.5417
iter:  67 17:39:09  -968.480569  -4.26  -2.87    +77.4850
iter:  68 17:42:52  -968.411710c -4.32  -2.69    +77.4566
iter:  69 17:46:35  -968.408679c -4.27  -2.90    +77.4525
iter:  70 17:50:17  -968.432911c -4.56  -3.09    +77.2981
iter:  71 17:54:00  -968.455070c -4.73  -3.03    +77.2354
iter:  72 17:57:43  -968.486477c -4.28  -3.01    +77.1662
iter:  73 18:01:25  -968.487537c -5.02  -3.04    +77.1460
iter:  74 18:05:08  -968.512788c -4.85  -3.05    +77.0870
iter:  75 18:08:50  -968.622982  -4.43  -2.99    +77.0977
iter:  76 18:12:32  -968.548999c -4.31  -2.69    +77.0729
iter:  77 18:16:14  -968.566083c -4.43  -2.91    +77.0807
iter:  78 18:19:57  -968.584249c -4.67  -2.89    +77.0769
iter:  79 18:23:40  -968.728840  -4.02  -2.87    +77.0362
iter:  80 18:27:23  -968.764946  -4.33  -2.60    +77.0767
iter:  81 18:31:06  -968.662469c -3.92  -2.56    +77.1637
iter:  82 18:34:48  -968.646334  -3.92  -2.75    +76.9953
iter:  83 18:38:31  -968.691677c -3.93  -2.76    +76.9037
iter:  84 18:42:16  -968.910388  -3.74  -2.69    +76.9572
iter:  85 18:45:58  -968.594426  -4.12  -2.49    +76.9673
iter:  86 18:49:41  -968.593935  -4.89  -2.92    +76.9619
iter:  87 18:53:23  -968.593869c -4.31  -2.94    +77.0175
iter:  88 18:57:06  -968.625874c -4.68  -2.99    +76.9837
iter:  89 19:00:49  -968.595522c -4.55  -2.84    +77.0491
iter:  90 19:04:31  -968.598267c -4.47  -3.00    +77.0449
iter:  91 19:08:14  -968.639111c -4.22  -3.03    +77.0369
iter:  92 19:11:57  -968.614480c -4.30  -2.88    +77.0779
iter:  93 19:15:39  -968.586998c -4.70  -2.95    +77.0763
iter:  94 19:19:21  -968.614312c -4.75  -3.27    +77.1245
iter:  95 19:23:02  -968.587349c -4.87  -2.96    +77.1109
iter:  96 19:26:45  -968.581016c -5.48  -3.21    +77.1603
iter:  97 19:30:28  -968.581744c -5.81  -3.40    +77.1916
iter:  98 19:34:10  -968.591946c -5.24  -3.43    +77.1999
iter:  99 19:37:53  -968.581398c -5.44  -3.21    +77.2048
iter: 100 19:41:35  -968.601288c -5.14  -3.45    +77.2149
iter: 101 19:45:18  -968.605168c -4.87  -3.13    +77.2393
iter: 102 19:49:00  -968.586191c -5.09  -3.07    +77.2404
iter: 103 19:52:43  -968.583434c -5.48  -3.45    +77.2194
iter: 104 19:56:26  -968.584090c -5.69  -3.54    +77.2356
iter: 105 20:00:08  -968.583127c -6.25  -3.48    +77.2426
iter: 106 20:03:51  -968.583711c -6.32  -3.65    +77.2569
iter: 107 20:07:34  -968.588090c -5.79  -3.60    +77.2576
iter: 108 20:11:16  -968.584217c -5.79  -3.38    +77.2789
iter: 109 20:14:58  -968.587237c -5.57  -3.64    +77.2896
iter: 110 20:18:41  -968.588166c -5.54  -3.59    +77.2840
iter: 111 20:22:24  -968.587273c -5.43  -3.56    +77.2834
iter: 112 20:26:06  -968.585607c -5.76  -3.44    +77.2869
iter: 113 20:29:49  -968.588903c -5.80  -3.72    +77.3141
iter: 114 20:33:32  -968.585184c -6.05  -3.42    +77.3119
iter: 115 20:37:14  -968.584934c -6.52  -3.95    +77.3244
iter: 116 20:40:54  -968.585133c -6.79  -3.96    +77.3303
iter: 117 20:44:37  -968.588174c -5.94  -4.04c   +77.3316
iter: 118 20:48:19  -968.585435c -6.32  -3.61    +77.3325
iter: 119 20:52:02  -968.585967c -6.58  -4.19c   +77.3387
iter: 120 20:55:45  -968.586086c -6.34  -3.98    +77.3440
iter: 121 20:59:27  -968.585780c -6.64  -3.79    +77.3441
iter: 122 21:03:10  -968.585699c -7.03  -4.35c   +77.3465
iter: 123 21:06:53  -968.585806c -7.33  -4.46c   +77.3516
iter: 124 21:10:35  -968.585961c -7.33  -4.53c   +77.3560
iter: 125 21:14:17  -968.585894c -7.55c -4.45c   +77.3587

Converged after 125 iterations.

Dipole moment: (46.205496, 22.458423, -0.017965) |e|*Ang

Total magnetic moment: (0.000000, 0.000000, 77.358679)
Local magnetic moments:
   0 Fe ( 0.000000,  0.000000,  2.522344)
   1 Cr ( 0.000000,  0.000000, -2.240855)
   2 Co ( 0.000000,  0.000000,  0.995115)
   3 Cr ( 0.000000,  0.000000,  1.549567)
   4 Cr ( 0.000000,  0.000000, -2.396504)
   5 Ni ( 0.000000,  0.000000,  0.336646)
   6 Co ( 0.000000,  0.000000,  1.382754)
   7 Co ( 0.000000,  0.000000,  0.777410)
   8 Ni ( 0.000000,  0.000000,  0.188725)
   9 Fe ( 0.000000,  0.000000,  2.307183)
  10 Cr ( 0.000000,  0.000000,  2.190690)
  11 Co ( 0.000000,  0.000000,  1.609360)
  12 Cr ( 0.000000,  0.000000, -2.125242)
  13 Al ( 0.000000,  0.000000, -0.026791)
  14 Cr ( 0.000000,  0.000000, -2.417743)
  15 Ni ( 0.000000,  0.000000,  0.480211)
  16 Co ( 0.000000,  0.000000,  1.043362)
  17 Cr ( 0.000000,  0.000000,  1.799959)
  18 Co ( 0.000000,  0.000000,  1.138022)
  19 Co ( 0.000000,  0.000000,  1.389625)
  20 Al ( 0.000000,  0.000000, -0.041453)
  21 Ni ( 0.000000,  0.000000,  0.086021)
  22 Cr ( 0.000000,  0.000000, -1.799370)
  23 Co ( 0.000000,  0.000000,  1.109028)
  24 Co ( 0.000000,  0.000000,  1.167002)
  25 Ni ( 0.000000,  0.000000,  0.311281)
  26 Cr ( 0.000000,  0.000000,  0.824250)
  27 Cr ( 0.000000,  0.000000, -0.289479)
  28 Al ( 0.000000,  0.000000, -0.044695)
  29 Fe ( 0.000000,  0.000000,  2.134587)
  30 Ni ( 0.000000,  0.000000,  0.342118)
  31 Fe ( 0.000000,  0.000000,  1.824622)
  32 Fe ( 0.000000,  0.000000,  1.265361)
  33 Fe ( 0.000000,  0.000000,  1.681934)
  34 Ni ( 0.000000,  0.000000,  0.358856)
  35 Fe ( 0.000000,  0.000000,  2.342418)
  36 Al ( 0.000000,  0.000000, -0.052252)
  37 Cr ( 0.000000,  0.000000, -0.696701)
  38 Fe ( 0.000000,  0.000000,  2.136675)
  39 Fe ( 0.000000,  0.000000,  2.399587)
  40 Ni ( 0.000000,  0.000000,  0.460782)
  41 Fe ( 0.000000,  0.000000,  2.075612)
  42 Co ( 0.000000,  0.000000,  0.753372)
  43 Fe ( 0.000000,  0.000000,  2.192340)
  44 Ni ( 0.000000,  0.000000,  0.395070)
  45 Fe ( 0.000000,  0.000000,  2.455805)
  46 Cr ( 0.000000,  0.000000, -1.355295)
  47 Fe ( 0.000000,  0.000000,  1.492757)
  48 Ni ( 0.000000,  0.000000,  0.387594)
  49 Fe ( 0.000000,  0.000000,  2.510538)
  50 Fe ( 0.000000,  0.000000,  1.878299)
  51 Cr ( 0.000000,  0.000000, -1.218362)
  52 Cr ( 0.000000,  0.000000, -0.563730)
  53 Co ( 0.000000,  0.000000,  0.901459)
  54 Cr ( 0.000000,  0.000000, -1.517832)
  55 Co ( 0.000000,  0.000000,  1.374073)
  56 Fe ( 0.000000,  0.000000,  1.984494)
  57 Cr ( 0.000000,  0.000000, -1.117394)
  58 Ni ( 0.000000,  0.000000,  0.320667)
  59 Fe ( 0.000000,  0.000000,  2.368533)
  60 Ni ( 0.000000,  0.000000,  0.463711)
  61 Fe ( 0.000000,  0.000000,  2.041832)
  62 Co ( 0.000000,  0.000000,  1.105011)
  63 Ni ( 0.000000,  0.000000,  0.399805)
  64 Ni ( 0.000000,  0.000000,  0.414120)
  65 Ni ( 0.000000,  0.000000,  0.584610)
  66 Co ( 0.000000,  0.000000,  1.396800)
  67 Co ( 0.000000,  0.000000,  1.220865)
  68 Fe ( 0.000000,  0.000000, -2.180566)
  69 Ni ( 0.000000,  0.000000,  0.378079)
  70 Fe ( 0.000000,  0.000000,  2.279344)
  71 Ni ( 0.000000,  0.000000,  0.266426)
  72 Fe ( 0.000000,  0.000000,  1.925894)
  73 Fe ( 0.000000,  0.000000,  1.930971)
  74 Ni ( 0.000000,  0.000000,  0.267879)
  75 Cr ( 0.000000,  0.000000, -1.248145)
  76 Fe ( 0.000000,  0.000000,  2.103680)
  77 Ni ( 0.000000,  0.000000,  0.464601)
  78 Ni ( 0.000000,  0.000000,  0.288971)
  79 Co ( 0.000000,  0.000000,  0.782075)
  80 Ni ( 0.000000,  0.000000,  0.385513)
  81 Fe ( 0.000000,  0.000000,  2.382806)
  82 Ni ( 0.000000,  0.000000,  0.263454)
  83 Cr ( 0.000000,  0.000000,  0.669132)
  84 Co ( 0.000000,  0.000000,  1.033348)
  85 Ni ( 0.000000,  0.000000,  0.353020)
  86 Co ( 0.000000,  0.000000,  1.465920)
  87 Fe ( 0.000000,  0.000000,  2.189322)
  88 Fe ( 0.000000,  0.000000,  1.912695)
  89 Cr ( 0.000000,  0.000000,  1.291362)
  90 Ni ( 0.000000,  0.000000,  0.258082)
  91 Ni ( 0.000000,  0.000000,  0.409579)
  92 Cr ( 0.000000,  0.000000, -1.588228)
  93 Fe ( 0.000000,  0.000000,  1.949184)
  94 Cr ( 0.000000,  0.000000, -1.360694)
  95 Cr ( 0.000000,  0.000000,  0.567327)
  96 Co ( 0.000000,  0.000000,  0.866812)
  97 Fe ( 0.000000,  0.000000,  2.191989)
  98 Fe ( 0.000000,  0.000000,  2.365052)
  99 Al ( 0.000000,  0.000000, -0.026585)
 100 Cr ( 0.000000,  0.000000,  1.629295)
 101 Cr ( 0.000000,  0.000000, -2.378187)
 102 Co ( 0.000000,  0.000000,  1.584740)
 103 Co ( 0.000000,  0.000000,  1.318608)
 104 Cr ( 0.000000,  0.000000, -2.019346)
 105 Ni ( 0.000000,  0.000000,  0.303701)
 106 Co ( 0.000000,  0.000000,  1.449858)
 107 Co ( 0.000000,  0.000000,  1.432793)
 108 Co ( 0.000000,  0.000000,  1.263416)
 109 Fe ( 0.000000,  0.000000,  2.234629)
 110 Co ( 0.000000,  0.000000,  1.390241)
 111 Cr ( 0.000000,  0.000000, -2.489285)
 112 Cr ( 0.000000,  0.000000, -2.088576)
 113 Co ( 0.000000,  0.000000,  1.177047)
 114 Al ( 0.000000,  0.000000, -0.017718)
 115 Co ( 0.000000,  0.000000,  1.334925)
 116 Co ( 0.000000,  0.000000,  1.322790)
 117 Ni ( 0.000000,  0.000000,  0.330087)
 118 Cr ( 0.000000,  0.000000, -1.937821)
 119 Cr ( 0.000000,  0.000000, -1.806312)
 120 Ni ( 0.000000,  0.000000,  0.199340)
 121 Ni ( 0.000000,  0.000000,  0.256944)
 122 Co ( 0.000000,  0.000000,  1.386068)
 123 Ni ( 0.000000,  0.000000,  0.164978)
 124 Cr ( 0.000000,  0.000000,  1.779729)

Energy contributions relative to reference atoms: (reference = -4275894.041763)

Kinetic:       +312.288440
Potential:     -340.525334
External:        +0.000000
XC:            -980.320258
Entropy (-ST):   -5.567889
Local:          +42.755202
--------------------------
Free energy:   -971.369838
Extrapolated:  -968.585894

Dipole-layer corrected work functions: 4.918914, 4.943001 eV

Spin contamination: 43.774530 electrons
Showing all kpts
                      Up                     Down
 Kpt  Band  Eigenvalues  Occupancy  Eigenvalues  Occupancy
  0   587     -0.05224    0.99592      0.84882    0.02898
  0   588     -0.04072    0.99543      0.85785    0.02654
  0   589     -0.03504    0.99516      0.86351    0.02512
  0   590     -0.02524    0.99467      0.87305    0.02288

  1   587     -0.02777    0.99480      0.84148    0.03111
  1   588     -0.01998    0.99438      0.85272    0.02790
  1   589     -0.00543    0.99351      0.86112    0.02571
  1   590      0.00281    0.99295      0.87310    0.02287


Fermi level: 0.49764

No gap

Forces in eV/Ang:
  0 Fe   -0.02913    0.39042    0.51142
  1 Cr    0.24337    0.54874   -0.31615
  2 Co   -0.22027   -0.06745    0.28868
  3 Cr   -0.44191    0.54869   -0.80825
  4 Cr   -0.38755    0.42966   -0.32832
  5 Ni   -0.00792   -0.10169   -0.10092
  6 Co    0.36708    0.22638   -0.18441
  7 Co   -0.07292    0.26690    0.01775
  8 Ni   -0.16314    0.08684   -0.27907
  9 Fe    0.26755   -0.31935   -0.16247
 10 Cr    0.24273    0.12472   -0.54109
 11 Co    0.22914    0.10542    0.94114
 12 Cr   -1.49577    0.18435   -0.29336
 13 Al   -0.07386   -0.10076   -1.48171
 14 Cr    0.90154    0.06558   -0.12107
 15 Ni    0.24586   -0.31886    0.33513
 16 Co   -0.47421   -0.41270    0.31699
 17 Cr   -0.62416    0.45030   -0.21316
 18 Co    0.45943    0.28614    0.35059
 19 Co   -0.14322    0.61999    0.09787
 20 Al    0.59061   -1.00853   -0.79092
 21 Ni   -0.23818   -0.08814   -0.21205
 22 Cr    0.38964   -0.26426   -0.16063
 23 Co   -0.05614   -0.39826    0.01827
 24 Co   -0.04765   -0.28886   -0.09820
 25 Ni   -0.35205   -0.26209    0.37859
 26 Cr   -0.24672   -0.00601   -0.38369
 27 Cr   -0.65362    0.04604   -0.41350
 28 Al    0.46216   -0.29970    0.11343
 29 Fe    0.51689   -0.23294    0.32083
 30 Ni   -0.36356   -0.25827    0.16330
 31 Fe   -0.00972   -0.40985   -0.19090
 32 Fe   -0.09923    0.12703   -0.04788
 33 Fe    0.20476    0.42881    0.35035
 34 Ni    0.36247   -0.16430    0.24649
 35 Fe   -0.36865   -0.35840    0.20098
 36 Al   -0.55522    0.34632   -0.42432
 37 Cr    0.85125   -0.12177   -0.22675
 38 Fe   -0.19572   -0.56995    0.83187
 39 Fe    0.18961   -0.14878    0.00484
 40 Ni    0.28447    0.38703   -0.09886
 41 Fe    0.16478    0.64530   -0.39077
 42 Co   -0.21900    0.06356    0.87696
 43 Fe    0.30823    0.55594    0.73682
 44 Ni   -0.14555    0.16381    0.40444
 45 Fe    0.26577    0.17536    0.14616
 46 Cr   -0.26735   -0.16484   -0.24834
 47 Fe    0.11676   -0.02387    0.28399
 48 Ni    0.05295   -0.33857   -0.18397
 49 Fe    0.53871   -0.80708   -0.21119
 50 Fe   -0.12090   -0.06701   -0.23735
 51 Cr   -0.15644    0.11181    0.21080
 52 Cr   -0.40635   -0.12074    0.73856
 53 Co   -0.01846    0.14005   -0.29504
 54 Cr   -0.06997   -0.23115   -0.48718
 55 Co   -0.07271    0.17001   -0.24811
 56 Fe   -0.04496   -0.38295    0.20694
 57 Cr    0.07991   -0.03146   -0.23759
 58 Ni    0.17369   -0.02371   -0.04340
 59 Fe    0.08434    0.11955    0.22301
 60 Ni   -0.03222    0.01624    0.00826
 61 Fe    0.14584    0.24439    0.27893
 62 Co   -0.01378    0.20697   -0.04942
 63 Ni    0.12572    0.14031   -0.14872
 64 Ni   -0.28730    0.30128   -0.17383
 65 Ni    0.07992    0.31771   -0.35184
 66 Co    0.19175    0.06900   -0.09353
 67 Co    0.03657    0.07565    0.21255
 68 Fe   -0.05439   -0.08702    0.16905
 69 Ni   -0.34732   -0.00851    0.12865
 70 Fe    0.08115    0.01796   -0.45404
 71 Ni    0.07345   -0.18247    0.32244
 72 Fe    0.20572   -0.47080   -0.10979
 73 Fe   -0.51085   -0.22623    0.25046
 74 Ni    0.05819   -0.27097   -0.44518
 75 Cr   -0.07311    0.40753    0.52831
 76 Fe    0.01353   -0.13805    0.21351
 77 Ni    0.36651   -0.20124    0.07390
 78 Ni   -0.23108   -0.16670    0.34624
 79 Co   -0.01299    0.43945   -0.09205
 80 Ni   -0.17041    0.27440   -0.13268
 81 Fe    0.08835    0.17510    0.15185
 82 Ni   -0.05980    0.10989   -0.08588
 83 Cr    0.41952   -0.13647    0.17862
 84 Co   -0.14691   -0.09853   -0.28203
 85 Ni    0.09323   -0.08728    0.33160
 86 Co    0.22028   -0.02650    0.31249
 87 Fe   -0.33176    0.13516    0.14651
 88 Fe   -0.09781    0.00195    0.01439
 89 Cr    0.23873    0.51967   -0.37084
 90 Ni   -0.09390   -0.24430   -0.05247
 91 Ni    0.16331   -0.11256   -0.30725
 92 Cr    0.03482    0.05275    0.18866
 93 Fe    0.22852    0.36827    0.09988
 94 Cr   -0.60987    0.21088   -0.44656
 95 Cr    0.94164   -0.31092    0.36053
 96 Co    0.03722   -0.31899   -0.30459
 97 Fe    0.40282   -0.24005    0.25369
 98 Fe   -0.31225   -0.02952    0.41433
 99 Al   -0.83222    0.76156   -1.04386
100 Cr    0.01843   -0.10571    0.12061
101 Cr    0.02965    0.13585    0.10591
102 Co    0.46439   -0.00707   -0.51681
103 Co   -0.48629    0.13400   -0.29380
104 Cr    0.56233    0.58044    0.63743
105 Ni   -0.15127    0.32991    0.41768
106 Co    0.17283   -0.08935    0.11685
107 Co    0.05927   -0.31828   -0.23975
108 Co   -0.34565    0.04555   -0.07167
109 Fe   -0.43532    0.33204   -0.04929
110 Co    0.16942    0.00397   -0.16590
111 Cr   -0.94944    0.17022    0.23228
112 Cr    0.97183   -0.04217    0.27815
113 Co    0.12521   -0.03369   -0.07633
114 Al    0.21691   -0.95857    0.58614
115 Co    0.16855   -0.20105   -0.25129
116 Co   -0.00276   -0.07975   -0.27665
117 Ni   -0.07617    0.21111    0.20199
118 Cr   -0.44361    0.55528   -0.08450
119 Cr    0.31349   -0.30208    0.11696
120 Ni    0.33204   -0.34244    0.02923
121 Ni    0.05988   -0.43185   -0.02978
122 Co   -0.02897   -0.20996   -0.02704
123 Ni   -0.18933    0.26619   -0.41282
124 Cr   -0.33816   -0.55291    0.78012

Timing:                              incl.     excl.
-----------------------------------------------------------
Forces:                             47.751    47.751   0.2% |
Hamiltonian:                         1.774     0.018   0.0% |
 Atomic:                             0.449     0.002   0.0% |
  XC Correction:                     0.448     0.448   0.0% |
 Calculate atomic Hamiltonians:      0.628     0.628   0.0% |
 Communicate:                        0.056     0.056   0.0% |
 Initialize Hamiltonian:             0.001     0.001   0.0% |
 Poisson:                            0.134     0.134   0.0% |
 XC 3D grid:                         0.487     0.487   0.0% |
LCAO initialization:               367.048     0.635   0.0% |
 LCAO eigensolver:                  27.248     0.026   0.0% |
  Calculate projections:             0.000     0.000   0.0% |
  DenseAtomicCorrection:             0.000     0.000   0.0% |
  Distribute overlap matrix:        13.047    13.047   0.0% |
  Orbital Layouts:                  14.113    14.113   0.0% |
  Potential matrix:                  0.007     0.007   0.0% |
  Sum over cells:                    0.055     0.055   0.0% |
 LCAO to grid:                     335.946   335.946   1.2% |
 Set positions (LCAO WFS):           3.219     2.806   0.0% |
  Basic WFS set positions:           0.004     0.004   0.0% |
  Basis functions set positions:     0.001     0.001   0.0% |
  P tci:                             0.001     0.001   0.0% |
  ST tci:                            0.171     0.171   0.0% |
  mktci:                             0.236     0.236   0.0% |
PWDescriptor:                        0.111     0.111   0.0% |
SCF-cycle:                       27830.060     1.672   0.0% |
 Davidson:                       27128.577  7000.027  24.8% |---------|
  Apply H:                         486.752   478.100   1.7% ||
   HMM T:                            8.652     8.652   0.0% |
  Subspace diag:                  2444.165     0.087   0.0% |
   calc_h_matrix:                 1055.788   629.750   2.2% ||
    Apply H:                       426.038   416.588   1.5% ||
     HMM T:                          9.450     9.450   0.0% |
   diagonalize:                    247.546   247.546   0.9% |
   rotate_psi:                    1140.744  1140.744   4.0% |-|
  calc. matrices:                 5709.077  4898.027  17.3% |------|
   Apply H:                        811.051   793.546   2.8% ||
    HMM T:                          17.505    17.505   0.1% |
  diagonalize:                    8993.670  8993.670  31.8% |------------|
  rotate_psi:                     2494.886  2494.886   8.8% |---|
 Density:                          396.241     0.006   0.0% |
  Atomic density matrices:           4.681     4.681   0.0% |
  Mix:                             187.424   187.424   0.7% |
  Multipole moments:                 0.136     0.136   0.0% |
  Pseudo density:                  203.993   203.984   0.7% |
   Symmetrize density:               0.009     0.009   0.0% |
 Hamiltonian:                      281.575     2.072   0.0% |
  Atomic:                           55.750     0.259   0.0% |
   XC Correction:                   55.491    55.491   0.2% |
  Calculate atomic Hamiltonians:   153.415   153.415   0.5% |
  Communicate:                       7.801     7.801   0.0% |
  Poisson:                           5.915     5.915   0.0% |
  XC 3D grid:                       56.622    56.622   0.2% |
 Orthonormalize:                    21.994     0.001   0.0% |
  calc_s_matrix:                     2.774     2.774   0.0% |
  inverse-cholesky:                  1.162     1.162   0.0% |
  projections:                      13.435    13.435   0.0% |
  rotate_psi_s:                      4.623     4.623   0.0% |
Set symmetry:                        0.001     0.001   0.0% |
Other:                               8.708     8.708   0.0% |
-----------------------------------------------------------
Total:                                     28255.453 100.0%

Date: Thu Apr 20 21:15:10 2023
