
  ___ ___ ___ _ _ _  
 |   |   |_  | | | | 
 | | | | | . | | | | 
 |__ |  _|___|_____|  22.8.0
 |___|_|             

User:   c.zeng@d0017
Date:   Fri Apr 14 02:42:19 2023
Arch:   x86_64
Pid:    31005
CWD:    /home/c.zeng/projects/hea-corrosion/hea-mlp/data-curation/bulk-md/dft-jobs/87
Python: 3.8.1
gpaw:   /home/c.zeng/usr/installs/gpaw/source/gpaw-22.8.0/gpaw
_gpaw:  /home/c.zeng/usr/installs/gpaw/source/gpaw-22.8.0/
        _gpaw.cpython-38-x86_64-linux-gnu.so
ase:    /home/c.zeng/.local/lib/python3.8/site-packages/ase-3.22.1-py3.8.egg/ase (version 3.22.1)
numpy:  /shared/centos7/python/3.8.1/lib/python3.8/site-packages/numpy (version 1.17.4)
scipy:  /shared/centos7/python/3.8.1/lib/python3.8/site-packages/scipy (version 1.4.1)
libxc:  4.2.3
units:  Angstrom and eV
cores: 30
OpenMP: False
OMP_NUM_THREADS: 1

Input parameters:
  convergence: {energy: 0.0001}
  kpts: [2 2 2]
  maxiter: 666
  mode: {ecut: 350.0,
         name: pw}
  occupations: {fixmagmom: False,
                name: fermi-dirac,
                width: 0.1}
  spinpol: True
  xc: PBE

System changes: positions, numbers, cell, pbc, initial_charges, initial_magmoms 

Initialize ...

species:
  Al:
    name: Aluminium
    id: 0292cae29f5d6237e50f6abdd43a7bdd
    Z: 13.0
    valence: 3
    core: 10
    charge: 0.0
    file: /home/c.zeng/usr/data/gpaw-setups-0.9.20000/Al.PBE.gz
    compensation charges: {type: gauss,
                           rc: 0.34,
                           lmax: 2}
    cutoffs: {filter: 1.91,
              core: 2.36}
    valence states:
      #              energy  rcut
      - 3s(2.00)    -7.753   1.085
      - 3p(1.00)    -2.712   1.085
      -  s          19.459   1.085
      -  p          24.499   1.085
      -  d           0.000   1.085
  
    # Using partial waves for Al as LCAO basis

  Fe:
    name: Iron
    id: 37abbd8d6c3c35915a9b583b742da910
    Z: 26.0
    valence: 8
    core: 18
    charge: 0.0
    file: /home/c.zeng/usr/data/gpaw-setups-0.9.20000/Fe.PBE.gz
    compensation charges: {type: gauss,
                           rc: 0.33,
                           lmax: 2}
    cutoffs: {filter: 2.06,
              core: 2.67}
    valence states:
      #              energy  rcut
      - 4s(2.00)    -5.291   1.164
      - 4p(0.00)    -1.326   1.058
      - 3d(6.00)    -7.505   1.058
      -  s          21.920   1.164
      -  p          25.885   1.058
      -  d          19.706   1.058
  
    # Using partial waves for Fe as LCAO basis

  Cr:
    name: Chromium
    id: 33f258bda2ca9f93018e70263a35547b
    Z: 24.0
    valence: 6
    core: 18
    charge: 0.0
    file: /home/c.zeng/usr/data/gpaw-setups-0.9.20000/Cr.PBE.gz
    compensation charges: {type: gauss,
                           rc: 0.35,
                           lmax: 2}
    cutoffs: {filter: 2.14,
              core: 3.04}
    valence states:
      #              energy  rcut
      - 4s(1.00)    -4.007   1.164
      - 4p(0.00)    -0.989   1.217
      - 3d(5.00)    -2.913   1.111
      -  s          23.205   1.164
      -  p          26.223   1.217
      -  d          24.299   1.111
  
    # Using partial waves for Cr as LCAO basis

  Ni:
    name: Nickel
    id: 0d9f38a9d6e76a2886f07bb4381f212b
    Z: 28.0
    valence: 16
    core: 12
    charge: 0.0
    file: /home/c.zeng/usr/data/gpaw-setups-0.9.20000/Ni.PBE.gz
    compensation charges: {type: gauss,
                           rc: 0.36,
                           lmax: 2}
    cutoffs: {filter: 2.14,
              core: 1.98}
    valence states:
      #              energy  rcut
      - 4s(2.00)    -5.642   1.164
      - 3p(6.00)   -71.394   1.207
      - 4p(0.00)    -1.226   1.207
      - 3d(8.00)    -8.875   1.138
      -  s          21.570   1.164
      -  d          18.337   1.138
  
    # Using partial waves for Ni as LCAO basis

  Co:
    name: Cobalt
    id: 339d20d5b0b93d2de9531a1bee871d91
    Z: 27.0
    valence: 9
    core: 18
    charge: 0.0
    file: /home/c.zeng/usr/data/gpaw-setups-0.9.20000/Co.PBE.gz
    compensation charges: {type: gauss,
                           rc: 0.32,
                           lmax: 2}
    cutoffs: {filter: 1.87,
              core: 2.55}
    valence states:
      #              energy  rcut
      - 4s(2.00)    -5.469   1.005
      - 4p(0.00)    -1.277   1.058
      - 3d(7.00)    -8.205   1.005
      -  s          21.742   1.005
      -  p          25.934   1.058
      -  d          19.007   1.005
  
    # Using partial waves for Co as LCAO basis

Reference energy: -3235165.067515  # eV

Spin-polarized calculation.
Magnetic moment: 121.100000

Convergence criteria:
 Maximum [total energy] change in last 3 cyles: 0.0001 eV / electron
 Maximum integral of absolute [dens]ity change: 0.0001 electrons / valence electron
 Maximum integral of absolute [eigenst]ate change: 4e-08 eV^2 / valence electron
 Maximum number of scf [iter]ations: 666
 (Square brackets indicate name in SCF output, whereas a 'c' in
 the SCF output indicates the quantity has converged.)

Symmetries present (total): 1

  ( 1  0  0)
  ( 0  1  0)
  ( 0  0  1)

8 k-points: 2 x 2 x 2 Monkhorst-Pack grid
4 k-points in the irreducible part of the Brillouin zone
       k-points in crystal coordinates                weights
   0:     0.25000000   -0.25000000   -0.25000000          2/8
   1:     0.25000000   -0.25000000    0.25000000          2/8
   2:     0.25000000    0.25000000   -0.25000000          2/8
   3:     0.25000000    0.25000000    0.25000000          2/8

Wave functions: Plane wave expansion
  Cutoff energy: 350.000 eV
  Number of coefficients (min, max): 19084, 19084
  Pulay-stress correction: 0.000000 eV/Ang^3 (de/decut=0.000000)
  Using FFTW library
  ScaLapack parameters: grid=1x1, blocksize=None
  Wavefunction extrapolation:
    Improved wavefunction reuse through dual PAW basis 

Occupation numbers: Fermi-Dirac:
  width: 0.1000  # eV
 

Eigensolver
   Davidson(niter=2) 

Densities:
  Coarse grid: 48*48*48 grid
  Fine grid: 96*96*96 grid
  Total Charge: 0.000000 

Density mixing:
  Method: difference
  Backend: pulay
  Linear mixing parameter: 0.05
  old densities: 5
  Damping of long wavelength oscillations: 50 

Hamiltonian:
  XC and Coulomb potentials evaluated on a 96*96*96 grid
  Using the PBE Exchange-Correlation functional
  External potential:
    NoExternalPotential
 

XC parameters: PBE with 2 nearest neighbor stencil

Memory estimate:
  Process memory now: 238.75 MiB
  Calculator: 986.43 MiB
    Density: 5.59 MiB
      Arrays: 2.05 MiB
      Localized functions: 2.72 MiB
      Mixer: 0.82 MiB
    Hamiltonian: 1.61 MiB
      Arrays: 1.52 MiB
      XC: 0.00 MiB
      Poisson: 0.00 MiB
      vbar: 0.08 MiB
    Wavefunctions: 979.23 MiB
      Arrays psit_nG: 726.83 MiB
      Eigensolver: 242.60 MiB
      Projections: 4.67 MiB
      Projectors: 0.74 MiB
      PW-descriptor: 4.39 MiB

Total number of cores used: 30
Parallelization over k-points: 2
Domain decomposition: 5 x 3 x 1

Number of atoms: 108
Number of atomic orbitals: 933
Number of bands in calculation: 624
Number of valence electrons: 912
Bands to converge: occupied

... initialized

Initializing position-dependent things.

Density initialized from atomic densities
Creating initial wave functions:
  624 bands from LCAO basis set

        .--------------------------.  
       /|  Cr      Ni        Ni    |  
      / |      Fe    Co       Ni   |  
     /  |   Cr           Ni     NiAl  
    /   | Fe    Co  Al     Fel     |  
   /Fe  Co  FeAl     Cr            |  
  /    Cr   Co   Co Fe CoFe  CrCr  |  
 *      CrNi  Fe   Fe CCo Ni    Al |  
 |      |AlAl   NiNiFe   NiFeAl  Cr|  
 |      | Fe Cr     CoCr   Fe Cr   |  
 |     Co  Fe NiCr  Cr CFe    CFe  |  
 |     Al Co CrAlNiNi   NiNi  Ni Co|  
 |      |CoAl   NiCoCo   CrCrCo   Al  
 |  FeCr.-Ni--------NiACr---Fe-----.  
 |     /    Co  Al     CNi        /   
 |    Ni      Al Fe     CoAlFe Co/    
 |   / CrCAl       FAl          /     
 | Fe      Al                  /      
 | /           Al             /       
 |/             Ni           /        
 Al-------------------------*         

Positions:
   0 Al    10.912485    0.011341    0.060740    ( 0.0000,  0.0000,  0.0000)
   1 Fe    11.176836    1.655657    1.930694    ( 0.0000,  0.0000,  2.0000)
   2 Cr     2.071400   10.827230    1.724300    ( 0.0000,  0.0000,  0.0000)
   3 Cr     1.910901    1.583655   -0.215957    ( 0.0000,  0.0000,  0.0000)
   4 Ni     3.650101   10.934649   10.756359    ( 0.0000,  0.0000,  1.5000)
   5 Al     3.536775    2.128929    1.498091    ( 0.0000,  0.0000,  0.0000)
   6 Al     5.657755   10.897109    1.584238    ( 0.0000,  0.0000,  0.0000)
   7 Ni     5.477923    1.793702   10.872839    ( 0.0000,  0.0000,  1.5000)
   8 Fe     7.356740    0.059450   10.652771    ( 0.0000,  0.0000,  2.0000)
   9 Co     7.313149    1.881015    2.000367    ( 0.0000,  0.0000,  2.1000)
  10 Ni     8.947883   -0.164381    1.540202    ( 0.0000,  0.0000,  1.5000)
  11 Fe     9.042968    1.874060   10.781970    ( 0.0000,  0.0000,  2.0000)
  12 Fe    11.029227    3.493348   -0.078547    ( 0.0000,  0.0000,  2.0000)
  13 Co    10.871094    5.351470    1.674929    ( 0.0000,  0.0000,  2.1000)
  14 Cr     1.659839    3.529779    1.798893    ( 0.0000,  0.0000,  0.0000)
  15 Co     1.749743    5.426404   10.882834    ( 0.0000,  0.0000,  2.1000)
  16 Fe     3.502009    3.885423   -0.299472    ( 0.0000,  0.0000,  2.0000)
  17 Al     3.846110    5.460923    1.495907    ( 0.0000,  0.0000,  0.0000)
  18 Fe     5.601579    3.760088    1.984308    ( 0.0000,  0.0000,  2.0000)
  19 Fe     5.640662    5.554221    0.124734    ( 0.0000,  0.0000,  2.0000)
  20 Cr     7.257388    3.509895   10.851659    ( 0.0000,  0.0000,  0.0000)
  21 Co     7.348381    5.515218    1.794899    ( 0.0000,  0.0000,  2.1000)
  22 Al     9.198407    3.705484    1.851595    ( 0.0000,  0.0000,  0.0000)
  23 Fe     8.982983    5.419942   -0.113097    ( 0.0000,  0.0000,  2.0000)
  24 Ni    10.676792    7.024031   -0.037502    ( 0.0000,  0.0000,  1.5000)
  25 Al    -0.061780    9.039325    1.947213    ( 0.0000,  0.0000,  0.0000)
  26 Ni     1.642743    7.279896    1.719288    ( 0.0000,  0.0000,  1.5000)
  27 Cr     1.899402    8.887373   10.818974    ( 0.0000,  0.0000,  0.0000)
  28 Fe     3.639190    7.267387   -0.081681    ( 0.0000,  0.0000,  2.0000)
  29 Ni     3.696217    8.738356    1.867215    ( 0.0000,  0.0000,  1.5000)
  30 Ni     5.624672    7.280853    2.000437    ( 0.0000,  0.0000,  1.5000)
  31 Ni     5.075305    9.065994   10.726907    ( 0.0000,  0.0000,  1.5000)
  32 Co     7.332910    7.268231    0.319447    ( 0.0000,  0.0000,  2.1000)
  33 Cr     7.157628    9.035089    1.948682    ( 0.0000,  0.0000,  0.0000)
  34 Fe     9.075529    7.351901    1.966489    ( 0.0000,  0.0000,  2.0000)
  35 Ni     8.989971    9.026469   -0.102710    ( 0.0000,  0.0000,  1.5000)
  36 Fe    -0.143820    0.208753    3.736356    ( 0.0000,  0.0000,  2.0000)
  37 Co    10.705058    1.846411    5.371930    ( 0.0000,  0.0000,  2.1000)
  38 Cr     1.974159   10.944214    5.488920    ( 0.0000,  0.0000,  0.0000)
  39 Ni     1.759390    1.543193    3.767313    ( 0.0000,  0.0000,  1.5000)
  40 Al     3.492702   10.882359    3.664104    ( 0.0000,  0.0000,  0.0000)
  41 Al     3.664802    1.912030    5.607955    ( 0.0000,  0.0000,  0.0000)
  42 Cr     5.604192   10.788606    5.355154    ( 0.0000,  0.0000,  0.0000)
  43 Al     5.420170    2.082704    3.652597    ( 0.0000,  0.0000,  0.0000)
  44 Al     7.569809   11.083538    3.618905    ( 0.0000,  0.0000,  0.0000)
  45 Co     7.229028    1.983911    5.512143    ( 0.0000,  0.0000,  2.1000)
  46 Cr     8.744560    0.145140    5.601222    ( 0.0000,  0.0000,  0.0000)
  47 Ni     8.924347    1.981516    3.788721    ( 0.0000,  0.0000,  1.5000)
  48 Fe     0.122485    3.721820    3.655162    ( 0.0000,  0.0000,  2.0000)
  49 Fe    10.856678    5.404543    5.375213    ( 0.0000,  0.0000,  2.0000)
  50 Al     1.563709    3.495348    5.615131    ( 0.0000,  0.0000,  0.0000)
  51 Co     1.930076    5.460412    3.755393    ( 0.0000,  0.0000,  2.1000)
  52 Co     3.476451    3.830653    3.281031    ( 0.0000,  0.0000,  2.1000)
  53 Ni     3.646667    5.377937    5.532731    ( 0.0000,  0.0000,  1.5000)
  54 Ni     5.511167    3.714517    5.418292    ( 0.0000,  0.0000,  1.5000)
  55 Co     5.406684    5.440764    3.853722    ( 0.0000,  0.0000,  2.1000)
  56 Al     7.415010    3.768530    3.721631    ( 0.0000,  0.0000,  0.0000)
  57 Cr     7.378725    5.440843    5.713773    ( 0.0000,  0.0000,  0.0000)
  58 Ni     9.083293    3.605774    5.409572    ( 0.0000,  0.0000,  1.5000)
  59 Cr     9.263160    5.375341    3.605107    ( 0.0000,  0.0000,  0.0000)
  60 Co    -0.008703    7.197075    3.688648    ( 0.0000,  0.0000,  2.1000)
  61 Cr    -0.245558    9.072740    5.358218    ( 0.0000,  0.0000,  0.0000)
  62 Fe     1.666990    7.233463    5.537717    ( 0.0000,  0.0000,  2.0000)
  63 Fe     1.733851    9.055025    3.692310    ( 0.0000,  0.0000,  2.0000)
  64 Al     3.568394    7.233653    3.590204    ( 0.0000,  0.0000,  0.0000)
  65 Ni     3.728054    8.897726    5.553254    ( 0.0000,  0.0000,  1.5000)
  66 Co     5.595392    7.181378    5.336810    ( 0.0000,  0.0000,  2.1000)
  67 Cr     5.410245    9.020117    3.881437    ( 0.0000,  0.0000,  0.0000)
  68 Ni     7.287080    7.156476    3.710032    ( 0.0000,  0.0000,  1.5000)
  69 Ni     7.217627    9.036205    5.536093    ( 0.0000,  0.0000,  1.5000)
  70 Fe     8.803956    7.060400    5.403730    ( 0.0000,  0.0000,  2.0000)
  71 Cr     9.190682    9.015941    3.736033    ( 0.0000,  0.0000,  0.0000)
  72 Co    10.956297   -0.239194    6.929590    ( 0.0000,  0.0000,  2.1000)
  73 Al    10.625371    1.789973    8.825627    ( 0.0000,  0.0000,  0.0000)
  74 Cr     1.804325   10.824360    8.766634    ( 0.0000,  0.0000,  0.0000)
  75 Co     1.771496    1.774400    7.282846    ( 0.0000,  0.0000,  2.1000)
  76 Co     3.750781   10.874002    7.125687    ( 0.0000,  0.0000,  2.1000)
  77 Al     3.683622    1.579730    8.932861    ( 0.0000,  0.0000,  0.0000)
  78 Co     5.503033   10.575444    9.021296    ( 0.0000,  0.0000,  2.1000)
  79 Cr     5.539329    1.789197    7.237311    ( 0.0000,  0.0000,  0.0000)
  80 Ni     7.049413    0.136322    7.304446    ( 0.0000,  0.0000,  1.5000)
  81 Fe     7.309005    1.831803    8.979721    ( 0.0000,  0.0000,  2.0000)
  82 Ni     9.017384   -0.083877    8.878685    ( 0.0000,  0.0000,  1.5000)
  83 Fe     8.948680    1.920157    7.159483    ( 0.0000,  0.0000,  2.0000)
  84 Cr    10.698247    3.561819    7.180305    ( 0.0000,  0.0000,  0.0000)
  85 Cr    10.767317    5.589475    8.979745    ( 0.0000,  0.0000,  0.0000)
  86 Cr     1.745330    3.667013    8.896528    ( 0.0000,  0.0000,  0.0000)
  87 Al     1.793779    5.494654    7.286022    ( 0.0000,  0.0000,  0.0000)
  88 Cr     3.854405    3.606251    7.354688    ( 0.0000,  0.0000,  0.0000)
  89 Al     3.789927    5.748534    9.061743    ( 0.0000,  0.0000,  0.0000)
  90 Co     5.528856    3.791385    9.331762    ( 0.0000,  0.0000,  2.1000)
  91 Ni     5.360787    5.376235    7.319407    ( 0.0000,  0.0000,  1.5000)
  92 Cr     7.323629    3.856639    7.373894    ( 0.0000,  0.0000,  0.0000)
  93 Co     7.366271    5.477932    9.132567    ( 0.0000,  0.0000,  2.1000)
  94 Ni     9.084254    3.714534    9.187415    ( 0.0000,  0.0000,  1.5000)
  95 Fe     9.187634    5.274372    7.225250    ( 0.0000,  0.0000,  2.0000)
  96 Al    -0.158169    7.317019    7.045590    ( 0.0000,  0.0000,  0.0000)
  97 Al    -0.025153    9.229104    8.981144    ( 0.0000,  0.0000,  0.0000)
  98 Fe     1.710374    7.443357    9.156555    ( 0.0000,  0.0000,  2.0000)
  99 Co     2.023975    8.744435    7.187173    ( 0.0000,  0.0000,  2.1000)
 100 Fe     3.585904    7.134872    7.096552    ( 0.0000,  0.0000,  2.0000)
 101 Co     3.750234    8.840565    8.853816    ( 0.0000,  0.0000,  2.1000)
 102 Al     5.653336    7.427320    9.116154    ( 0.0000,  0.0000,  0.0000)
 103 Fe     5.404713    8.921177    7.147820    ( 0.0000,  0.0000,  2.0000)
 104 Co     7.098948    7.239726    7.342625    ( 0.0000,  0.0000,  2.1000)
 105 Ni     7.347308    9.141961    8.975349    ( 0.0000,  0.0000,  1.5000)
 106 Al     8.974559    7.266601    9.156761    ( 0.0000,  0.0000,  0.0000)
 107 Cr     8.925466    9.078438    7.221922    ( 0.0000,  0.0000,  0.0000)

Unit cell:
           periodic     x           y           z      points  spacing
  1. axis:    yes   10.872400    0.000000    0.000000    48     0.2265
  2. axis:    yes    0.000000   10.872400    0.000000    48     0.2265
  3. axis:    yes    0.000000    0.000000   10.872400    48     0.2265

  Lengths:  10.872400  10.872400  10.872400
  Angles:   90.000000  90.000000  90.000000

Effective grid spacing dv^(1/3) = 0.2265

     iter     time        total  log10-change:  magmom
                         energy  eigst   dens
iter:   1 02:46:52  -959.478561                  +121.3865
iter:   2 02:48:55  -849.097413  -0.17  -1.16    +64.0882
iter:   3 02:50:59  -834.855662  -0.84  -1.19    +54.6530
iter:   4 02:53:03  -814.853941  -1.28  -1.25    +50.3488
iter:   5 02:55:06  -805.308626  -1.60  -1.29    +47.8210
iter:   6 02:57:09  -802.737750  -1.34  -1.35    +48.4065
iter:   7 02:59:13  -806.595119  -1.30  -1.44    +48.0364
iter:   8 03:01:17  -796.248040  -1.60  -1.49    +47.9191
iter:   9 03:03:20  -793.689585  -1.99  -1.65    +48.4344
iter:  10 03:05:23  -793.623513  -2.38  -1.74    +49.2128
iter:  11 03:07:27  -793.156455  -2.53  -1.76    +50.5680
iter:  12 03:09:31  -794.775359  -2.33  -1.84    +52.1918
iter:  13 03:11:35  -793.928925  -2.49  -1.85    +52.2269
iter:  14 03:13:38  -794.009361  -2.58  -1.92    +52.9481
iter:  15 03:15:41  -793.935592c -2.81  -1.97    +53.5340
iter:  16 03:17:44  -793.723410  -2.93  -2.01    +53.6021
iter:  17 03:19:48  -793.640887  -3.00  -2.08    +53.8603
iter:  18 03:21:51  -793.703593c -3.07  -2.16    +54.1204
iter:  19 03:23:54  -793.690742c -3.09  -2.22    +54.1540
iter:  20 03:25:58  -793.703744c -3.38  -2.28    +54.2690
iter:  21 03:28:01  -793.763580c -3.31  -2.33    +54.2402
iter:  22 03:30:04  -793.742695c -3.41  -2.35    +54.2395
iter:  23 03:32:07  -793.741934c -3.53  -2.41    +54.1002
iter:  24 03:34:10  -793.756540c -3.69  -2.47    +53.9489
iter:  25 03:36:13  -793.796092c -3.79  -2.52    +53.7946
iter:  26 03:38:36  -793.832038c -3.78  -2.55    +53.5666
iter:  27 03:40:56  -793.862805c -3.84  -2.58    +53.2606
iter:  28 03:42:54  -793.876682c -3.99  -2.61    +53.1441
iter:  29 03:44:53  -793.906326c -4.11  -2.67    +52.8286
iter:  30 03:46:52  -793.941666c -4.12  -2.70    +52.5213
iter:  31 03:48:50  -793.977191c -4.15  -2.74    +52.2065
iter:  32 03:50:48  -794.010072c -4.22  -2.78    +51.8906
iter:  33 03:52:46  -794.036800c -4.21  -2.79    +51.5345
iter:  34 03:54:44  -794.060115c -4.44  -2.84    +51.3622
iter:  35 03:57:17  -794.092892c -4.32  -2.86    +50.9257
iter:  36 03:59:10  -794.116834c -4.50  -2.89    +50.7058
iter:  37 04:01:09  -794.180237c -4.04  -2.93    +50.0605
iter:  38 04:03:08  -794.218724  -4.17  -2.95    +49.6403
iter:  39 04:05:06  -794.262093c -4.09  -2.94    +49.1411
iter:  40 04:07:04  -794.304106c -4.21  -2.95    +48.8295
iter:  41 04:09:05  -794.294664c -5.21  -2.90    +48.9324
iter:  42 04:11:09  -794.387285  -3.65  -2.90    +47.9700
iter:  43 04:13:08  -794.460250  -3.32  -2.83    +46.9457
iter:  44 04:15:11  -794.459119c -4.53  -2.71    +47.3095
iter:  45 04:17:09  -794.452691c -4.61  -2.73    +47.3192
iter:  46 04:19:12  -794.456630c -4.99  -2.72    +47.3839
iter:  47 04:21:16  -794.462083c -5.10  -2.72    +47.4092
iter:  48 04:23:18  -794.455511c -3.80  -2.71    +47.4022
iter:  49 04:25:17  -794.454156c -3.95  -2.64    +47.4216
iter:  50 04:27:16  -794.427234c -4.10  -2.66    +47.3244
iter:  51 04:29:15  -794.411923c -4.39  -2.74    +47.3963
iter:  52 04:31:18  -794.424745c -4.41  -2.75    +47.3452
iter:  53 04:33:21  -794.411640c -4.17  -2.76    +47.3401
iter:  54 04:35:20  -794.452505c -3.94  -2.82    +47.4104
iter:  55 04:37:26  -794.392865c -4.20  -2.76    +47.4224
iter:  56 04:39:26  -794.397835c -4.45  -2.93    +47.4724
iter:  57 04:41:29  -794.411911c -4.30  -2.97    +47.4767
iter:  58 04:43:33  -794.390944c -4.67  -2.96    +47.5166
iter:  59 04:45:33  -794.390980c -4.89  -3.05    +47.5549
iter:  60 04:47:32  -794.388698c -4.98  -3.11    +47.5647
iter:  61 04:49:30  -794.393711c -4.90  -3.14    +47.6186
iter:  62 04:51:29  -794.389348c -4.99  -3.13    +47.6261
iter:  63 04:53:32  -794.389056c -4.91  -3.20    +47.6411
iter:  64 04:55:32  -794.393414c -4.83  -3.22    +47.6396
iter:  65 04:57:35  -794.386027c -5.09  -3.23    +47.6537
iter:  66 04:59:40  -794.388051c -5.18  -3.36    +47.6771
iter:  67 05:01:40  -794.385878c -5.21  -3.37    +47.6681
iter:  68 05:03:44  -794.386140c -5.34  -3.42    +47.6784
iter:  69 05:05:48  -794.386053c -5.66  -3.47    +47.6884
iter:  70 05:07:51  -794.384608c -5.54  -3.51    +47.6966
iter:  71 05:09:55  -794.385422c -5.69  -3.52    +47.6881
iter:  72 05:11:59  -794.384697c -5.91  -3.58    +47.6837
iter:  73 05:14:00  -794.385811c -5.91  -3.60    +47.6993
iter:  74 05:15:58  -794.384978c -5.73  -3.61    +47.6986
iter:  75 05:17:56  -794.384448c -5.84  -3.62    +47.6969
iter:  76 05:19:53  -794.385632c -5.92  -3.66    +47.6943
iter:  77 05:21:48  -794.384504c -5.91  -3.72    +47.7003
iter:  78 05:23:51  -794.385042c -6.10  -3.70    +47.7028
iter:  79 05:25:52  -794.384233c -6.24  -3.75    +47.6927
iter:  80 05:27:51  -794.384875c -6.25  -3.82    +47.6929
iter:  81 05:29:49  -794.385065c -6.41  -3.82    +47.6936
iter:  82 05:31:51  -794.384495c -6.61  -3.83    +47.6952
iter:  83 05:33:50  -794.385226c -6.33  -3.89    +47.6908
iter:  84 05:35:48  -794.384760c -6.49  -3.88    +47.6898
iter:  85 05:37:59  -794.385341c -6.48  -3.91    +47.6960
iter:  86 05:40:00  -794.384919c -6.40  -3.93    +47.6942
iter:  87 05:42:03  -794.384748c -6.34  -3.93    +47.6924
iter:  88 05:44:08  -794.385164c -6.58  -3.94    +47.6882
iter:  89 05:46:11  -794.384850c -6.76  -4.04c   +47.6897
iter:  90 05:48:10  -794.385129c -7.02  -4.03c   +47.6903
iter:  91 05:50:09  -794.384822c -7.04  -4.08c   +47.6873
iter:  92 05:52:07  -794.385045c -7.23  -4.11c   +47.6877
iter:  93 05:54:05  -794.385182c -7.04  -4.12c   +47.6877
iter:  94 05:56:03  -794.384787c -6.74  -4.12c   +47.6885
iter:  95 05:58:07  -794.385305c -6.62  -4.10c   +47.6868
iter:  96 06:00:08  -794.384881c -6.69  -4.11c   +47.6832
iter:  97 06:02:08  -794.385345c -6.67  -4.19c   +47.6856
iter:  98 06:04:28  -794.385050c -6.91  -4.19c   +47.6836
iter:  99 06:06:27  -794.384996c -7.16  -4.25c   +47.6825
iter: 100 06:08:31  -794.385212c -7.23  -4.37c   +47.6799
iter: 101 06:10:36  -794.385094c -7.87c -4.38c   +47.6805

Converged after 101 iterations.

Dipole moment: (34.712511, 1.105667, 49.240516) |e|*Ang

Total magnetic moment: (0.000000, 0.000000, 47.680500)
Local magnetic moments:
   0 Al ( 0.000000,  0.000000,  0.006772)
   1 Fe ( 0.000000,  0.000000,  2.010845)
   2 Cr ( 0.000000,  0.000000, -1.958855)
   3 Cr ( 0.000000,  0.000000,  1.604907)
   4 Ni ( 0.000000,  0.000000,  0.144763)
   5 Al ( 0.000000,  0.000000, -0.017245)
   6 Al ( 0.000000,  0.000000, -0.010977)
   7 Ni ( 0.000000,  0.000000,  0.223215)
   8 Fe ( 0.000000,  0.000000,  2.425565)
   9 Co ( 0.000000,  0.000000,  0.730742)
  10 Ni ( 0.000000,  0.000000,  0.176405)
  11 Fe ( 0.000000,  0.000000,  2.179773)
  12 Fe ( 0.000000,  0.000000,  2.169987)
  13 Co ( 0.000000,  0.000000,  1.103067)
  14 Cr ( 0.000000,  0.000000, -1.798891)
  15 Co ( 0.000000,  0.000000,  1.136453)
  16 Fe ( 0.000000,  0.000000,  2.098816)
  17 Al ( 0.000000,  0.000000, -0.041272)
  18 Fe ( 0.000000,  0.000000,  2.205089)
  19 Fe ( 0.000000,  0.000000,  2.104106)
  20 Cr ( 0.000000,  0.000000, -1.851599)
  21 Co ( 0.000000,  0.000000,  1.171601)
  22 Al ( 0.000000,  0.000000, -0.030953)
  23 Fe ( 0.000000,  0.000000,  2.271379)
  24 Ni ( 0.000000,  0.000000,  0.137786)
  25 Al ( 0.000000,  0.000000, -0.012556)
  26 Ni ( 0.000000,  0.000000,  0.239746)
  27 Cr ( 0.000000,  0.000000, -1.493651)
  28 Fe ( 0.000000,  0.000000,  2.058263)
  29 Ni ( 0.000000,  0.000000,  0.185282)
  30 Ni ( 0.000000,  0.000000,  0.248693)
  31 Ni ( 0.000000,  0.000000,  0.364348)
  32 Co ( 0.000000,  0.000000,  1.247264)
  33 Cr ( 0.000000,  0.000000, -2.278845)
  34 Fe ( 0.000000,  0.000000,  2.065854)
  35 Ni ( 0.000000,  0.000000,  0.174366)
  36 Fe ( 0.000000,  0.000000,  2.233924)
  37 Co ( 0.000000,  0.000000,  0.754953)
  38 Cr ( 0.000000,  0.000000, -1.766126)
  39 Ni ( 0.000000,  0.000000, -0.002311)
  40 Al ( 0.000000,  0.000000, -0.002873)
  41 Al ( 0.000000,  0.000000,  0.008393)
  42 Cr ( 0.000000,  0.000000, -1.752038)
  43 Al ( 0.000000,  0.000000, -0.006893)
  44 Al ( 0.000000,  0.000000, -0.010258)
  45 Co ( 0.000000,  0.000000,  0.247287)
  46 Cr ( 0.000000,  0.000000, -1.723257)
  47 Ni ( 0.000000,  0.000000,  0.132367)
  48 Fe ( 0.000000,  0.000000,  2.018006)
  49 Fe ( 0.000000,  0.000000,  1.606540)
  50 Al ( 0.000000,  0.000000, -0.026327)
  51 Co ( 0.000000,  0.000000,  1.394620)
  52 Co ( 0.000000,  0.000000,  1.055584)
  53 Ni ( 0.000000,  0.000000,  0.385392)
  54 Ni ( 0.000000,  0.000000,  0.172462)
  55 Co ( 0.000000,  0.000000,  1.433250)
  56 Al ( 0.000000,  0.000000, -0.014957)
  57 Cr ( 0.000000,  0.000000, -0.341933)
  58 Ni ( 0.000000,  0.000000,  0.098577)
  59 Cr ( 0.000000,  0.000000, -1.615962)
  60 Co ( 0.000000,  0.000000,  1.124559)
  61 Cr ( 0.000000,  0.000000, -0.891099)
  62 Fe ( 0.000000,  0.000000,  1.941810)
  63 Fe ( 0.000000,  0.000000,  2.342208)
  64 Al ( 0.000000,  0.000000, -0.029942)
  65 Ni ( 0.000000,  0.000000,  0.359335)
  66 Co ( 0.000000,  0.000000,  1.033114)
  67 Cr ( 0.000000,  0.000000,  1.700019)
  68 Ni ( 0.000000,  0.000000,  0.340400)
  69 Ni ( 0.000000,  0.000000,  0.119326)
  70 Fe ( 0.000000,  0.000000,  1.728548)
  71 Cr ( 0.000000,  0.000000,  0.917258)
  72 Co ( 0.000000,  0.000000,  0.233282)
  73 Al ( 0.000000,  0.000000, -0.016679)
  74 Cr ( 0.000000,  0.000000, -1.878524)
  75 Co ( 0.000000,  0.000000, -0.350121)
  76 Co ( 0.000000,  0.000000,  0.291268)
  77 Al ( 0.000000,  0.000000, -0.002813)
  78 Co ( 0.000000,  0.000000,  1.450387)
  79 Cr ( 0.000000,  0.000000, -1.510244)
  80 Ni ( 0.000000,  0.000000,  0.155194)
  81 Fe ( 0.000000,  0.000000,  2.231230)
  82 Ni ( 0.000000,  0.000000,  0.169396)
  83 Fe ( 0.000000,  0.000000,  1.739760)
  84 Cr ( 0.000000,  0.000000, -0.272844)
  85 Cr ( 0.000000,  0.000000, -1.495548)
  86 Cr ( 0.000000,  0.000000, -1.630408)
  87 Al ( 0.000000,  0.000000, -0.019545)
  88 Cr ( 0.000000,  0.000000,  1.943973)
  89 Al ( 0.000000,  0.000000, -0.042308)
  90 Co ( 0.000000,  0.000000,  1.204513)
  91 Ni ( 0.000000,  0.000000,  0.148140)
  92 Cr ( 0.000000,  0.000000, -0.859613)
  93 Co ( 0.000000,  0.000000,  1.093078)
  94 Ni ( 0.000000,  0.000000,  0.255949)
  95 Fe ( 0.000000,  0.000000,  0.634127)
  96 Al ( 0.000000,  0.000000, -0.029289)
  97 Al ( 0.000000,  0.000000, -0.002266)
  98 Fe ( 0.000000,  0.000000,  1.767630)
  99 Co ( 0.000000,  0.000000,  1.200219)
 100 Fe ( 0.000000,  0.000000,  2.044586)
 101 Co ( 0.000000,  0.000000,  1.212286)
 102 Al ( 0.000000,  0.000000, -0.045150)
 103 Fe ( 0.000000,  0.000000,  2.347236)
 104 Co ( 0.000000,  0.000000,  1.009349)
 105 Ni ( 0.000000,  0.000000,  0.248918)
 106 Al ( 0.000000,  0.000000, -0.025540)
 107 Cr ( 0.000000,  0.000000,  1.248508)

Energy contributions relative to reference atoms: (reference = -3235165.067515)

Kinetic:       +424.951549
Potential:     -381.866884
External:        +0.000000
XC:            -866.509648
Entropy (-ST):   -3.954240
Local:          +31.017010
--------------------------
Free energy:   -796.362214
Extrapolated:  -794.385094

Spin contamination: 30.394964 electrons
Showing only first 2 kpts
                      Up                     Down
 Kpt  Band  Eigenvalues  Occupancy  Eigenvalues  Occupancy
  0   454      9.07335    0.99267      9.86495    0.04709
  0   455      9.09303    0.99109      9.88396    0.03926
  0   456      9.10275    0.99019      9.90006    0.03361
  0   457      9.11926    0.98845      9.90906    0.03081

  1   454      9.07815    0.99231      9.86605    0.04660
  1   455      9.08909    0.99143      9.87148    0.04424
  1   456      9.10107    0.99035      9.89661    0.03475
  1   457      9.12091    0.98826      9.91204    0.02993


Fermi level: 9.56419

No gap

Forces in eV/Ang:
  0 Al   -0.91548   -0.13293   -0.28462
  1 Fe   -1.33002    0.58630   -0.89692
  2 Cr   -1.51073   -0.10751   -0.18257
  3 Cr   -1.75089    1.27860   -0.51815
  4 Ni    0.17536   -1.04795    0.15197
  5 Al    1.95300   -1.01441    0.69862
  6 Al   -1.58813    0.15832    0.47058
  7 Ni    0.12022    0.50970   -0.31302
  8 Fe   -0.40651   -0.30231    0.24051
  9 Co   -0.36619    0.52534   -1.72855
 10 Ni    0.62536    1.20994    1.55620
 11 Fe    0.12945   -0.40780    1.22952
 12 Fe   -0.30393    0.52452   -0.09700
 13 Co    0.67247    0.72017    0.69385
 14 Cr   -1.08688    1.40183   -0.06417
 15 Co   -0.25964    0.29243   -0.57131
 16 Fe    0.14740   -1.61730   -0.18013
 17 Al   -1.86244    0.15190    2.08450
 18 Fe   -0.06316    0.03262   -1.48655
 19 Fe    0.88137   -0.04230   -1.38199
 20 Cr    0.01773    0.34942    0.47166
 21 Co    0.11705   -0.67491    1.06078
 22 Al   -0.04014   -1.76480   -1.32908
 23 Fe    0.17180   -0.26664    1.87084
 24 Ni    1.24379    1.86639    0.60532
 25 Al    0.74966    0.34361   -1.21020
 26 Ni    0.51776   -0.66524    0.54748
 27 Cr   -0.01762    0.93148    0.04725
 28 Fe   -0.24426    0.24515    0.93523
 29 Ni   -0.48119    1.79128   -0.12415
 30 Ni   -1.12959   -0.89337   -0.60869
 31 Ni    2.38658   -0.13768    2.10959
 32 Co   -0.24288    0.44056   -1.27925
 33 Cr    1.19916   -0.46765   -0.56196
 34 Fe   -0.17331   -1.25547   -0.62758
 35 Ni    0.70333    0.14871    0.33980
 36 Fe   -0.31507   -1.55413   -0.16889
 37 Co    0.67363   -0.75726    0.96482
 38 Cr   -1.95634   -1.89696    2.04863
 39 Ni    0.95254    2.34245   -0.56200
 40 Al    2.43919   -0.94457   -0.30212
 41 Al   -0.09385    0.02957   -0.95633
 42 Cr   -0.92964    0.58404   -0.02881
 43 Al    0.18236   -0.90128    0.20846
 44 Al   -1.57986   -1.48927   -1.18587
 45 Co   -0.93883   -0.59879    0.38529
 46 Cr    2.21051   -0.72273    1.08521
 47 Ni    2.07121   -0.12037   -1.41669
 48 Fe   -0.31478   -0.83183   -0.27691
 49 Fe   -0.28382    0.14474    0.31195
 50 Al    2.22545    0.35591   -1.50756
 51 Co   -1.26179    0.07421   -0.55942
 52 Co    0.61297   -0.76923    1.30616
 53 Ni   -0.30569   -0.37512   -0.60989
 54 Ni   -0.56567   -0.15956    0.65412
 55 Co    0.45090    0.06401   -1.60175
 56 Al   -1.47115    0.27070   -0.07184
 57 Cr   -1.37186   -0.05146   -0.71266
 58 Ni    0.09594    1.26950    0.89248
 59 Cr   -0.00926    1.93430    0.72614
 60 Co    0.25542   -0.39589   -0.13222
 61 Cr    0.80009    0.27912   -0.71964
 62 Fe    1.01002   -0.19061   -1.99226
 63 Fe    0.01288   -0.01825    0.43126
 64 Al   -0.12544   -0.51069    1.11248
 65 Ni   -1.08808    1.02663   -1.13561
 66 Co   -1.06244   -0.38099    1.56778
 67 Cr    1.22703    0.73170   -1.45133
 68 Ni    0.05664    0.12151   -0.67139
 69 Ni    0.80761   -0.25646   -0.49385
 70 Fe    1.72459    0.65735    0.55039
 71 Cr   -1.66505    0.17639    1.21922
 72 Co   -0.50391    1.38602    0.67031
 73 Al    1.16898   -0.94778    0.84265
 74 Cr    0.71633   -0.49119    0.49234
 75 Co   -0.05346    0.01035    0.05312
 76 Co   -0.14719   -1.01099   -0.08421
 77 Al    1.07722    1.24489    0.37463
 78 Co   -0.80948    1.41447   -0.10067
 79 Cr   -0.00482    1.29912    0.53610
 80 Ni    1.21829   -1.45895   -0.51267
 81 Fe   -0.61980    0.52633    0.32298
 82 Ni    0.57849    1.20946    0.28191
 83 Fe   -0.16276   -0.32055    0.06695
 84 Cr   -0.61314    0.96330    0.83288
 85 Cr    0.89554   -1.73849    0.89681
 86 Cr    0.23810   -0.91182    0.78009
 87 Al   -0.15009    0.30507   -0.44850
 88 Cr   -0.74694    0.60368    0.66991
 89 Al   -1.02567   -1.51683    0.00079
 90 Co    0.09153   -0.59638   -1.09709
 91 Ni    1.03670    0.72499   -0.13817
 92 Cr   -0.15010   -0.91926   -0.24785
 93 Co   -1.04447   -0.36043   -0.58022
 94 Ni   -0.08749   -0.55695   -1.09966
 95 Fe    0.07018    0.82911    0.56993
 96 Al   -0.07552   -0.57158    0.93055
 97 Al   -0.35173   -1.07203   -0.17298
 98 Fe   -0.05772   -1.31403   -0.56779
 99 Co   -1.65223    1.90697    0.36459
100 Fe    1.10288    0.12267    0.21126
101 Co   -1.33118    1.11161   -0.16239
102 Al    0.55988   -0.68396    0.70898
103 Fe    0.94321    1.00237    0.01758
104 Co    1.37752   -0.30724   -1.40705
105 Ni   -0.67843   -0.58312    0.45489
106 Al   -1.13686    0.64328   -0.83918
107 Cr   -0.17905    0.19971   -1.19604

Timing:                              incl.     excl.
-----------------------------------------------------------
Forces:                             20.007    20.007   0.2% |
Hamiltonian:                         0.861     0.007   0.0% |
 Atomic:                             0.357     0.074   0.0% |
  XC Correction:                     0.284     0.284   0.0% |
 Calculate atomic Hamiltonians:      0.363     0.363   0.0% |
 Communicate:                        0.010     0.010   0.0% |
 Initialize Hamiltonian:             0.000     0.000   0.0% |
 Poisson:                            0.001     0.001   0.0% |
 XC 3D grid:                         0.123     0.123   0.0% |
LCAO initialization:               138.735     1.171   0.0% |
 LCAO eigensolver:                  20.458     0.039   0.0% |
  Calculate projections:             0.470     0.470   0.0% |
  DenseAtomicCorrection:             0.673     0.673   0.0% |
  Distribute overlap matrix:         1.689     1.689   0.0% |
  Orbital Layouts:                  12.184    12.184   0.1% |
  Potential matrix:                  3.861     3.861   0.0% |
  Sum over cells:                    1.543     1.543   0.0% |
 LCAO to grid:                     115.169   115.169   0.9% |
 Set positions (LCAO WFS):           1.936     0.763   0.0% |
  Basic WFS set positions:           0.003     0.003   0.0% |
  Basis functions set positions:     0.001     0.001   0.0% |
  P tci:                             0.668     0.668   0.0% |
  ST tci:                            0.223     0.223   0.0% |
  mktci:                             0.279     0.279   0.0% |
PWDescriptor:                        0.088     0.088   0.0% |
SCF-cycle:                       12355.462     0.529   0.0% |
 Davidson:                       12110.136  2375.371  19.0% |-------|
  Apply H:                          99.558    95.676   0.8% |
   HMM T:                            3.883     3.883   0.0% |
  Subspace diag:                   889.544     0.134   0.0% |
   calc_h_matrix:                  359.283   208.651   1.7% ||
    Apply H:                       150.631   146.253   1.2% |
     HMM T:                          4.378     4.378   0.0% |
   diagonalize:                    157.843   157.843   1.3% ||
   rotate_psi:                     372.284   372.284   3.0% ||
  calc. matrices:                 1734.646  1551.453  12.4% |----|
   Apply H:                        183.192   175.409   1.4% ||
    HMM T:                           7.783     7.783   0.1% |
  diagonalize:                    6187.300  6187.300  49.4% |-------------------|
  rotate_psi:                      823.717   823.717   6.6% |--|
 Density:                          137.243     0.004   0.0% |
  Atomic density matrices:           2.493     2.493   0.0% |
  Mix:                              60.562    60.562   0.5% |
  Multipole moments:                 0.049     0.049   0.0% |
  Pseudo density:                   74.134    74.129   0.6% |
   Symmetrize density:               0.005     0.005   0.0% |
 Hamiltonian:                       98.001     0.578   0.0% |
  Atomic:                           37.320     9.057   0.1% |
   XC Correction:                   28.264    28.264   0.2% |
  Calculate atomic Hamiltonians:    47.641    47.641   0.4% |
  Communicate:                       0.358     0.358   0.0% |
  Poisson:                           0.086     0.086   0.0% |
  XC 3D grid:                       12.017    12.017   0.1% |
 Orthonormalize:                     9.554     0.002   0.0% |
  calc_s_matrix:                     1.278     1.278   0.0% |
  inverse-cholesky:                  0.597     0.597   0.0% |
  projections:                       5.728     5.728   0.0% |
  rotate_psi_s:                      1.949     1.949   0.0% |
Set symmetry:                        0.001     0.001   0.0% |
Other:                               3.602     3.602   0.0% |
-----------------------------------------------------------
Total:                                     12518.756 100.0%

Date: Fri Apr 14 06:10:58 2023
