
  ___ ___ ___ _ _ _  
 |   |   |_  | | | | 
 | | | | | . | | | | 
 |__ |  _|___|_____|  22.8.0
 |___|_|             

User:   c.zeng@d0013
Date:   Wed Apr 19 09:54:43 2023
Arch:   x86_64
Pid:    255793
CWD:    /home/c.zeng/projects/hea-corrosion/hea-mlp/data-curation/surface-mcmc/dft-jobs/188
Python: 3.8.1
gpaw:   /home/c.zeng/usr/installs/gpaw/source/gpaw-22.8.0/gpaw
_gpaw:  /home/c.zeng/usr/installs/gpaw/source/gpaw-22.8.0/
        _gpaw.cpython-38-x86_64-linux-gnu.so
ase:    /home/c.zeng/.local/lib/python3.8/site-packages/ase-3.22.1-py3.8.egg/ase (version 3.22.1)
numpy:  /home/c.zeng/.local/lib/python3.8/site-packages/numpy (version 1.24.2)
scipy:  /home/c.zeng/.local/lib/python3.8/site-packages/scipy (version 1.10.1)
libxc:  4.2.3
units:  Angstrom and eV
cores: 30
OpenMP: False
OMP_NUM_THREADS: 1

Input parameters:
  convergence: {energy: 0.0001}
  kpts: [2 2 1]
  maxiter: 666
  mode: {ecut: 350.0,
         name: pw}
  occupations: {fixmagmom: False,
                name: fermi-dirac,
                width: 0.1}
  poissonsolver: {dipolelayer: xy}
  spinpol: True
  symmetry: {point_group: False}
  xc: PBE

System changes: positions, numbers, cell, pbc, initial_charges, initial_magmoms 

Initialize ...

species:
  Ni:
    name: Nickel
    id: 0d9f38a9d6e76a2886f07bb4381f212b
    Z: 28.0
    valence: 16
    core: 12
    charge: 0.0
    file: /home/c.zeng/usr/data/gpaw-setups-0.9.20000/Ni.PBE.gz
    compensation charges: {type: gauss,
                           rc: 0.36,
                           lmax: 2}
    cutoffs: {filter: 2.14,
              core: 1.98}
    valence states:
      #              energy  rcut
      - 4s(2.00)    -5.642   1.164
      - 3p(6.00)   -71.394   1.207
      - 4p(0.00)    -1.226   1.207
      - 3d(8.00)    -8.875   1.138
      -  s          21.570   1.164
      -  d          18.337   1.138
  
    # Using partial waves for Ni as LCAO basis

  Cr:
    name: Chromium
    id: 33f258bda2ca9f93018e70263a35547b
    Z: 24.0
    valence: 6
    core: 18
    charge: 0.0
    file: /home/c.zeng/usr/data/gpaw-setups-0.9.20000/Cr.PBE.gz
    compensation charges: {type: gauss,
                           rc: 0.35,
                           lmax: 2}
    cutoffs: {filter: 2.14,
              core: 3.04}
    valence states:
      #              energy  rcut
      - 4s(1.00)    -4.007   1.164
      - 4p(0.00)    -0.989   1.217
      - 3d(5.00)    -2.913   1.111
      -  s          23.205   1.164
      -  p          26.223   1.217
      -  d          24.299   1.111
  
    # Using partial waves for Cr as LCAO basis

  Al:
    name: Aluminium
    id: 0292cae29f5d6237e50f6abdd43a7bdd
    Z: 13.0
    valence: 3
    core: 10
    charge: 0.0
    file: /home/c.zeng/usr/data/gpaw-setups-0.9.20000/Al.PBE.gz
    compensation charges: {type: gauss,
                           rc: 0.34,
                           lmax: 2}
    cutoffs: {filter: 1.91,
              core: 2.36}
    valence states:
      #              energy  rcut
      - 3s(2.00)    -7.753   1.085
      - 3p(1.00)    -2.712   1.085
      -  s          19.459   1.085
      -  p          24.499   1.085
      -  d           0.000   1.085
  
    # Using partial waves for Al as LCAO basis

  Co:
    name: Cobalt
    id: 339d20d5b0b93d2de9531a1bee871d91
    Z: 27.0
    valence: 9
    core: 18
    charge: 0.0
    file: /home/c.zeng/usr/data/gpaw-setups-0.9.20000/Co.PBE.gz
    compensation charges: {type: gauss,
                           rc: 0.32,
                           lmax: 2}
    cutoffs: {filter: 1.87,
              core: 2.55}
    valence states:
      #              energy  rcut
      - 4s(2.00)    -5.469   1.005
      - 4p(0.00)    -1.277   1.058
      - 3d(7.00)    -8.205   1.005
      -  s          21.742   1.005
      -  p          25.934   1.058
      -  d          19.007   1.005
  
    # Using partial waves for Co as LCAO basis

  Fe:
    name: Iron
    id: 37abbd8d6c3c35915a9b583b742da910
    Z: 26.0
    valence: 8
    core: 18
    charge: 0.0
    file: /home/c.zeng/usr/data/gpaw-setups-0.9.20000/Fe.PBE.gz
    compensation charges: {type: gauss,
                           rc: 0.33,
                           lmax: 2}
    cutoffs: {filter: 2.06,
              core: 2.67}
    valence states:
      #              energy  rcut
      - 4s(2.00)    -5.291   1.164
      - 4p(0.00)    -1.326   1.058
      - 3d(6.00)    -7.505   1.058
      -  s          21.920   1.164
      -  p          25.885   1.058
      -  d          19.706   1.058
  
    # Using partial waves for Fe as LCAO basis

Reference energy: -3927717.499734  # eV

Spin-polarized calculation.
Magnetic moment: 149.100000

Convergence criteria:
 Maximum [total energy] change in last 3 cyles: 0.0001 eV / electron
 Maximum integral of absolute [dens]ity change: 0.0001 electrons / valence electron
 Maximum integral of absolute [eigenst]ate change: 4e-08 eV^2 / valence electron
 Maximum number of scf [iter]ations: 666
 (Square brackets indicate name in SCF output, whereas a 'c' in
 the SCF output indicates the quantity has converged.)

Symmetries present (total): 1

  ( 1  0  0)
  ( 0  1  0)
  ( 0  0  1)

4 k-points: 2 x 2 x 1 Monkhorst-Pack grid
2 k-points in the irreducible part of the Brillouin zone
       k-points in crystal coordinates                weights
   0:     0.25000000   -0.25000000    0.00000000          2/4
   1:     0.25000000    0.25000000    0.00000000          2/4

Wave functions: Plane wave expansion
  Cutoff energy: 350.000 eV
  Number of coefficients (min, max): 60143, 60161
  Pulay-stress correction: 0.000000 eV/Ang^3 (de/decut=0.000000)
  Using FFTW library
  ScaLapack parameters: grid=1x1, blocksize=None
  Wavefunction extrapolation:
    Improved wavefunction reuse through dual PAW basis 

Occupation numbers: Fermi-Dirac:
  width: 0.1000  # eV
 

Eigensolver
   Davidson(niter=2) 

Densities:
  Coarse grid: 56*56*128 grid
  Fine grid: 112*112*256 grid
  Total Charge: 0.000000 

Density mixing:
  Method: difference
  Backend: pulay
  Linear mixing parameter: 0.05
  old densities: 5
  Damping of long wavelength oscillations: 50 

Hamiltonian:
  XC and Coulomb potentials evaluated on a 112*112*256 grid
  Using the PBE Exchange-Correlation functional
  External potential:
    NoExternalPotential
 

XC parameters: PBE with 2 nearest neighbor stencil

Memory estimate:
  Process memory now: 377.66 MiB
  Calculator: 2209.57 MiB
    Density: 18.91 MiB
      Arrays: 7.39 MiB
      Localized functions: 8.57 MiB
      Mixer: 2.95 MiB
    Hamiltonian: 5.75 MiB
      Arrays: 5.49 MiB
      XC: 0.00 MiB
      Poisson: 0.00 MiB
      vbar: 0.26 MiB
    Wavefunctions: 2184.92 MiB
      Arrays psit_nG: 1382.48 MiB
      Eigensolver: 782.37 MiB
      Projections: 3.31 MiB
      Projectors: 1.16 MiB
      PW-descriptor: 15.59 MiB

Total number of cores used: 30
Parallelization over k-points: 2
Domain decomposition: 1 x 3 x 5

Number of atoms: 125
Number of atomic orbitals: 1116
Number of bands in calculation: 753
Number of valence electrons: 1098
Bands to converge: occupied

... initialized

Initializing position-dependent things.

Density initialized from atomic densities
Creating initial wave functions:
  753 bands from LCAO basis set

                                                               
                                                               
                                                               
                                                               
                          Ni          Fe     Ni    Co          
                            Fe    Co    Cr    Co    Fe         
                                                               
                       Al    CNi   FNi   CCr   NCr   Cr        
                   Fe   CFe    Al    Co    Ni    Cr            
        Ni                       Cr                            
               Fe   FAl  CFCr  CCo   NFe    Cr    Ni           
          Ni    Fe   NAl   NCo   CCr   FNi   Cr                
           Ni    Co    Fe Fe  FeCo  Co       Al   Fe           
                Al    Co    ACo   FAl   CFe   Co    Cr         
            Ni   AFe   ANi    Al    Co    Ni                   
        Fe    Co    Ni    Co Ni Co Cr    Ni    Ni    Co        
             Co    Al   CFe    Cr    Fe    Ni    Ni            
         Cr    Cr   CAl   AFe   CFe   Ni     Fe                
                Fe          Fe                                 
               Cr     Cr          Co    Co                     
           Cr    Cr    Ni    Al     Ni                         
                                                               
                                                               
                                                               
                                                               
                                                               

Positions:
   0 Ni    12.638410    1.500640   10.473714    ( 0.0000,  0.0000,  0.0000)
   1 Cr     2.522937    1.464200   10.500925    ( 0.0000,  0.0000,  0.0000)
   2 Cr     5.053910    1.499679   10.110352    ( 0.0000,  0.0000,  0.0000)
   3 Ni     7.557679    1.474012   10.651858    ( 0.0000,  0.0000,  2.0000)
   4 Al    10.063098    1.480808   10.510582    ( 0.0000,  0.0000,  0.0000)
   5 Co    13.876684    3.701125   10.575129    ( 0.0000,  0.0000,  2.1000)
   6 Cr     3.765065    3.676845   10.563946    ( 0.0000,  0.0000,  2.1000)
   7 Cr     6.296333    3.639618   10.618367    ( 0.0000,  0.0000,  1.5000)
   8 Fe     8.839996    3.605986   10.672787    ( 0.0000,  0.0000,  2.0000)
   9 Co    11.352953    3.684964   10.549299    ( 0.0000,  0.0000,  1.5000)
  10 Fe    15.161276    5.824565   10.498577    ( 0.0000,  0.0000,  1.5000)
  11 Co     5.025278    5.836147   10.574572    ( 0.0000,  0.0000,  1.5000)
  12 Al     7.581095    5.809082   10.450437    ( 0.0000,  0.0000,  0.0000)
  13 Cr    10.115365    5.826084   10.611674    ( 0.0000,  0.0000,  0.0000)
  14 Ni    12.590175    5.838835   10.516863    ( 0.0000,  0.0000,  0.0000)
  15 Ni    16.389239    7.986063   10.611380    ( 0.0000,  0.0000,  2.0000)
  16 Co     6.336726    8.007129   10.633278    ( 0.0000,  0.0000,  2.0000)
  17 Cr     8.860477    8.041112   10.593798    ( 0.0000,  0.0000,  2.0000)
  18 Cr    11.352548    8.028917   10.631722    ( 0.0000,  0.0000,  2.1000)
  19 Ni    13.851584    7.983364   10.505680    ( 0.0000,  0.0000,  2.0000)
  20 Co    17.745314   10.116747   10.074659    ( 0.0000,  0.0000,  0.0000)
  21 Ni     7.636083   10.176440   10.530337    ( 0.0000,  0.0000,  1.5000)
  22 Cr    10.089221   10.193890   10.552029    ( 0.0000,  0.0000,  2.1000)
  23 Ni    12.605039   10.182297   10.523703    ( 0.0000,  0.0000,  2.1000)
  24 Ni    15.064141   10.171206   10.358709    ( 0.0000,  0.0000,  0.0000)
  25 Fe     6.302566   10.804692   12.567941    ( 0.0000,  0.0000,  0.0000)
  26 Co     8.851494   10.898072   12.591335    ( 0.0000,  0.0000,  2.0000)
  27 Fe     5.076351    0.044825   12.536856    ( 0.0000,  0.0000,  0.0000)
  28 Al    13.909654   10.893450   12.608008    ( 0.0000,  0.0000,  1.5000)
  29 Fe    16.352727   10.867270   12.510966    ( 0.0000,  0.0000,  0.0000)
  30 Cr     1.347779    2.234477   12.606775    ( 0.0000,  0.0000,  0.0000)
  31 Cr     3.839937    2.209280   12.530604    ( 0.0000,  0.0000,  2.1000)
  32 Al     6.320342    2.230959   12.618927    ( 0.0000,  0.0000,  0.0000)
  33 Fe     8.782195    2.170075   12.671851    ( 0.0000,  0.0000,  0.0000)
  34 Fe    11.261675    2.259871   12.615258    ( 0.0000,  0.0000,  0.0000)
  35 Co     2.575110    4.392020   12.601990    ( 0.0000,  0.0000,  1.5000)
  36 Al     5.033696    4.384579   12.606305    ( 0.0000,  0.0000,  2.1000)
  37 Fe     7.564379    4.363294   12.629230    ( 0.0000,  0.0000,  2.0000)
  38 Cr    10.052143    4.418954   12.638359    ( 0.0000,  0.0000,  2.0000)
  39 Fe    12.588573    4.408563   12.597529    ( 0.0000,  0.0000,  2.0000)
  40 Al     3.825223    6.539248   12.601110    ( 0.0000,  0.0000,  0.0000)
  41 Al     6.285427    6.556719   12.584144    ( 0.0000,  0.0000,  0.0000)
  42 Cr     8.820218    6.557845   12.561307    ( 0.0000,  0.0000,  2.0000)
  43 Al    11.348710    6.570170   12.593977    ( 0.0000,  0.0000,  2.0000)
  44 Ni    13.909132    6.548655   12.525790    ( 0.0000,  0.0000,  0.0000)
  45 Cr    17.626555    8.699096   12.604162    ( 0.0000,  0.0000,  0.0000)
  46 Al     7.618200    8.725899   12.612235    ( 0.0000,  0.0000,  1.5000)
  47 Fe    10.087472    8.739109   12.626412    ( 0.0000,  0.0000,  1.5000)
  48 Cr    12.639844    8.757204   12.602842    ( 0.0000,  0.0000,  2.1000)
  49 Co    15.116728    8.758580   12.586668    ( 0.0000,  0.0000,  0.0000)
  50 Fe     1.234973    0.732950   14.688585    ( 0.0000,  0.0000,  2.1000)
  51 Co     3.756660    0.776875   14.661198    ( 0.0000,  0.0000,  2.0000)
  52 Ni     6.353364    0.739044   14.685297    ( 0.0000,  0.0000,  2.0000)
  53 Co     8.843197    0.707504   14.667421    ( 0.0000,  0.0000,  1.5000)
  54 Co    11.308149    0.724265   14.667803    ( 0.0000,  0.0000,  2.1000)
  55 Ni     2.562577    2.918904   14.681980    ( 0.0000,  0.0000,  0.0000)
  56 Fe     5.047514    2.876224   14.673262    ( 0.0000,  0.0000,  2.0000)
  57 Ni     7.587094    2.887588   14.717057    ( 0.0000,  0.0000,  2.1000)
  58 Al    10.059655    2.923122   14.721842    ( 0.0000,  0.0000,  2.1000)
  59 Co    12.581173    2.902022   14.699768    ( 0.0000,  0.0000,  2.0000)
  60 Al     3.748435    5.096399   14.714592    ( 0.0000,  0.0000,  2.0000)
  61 Co     6.262723    5.033089   14.723016    ( 0.0000,  0.0000,  0.0000)
  62 Co     8.857244    5.082347   14.703790    ( 0.0000,  0.0000,  1.5000)
  63 Al    11.325799    5.051271   14.695776    ( 0.0000,  0.0000,  0.0000)
  64 Fe    13.876183    5.054495   14.660318    ( 0.0000,  0.0000,  2.1000)
  65 Ni     5.052567    7.279870   14.704259    ( 0.0000,  0.0000,  2.0000)
  66 Ni     7.623886    7.324091   14.709690    ( 0.0000,  0.0000,  0.0000)
  67 Co    10.091768    7.250248   14.682744    ( 0.0000,  0.0000,  1.5000)
  68 Fe    12.609710    7.231017   14.738808    ( 0.0000,  0.0000,  0.0000)
  69 Cr    15.165859    7.289737   14.678898    ( 0.0000,  0.0000,  0.0000)
  70 Cr     6.290924    9.483294   14.711891    ( 0.0000,  0.0000,  0.0000)
  71 Cr     8.799610    9.526006   14.705668    ( 0.0000,  0.0000,  2.0000)
  72 Ni    11.328536    9.524116   14.771390    ( 0.0000,  0.0000,  0.0000)
  73 Ni    13.905777    9.475951   14.693692    ( 0.0000,  0.0000,  2.0000)
  74 Ni    16.402593    9.490986   14.643939    ( 0.0000,  0.0000,  1.5000)
  75 Co    12.559989    1.424700   16.738106    ( 0.0000,  0.0000,  0.0000)
  76 Ni     2.519368    1.415325   16.732030    ( 0.0000,  0.0000,  2.1000)
  77 Co     5.058418    1.426623   16.724633    ( 0.0000,  0.0000,  2.1000)
  78 Fe     7.588593    1.431310   16.719262    ( 0.0000,  0.0000,  1.5000)
  79 Fe    10.080282    1.446990   16.712775    ( 0.0000,  0.0000,  2.1000)
  80 Ni    13.906517    3.636537   16.770219    ( 0.0000,  0.0000,  0.0000)
  81 Fe     3.830827    3.632472   16.750288    ( 0.0000,  0.0000,  2.1000)
  82 Al     6.307138    3.580352   16.791881    ( 0.0000,  0.0000,  2.0000)
  83 Co     8.837036    3.649693   16.760356    ( 0.0000,  0.0000,  1.5000)
  84 Cr    11.316239    3.632713   16.757567    ( 0.0000,  0.0000,  0.0000)
  85 Cr    15.124416    5.819298   16.794875    ( 0.0000,  0.0000,  1.5000)
  86 Fe     5.069314    5.825133   16.817741    ( 0.0000,  0.0000,  2.0000)
  87 Fe     7.591000    5.828182   16.790531    ( 0.0000,  0.0000,  1.5000)
  88 Co    10.100423    5.832104   16.795022    ( 0.0000,  0.0000,  2.1000)
  89 Fe    12.591819    5.816097   16.796049    ( 0.0000,  0.0000,  1.5000)
  90 Cr    16.393148    8.022678   16.766491    ( 0.0000,  0.0000,  0.0000)
  91 Co     6.343718    8.036435   16.784337    ( 0.0000,  0.0000,  2.1000)
  92 Al     8.869407    8.031059   16.785541    ( 0.0000,  0.0000,  1.5000)
  93 Al    11.350811    8.006966   16.850353    ( 0.0000,  0.0000,  0.0000)
  94 Cr    13.848456    8.043231   16.790120    ( 0.0000,  0.0000,  1.5000)
  95 Cr    17.664975   10.214378   16.704673    ( 0.0000,  0.0000,  1.5000)
  96 Co     7.577805   10.200216   16.752871    ( 0.0000,  0.0000,  0.0000)
  97 Fe    10.073950   10.240525   16.814835    ( 0.0000,  0.0000,  0.0000)
  98 Co    12.634825   10.205702   16.792879    ( 0.0000,  0.0000,  2.1000)
  99 Ni    15.128204   10.222671   16.717207    ( 0.0000,  0.0000,  2.1000)
 100 Ni     6.295996   10.895646   18.725164    ( 0.0000,  0.0000,  2.1000)
 101 Ni     2.531103    0.010731   18.808028    ( 0.0000,  0.0000,  0.0000)
 102 Fe    11.354102   10.922176   18.789712    ( 0.0000,  0.0000,  2.0000)
 103 Ni    13.893055   10.918669   18.754371    ( 0.0000,  0.0000,  1.5000)
 104 Co    16.407321   10.902924   18.697866    ( 0.0000,  0.0000,  2.0000)
 105 Ni     1.242615    2.122916   18.813664    ( 0.0000,  0.0000,  0.0000)
 106 Fe     3.777583    2.163727   18.725751    ( 0.0000,  0.0000,  2.0000)
 107 Al     6.316494    2.112186   18.751024    ( 0.0000,  0.0000,  1.5000)
 108 Cr     8.821019    2.135678   18.724841    ( 0.0000,  0.0000,  1.5000)
 109 Cr    11.346910    2.127920   18.772482    ( 0.0000,  0.0000,  0.0000)
 110 Ni    15.041821    4.389824   19.217240    ( 0.0000,  0.0000,  0.0000)
 111 Fe     5.122707    4.340730   18.947661    ( 0.0000,  0.0000,  0.0000)
 112 Fe     7.593428    4.391189   18.757570    ( 0.0000,  0.0000,  0.0000)
 113 Al    10.074524    4.387147   18.958463    ( 0.0000,  0.0000,  0.0000)
 114 Co    12.568500    4.377597   18.792178    ( 0.0000,  0.0000,  2.1000)
 115 Cr    16.401190    6.592941   18.854788    ( 0.0000,  0.0000,  0.0000)
 116 Al     6.333626    6.597181   18.774830    ( 0.0000,  0.0000,  2.1000)
 117 Ni     8.832315    6.612293   18.776708    ( 0.0000,  0.0000,  2.0000)
 118 Ni    11.357713    6.592056   18.807559    ( 0.0000,  0.0000,  1.5000)
 119 Cr    13.843649    6.600634   18.766083    ( 0.0000,  0.0000,  2.1000)
 120 Fe    17.672908    8.762055   18.787393    ( 0.0000,  0.0000,  1.5000)
 121 Fe     7.589466    8.752057   18.793733    ( 0.0000,  0.0000,  0.0000)
 122 Co    10.105305    8.758351   18.804653    ( 0.0000,  0.0000,  2.1000)
 123 Cr    12.605169    8.778467   18.827842    ( 0.0000,  0.0000,  2.0000)
 124 Co    15.105383    8.773889   18.800925    ( 0.0000,  0.0000,  1.5000)

Unit cell:
           periodic     x           y           z      points  spacing
  1. axis:    yes   12.614700    0.000000    0.000000    56     0.1951
  2. axis:    yes    6.308550   10.926700    0.000000    56     0.1951
  3. axis:    no     0.000000    0.000000   29.353100   128     0.2293

  Lengths:  12.614700  12.617075  29.353100
  Angles:   90.000000  90.000000  59.999934

Effective grid spacing dv^(1/3) = 0.2160

     iter     time        total  log10-change:  magmom
                         energy  eigst   dens
iter:   1 10:03:59 -1069.771871                  +148.4811
iter:   2 10:07:10 -1742.699304  +0.32  -1.14    +109.3396
iter:   3 10:10:22 -1892.725683  +0.92  -0.83    +80.1333
iter:   4 10:13:31 -1113.715778  -0.14  -0.79    +51.3616
iter:   5 10:16:41  -986.438263  -1.17  -1.16    +38.3534
iter:   6 10:19:52  -968.797593  -1.65  -1.28    +30.9051
iter:   7 10:23:03  -952.356701  -1.81  -1.30    +29.7155
iter:   8 10:26:15 -1074.218139  -0.73  -1.33    +31.2373
iter:   9 10:29:26 -1193.898965  -0.74  -1.08    +30.0713
iter:  10 10:32:37  -937.254622  -1.28  -0.99    +25.7921
iter:  11 10:35:48  -919.283197  -1.74  -1.38    +27.7166
iter:  12 10:38:58  -930.906398  -1.46  -1.49    +29.0866
iter:  13 10:42:10  -934.947770  -1.64  -1.45    +29.6556
iter:  14 10:45:20  -946.568945  -1.56  -1.44    +31.3123
iter:  15 10:48:31  -960.603776  -1.60  -1.42    +33.0930
iter:  16 10:51:42  -926.123960  -1.59  -1.34    +32.7777
iter:  17 10:54:53  -923.815204  -1.84  -1.54    +33.1557
iter:  18 10:58:04  -922.448221  -2.11  -1.60    +35.9523
iter:  19 11:01:16  -917.459564  -2.01  -1.63    +37.6763
iter:  20 11:04:27  -916.774786  -2.35  -1.67    +38.7667
iter:  21 11:07:38  -914.658029  -2.66  -1.68    +40.9824
iter:  22 11:10:50  -914.688626  -2.73  -1.74    +44.1067
iter:  23 11:14:01  -915.417387  -2.78  -1.76    +45.5835
iter:  24 11:17:11  -915.828919  -2.62  -1.77    +48.5849
iter:  25 11:20:21  -917.743855  -2.50  -1.77    +51.3616
iter:  26 11:23:32  -919.682590  -2.30  -1.77    +53.4420
iter:  27 11:26:44  -927.195571  -2.26  -1.75    +55.1816
iter:  28 11:29:55  -916.932134  -2.38  -1.60    +56.2354
iter:  29 11:33:07  -916.252808  -2.78  -1.84    +59.1976
iter:  30 11:36:19  -917.366151  -2.89  -1.89    +62.3551
iter:  31 11:39:31  -916.400787  -3.12  -1.88    +64.0818
iter:  32 11:42:44  -916.960931  -3.01  -1.94    +66.4788
iter:  33 11:45:56  -920.725626  -2.64  -1.97    +69.2788
iter:  34 11:49:08  -933.966276  -2.15  -1.86    +68.9489
iter:  35 11:52:21  -919.166269  -2.32  -1.57    +70.8844
iter:  36 11:55:34  -920.568175  -2.59  -2.03    +71.2492
iter:  37 11:58:47  -920.645138  -2.48  -1.96    +71.5264
iter:  38 12:02:00  -918.426774  -2.86  -1.98    +72.5702
iter:  39 12:05:13  -918.549109  -3.45  -2.15    +73.5876
iter:  40 12:08:24  -918.896778  -3.26  -2.17    +75.0285
iter:  41 12:11:37  -918.656164  -3.60  -2.16    +74.9660
iter:  42 12:14:50  -919.096316  -3.30  -2.22    +75.6719
iter:  43 12:18:02  -919.542562  -3.04  -2.21    +76.2096
iter:  44 12:21:16  -919.905868  -2.78  -2.23    +76.1719
iter:  45 12:24:28  -919.179809  -3.10  -2.19    +75.9635
iter:  46 12:27:41  -924.643694  -2.74  -2.39    +76.1336
iter:  47 12:30:54  -919.166519  -3.02  -1.82    +76.2455
iter:  48 12:34:07  -919.015968  -3.56  -2.42    +76.5865
iter:  49 12:37:19  -919.068361  -4.17  -2.50    +76.5880
iter:  50 12:40:32  -919.179221  -3.66  -2.52    +76.4973
iter:  51 12:43:45  -919.242028  -3.84  -2.57    +76.6441
iter:  52 12:46:58  -920.427243  -3.26  -2.59    +76.6837
iter:  53 12:50:10  -919.642057  -3.30  -2.18    +76.6784
iter:  54 12:53:23  -919.328161  -3.77  -2.38    +76.7260
iter:  55 12:56:36  -919.343405  -3.84  -2.74    +76.8665
iter:  56 12:59:47  -919.315064c -4.30  -2.76    +76.9696
iter:  57 13:02:58  -919.342684c -4.33  -2.92    +77.1204
iter:  58 13:06:11  -919.349425c -4.84  -2.95    +77.1791
iter:  59 13:09:23  -919.758777  -3.79  -3.01    +77.4047
iter:  60 13:12:36  -919.395239  -4.14  -2.44    +77.3942
iter:  61 13:15:48  -919.433821  -4.43  -3.00    +77.6703
iter:  62 13:19:00  -919.421594c -5.20  -3.07    +77.6038
iter:  63 13:22:13  -919.436822c -4.61  -3.09    +77.6502
iter:  64 13:25:26  -919.462651c -4.67  -3.12    +77.8653
iter:  65 13:28:39  -919.519733c -4.53  -3.17    +77.9371
iter:  66 13:31:49  -919.532622c -4.36  -2.87    +78.1243
iter:  67 13:35:02  -919.569285c -4.57  -2.96    +78.3233
iter:  68 13:38:15  -919.591155c -5.00  -2.93    +78.2326
iter:  69 13:41:28  -919.613136c -4.31  -2.80    +78.5643
iter:  70 13:44:40  -919.611211c -4.74  -2.97    +78.6304
iter:  71 13:47:52  -920.287931  -3.60  -3.04    +78.8898
iter:  72 13:51:05  -919.669309  -3.87  -2.31    +78.9517
iter:  73 13:54:16  -919.711520  -4.38  -3.01    +79.2877
iter:  74 13:57:29  -919.900241  -4.05  -3.05    +79.5490
iter:  75 14:00:41  -919.812357  -4.64  -2.64    +79.5468
iter:  76 14:03:53  -919.870755c -4.36  -2.80    +79.7967
iter:  77 14:07:06  -919.923739  -3.91  -2.76    +80.1870
iter:  78 14:10:18  -919.977331c -4.06  -2.84    +80.4668
iter:  79 14:13:28  -921.167185  -3.27  -2.82    +80.7635
iter:  80 14:16:41  -920.006573  -3.71  -2.18    +80.7435
iter:  81 14:19:54  -920.038719  -4.28  -2.88    +80.9482
iter:  82 14:23:06  -920.086618c -3.99  -2.84    +81.2445
iter:  83 14:26:18  -920.316064  -3.64  -2.82    +81.4265
iter:  84 14:29:31  -920.332694  -4.37  -2.60    +81.2874
iter:  85 14:32:43  -920.385239c -3.50  -2.54    +81.5703
iter:  86 14:35:55  -920.276960c -3.90  -2.52    +81.6873
iter:  87 14:39:08  -920.118782  -3.96  -2.69    +81.6674
iter:  88 14:42:21  -920.818950  -3.12  -2.83    +81.5588
iter:  89 14:45:34  -920.120901  -3.38  -2.29    +81.5580
iter:  90 14:48:46  -920.069953  -3.78  -2.70    +81.2263
iter:  91 14:51:59  -920.072142c -4.21  -2.87    +81.2266
iter:  92 14:55:12  -920.056384c -4.36  -2.89    +80.8013
iter:  93 14:58:22  -920.073405c -4.57  -3.00    +80.8633
iter:  94 15:01:35  -920.139622c -3.82  -3.15    +80.8107
iter:  95 15:04:47  -920.290396  -3.78  -3.01    +80.6995
iter:  96 15:08:01  -920.103755  -3.74  -2.88    +80.8917
iter:  97 15:11:09  -920.144243  -3.37  -3.11    +81.0760
iter:  98 15:14:12  -920.114707c -4.17  -2.89    +80.8897
iter:  99 15:17:17  -920.106495c -4.83  -3.03    +80.9115
iter: 100 15:20:20  -920.116079c -5.35  -3.06    +80.9308
iter: 101 15:23:24  -920.105050c -5.40  -3.02    +80.9153
iter: 102 15:26:28  -920.116753c -5.31  -3.07    +80.9344
iter: 103 15:29:32  -920.372147  -3.52  -3.03    +80.9293
iter: 104 15:32:36  -920.374928  -3.57  -2.48    +80.9121
iter: 105 15:35:40  -920.093373  -4.01  -2.48    +80.6362
iter: 106 15:38:44  -920.073115  -4.28  -2.92    +80.6165
iter: 107 15:41:48  -920.132293c -4.22  -3.05    +80.6027
iter: 108 15:44:52  -920.180551c -4.14  -3.00    +80.4415
iter: 109 15:47:55  -920.174516c -5.05  -2.90    +80.4247
iter: 110 15:51:31  -920.185525c -4.25  -2.90    +80.4658
iter: 111 15:54:49  -920.257716c -4.04  -2.97    +80.3550
iter: 112 15:57:53  -920.279979c -4.05  -2.83    +80.2875
iter: 113 16:00:57  -921.332895  -3.16  -2.65    +80.3518
iter: 114 16:04:01  -920.181615  -3.40  -2.19    +80.3862
iter: 115 16:07:05  -920.325612  -3.87  -3.00    +80.3484
iter: 116 16:10:09  -920.671676  -3.36  -2.60    +80.4158
iter: 117 16:13:13  -920.134928  -3.74  -2.34    +80.6358
iter: 118 16:16:16  -920.064372  -4.08  -2.72    +80.9311
iter: 119 16:19:20  -920.123605c -4.02  -3.10    +80.9530
iter: 120 16:22:23  -920.073286c -4.50  -2.91    +80.9717
iter: 121 16:25:27  -920.084426c -4.51  -3.24    +81.1481
iter: 122 16:28:31  -920.101881c -4.54  -3.26    +81.1254
iter: 123 16:31:34  -920.159976c -4.26  -3.34    +81.1618
iter: 124 16:34:38  -920.093868c -4.35  -3.06    +81.1004
iter: 125 16:37:43  -920.111571c -4.55  -3.26    +80.9629
iter: 126 16:40:46  -920.103554c -5.09  -3.03    +80.9702
iter: 127 16:43:49  -920.119553c -5.22  -3.26    +80.9273
iter: 128 16:47:12  -920.106212c -5.21  -3.13    +80.9034
iter: 129 16:50:45  -920.101243c -4.67  -3.24    +80.8713
iter: 130 16:53:49  -920.157544c -3.93  -3.03    +80.8634
iter: 131 16:56:52  -920.101974c -4.30  -2.89    +80.9129
iter: 132 16:59:55  -920.091873c -4.64  -2.98    +81.0256
iter: 133 17:02:58  -920.092635c -4.96  -3.11    +81.0345
iter: 134 17:06:01  -920.118792c -4.56  -3.26    +81.1139
iter: 135 17:09:05  -920.125695c -5.13  -3.26    +81.1291
iter: 136 17:12:09  -920.158825c -4.46  -3.21    +81.1272
iter: 137 17:15:13  -920.135393c -4.88  -3.17    +81.1290
iter: 138 17:18:16  -920.154415c -5.04  -3.22    +81.3124
iter: 139 17:21:20  -920.153265c -5.02  -3.21    +81.1872
iter: 140 17:24:23  -920.194554c -4.57  -3.18    +81.1806
iter: 141 17:27:27  -920.125094c -4.49  -3.16    +81.2084
iter: 142 17:30:32  -920.215062c -4.38  -3.23    +81.2025
iter: 143 17:33:36  -920.248292  -4.04  -2.75    +81.2877
iter: 144 17:36:40  -920.123121  -4.63  -2.67    +81.2598
iter: 145 17:39:45  -920.125349  -5.14  -3.36    +81.3175
iter: 146 17:42:49  -920.128397c -5.05  -3.32    +81.2965
iter: 147 17:45:53  -920.126288c -4.67  -3.19    +81.2750
iter: 148 17:49:37  -920.187467c -4.40  -3.14    +81.2700
iter: 149 17:52:47  -920.136383c -4.60  -2.83    +81.1911
iter: 150 17:55:52  -920.121738c -4.95  -3.05    +81.1572
iter: 151 17:58:55  -920.119919c -5.36  -3.36    +81.1643
iter: 152 18:01:59  -920.119230c -5.42  -3.48    +81.1333
iter: 153 18:05:02  -920.120498c -5.88  -3.52    +81.1508
iter: 154 18:08:07  -920.120611c -5.73  -3.51    +81.1572
iter: 155 18:11:12  -920.126549c -5.45  -3.37    +81.1657
iter: 156 18:14:16  -920.121800c -5.66  -3.28    +81.1676
iter: 157 18:17:20  -920.120104c -5.58  -3.49    +81.1480
iter: 158 18:20:23  -920.123288c -5.34  -3.56    +81.1642
iter: 159 18:23:27  -920.119611c -5.49  -3.41    +81.1619
iter: 160 18:26:31  -920.130013c -5.38  -3.54    +81.1489
iter: 161 18:29:35  -920.123348c -5.28  -3.24    +81.1457
iter: 162 18:32:39  -920.119279c -5.76  -3.35    +81.1378
iter: 163 18:35:42  -920.120101c -5.94  -3.67    +81.1562
iter: 164 18:38:48  -920.119574c -5.87  -3.68    +81.1480
iter: 165 18:41:54  -920.120015c -6.43  -3.72    +81.1514
iter: 166 18:45:33  -920.121708c -5.60  -3.77    +81.1476
iter: 167 18:48:52  -920.121518c -5.64  -3.39    +81.1485
iter: 168 18:51:59  -920.119565c -5.93  -3.55    +81.1649
iter: 169 18:55:06  -920.119276c -6.01  -3.88    +81.1635
iter: 170 18:58:13  -920.119716c -5.98  -3.77    +81.1668
iter: 171 19:01:20  -920.118722c -6.47  -3.82    +81.1549
iter: 172 19:04:27  -920.119109c -6.75  -4.00c   +81.1536
iter: 173 19:07:33  -920.119241c -6.87  -4.08c   +81.1498
iter: 174 19:10:40  -920.119406c -6.49  -3.96    +81.1486
iter: 175 19:13:46  -920.119056c -6.97  -4.05c   +81.1513
iter: 176 19:16:53  -920.119395c -6.94  -4.15c   +81.1541
iter: 177 19:19:59  -920.119085c -7.06  -4.07c   +81.1519
iter: 178 19:23:06  -920.119632c -6.87  -4.17c   +81.1537
iter: 179 19:26:13  -920.119324c -6.46  -4.02c   +81.1561
iter: 180 19:29:19  -920.119173c -6.75  -3.86    +81.1581
iter: 181 19:32:26  -920.119294c -6.82  -4.31c   +81.1514
iter: 182 19:35:32  -920.119213c -6.80  -4.24c   +81.1505
iter: 183 19:38:38  -920.119241c -7.05  -3.97    +81.1568
iter: 184 19:41:45  -920.119245c -7.72c -4.37c   +81.1589

Converged after 184 iterations.

Dipole moment: (57.000083, 43.771371, -0.032351) |e|*Ang

Total magnetic moment: (0.000000, 0.000000, 81.158929)
Local magnetic moments:
   0 Ni ( 0.000000,  0.000000,  0.420571)
   1 Cr ( 0.000000,  0.000000,  2.074610)
   2 Cr ( 0.000000,  0.000000, -2.749512)
   3 Ni ( 0.000000,  0.000000,  0.261887)
   4 Al ( 0.000000,  0.000000, -0.051426)
   5 Co ( 0.000000,  0.000000,  1.231337)
   6 Cr ( 0.000000,  0.000000,  0.905414)
   7 Cr ( 0.000000,  0.000000,  1.751972)
   8 Fe ( 0.000000,  0.000000,  2.002752)
   9 Co ( 0.000000,  0.000000,  1.395444)
  10 Fe ( 0.000000,  0.000000,  2.616997)
  11 Co ( 0.000000,  0.000000,  0.783878)
  12 Al ( 0.000000,  0.000000, -0.032327)
  13 Cr ( 0.000000,  0.000000, -1.907992)
  14 Ni ( 0.000000,  0.000000,  0.258678)
  15 Ni ( 0.000000,  0.000000,  0.266851)
  16 Co ( 0.000000,  0.000000,  0.735589)
  17 Cr ( 0.000000,  0.000000,  1.351004)
  18 Cr ( 0.000000,  0.000000,  1.870749)
  19 Ni ( 0.000000,  0.000000,  0.279287)
  20 Co ( 0.000000,  0.000000,  1.840924)
  21 Ni ( 0.000000,  0.000000,  0.279301)
  22 Cr ( 0.000000,  0.000000, -2.069794)
  23 Ni ( 0.000000,  0.000000,  0.000299)
  24 Ni ( 0.000000,  0.000000,  0.370122)
  25 Fe ( 0.000000,  0.000000,  2.444891)
  26 Co ( 0.000000,  0.000000,  0.937217)
  27 Fe ( 0.000000,  0.000000,  2.075708)
  28 Al ( 0.000000,  0.000000, -0.038684)
  29 Fe ( 0.000000,  0.000000,  2.369726)
  30 Cr ( 0.000000,  0.000000, -1.928449)
  31 Cr ( 0.000000,  0.000000, -0.992465)
  32 Al ( 0.000000,  0.000000, -0.018050)
  33 Fe ( 0.000000,  0.000000,  2.120873)
  34 Fe ( 0.000000,  0.000000,  2.340951)
  35 Co ( 0.000000,  0.000000,  0.702970)
  36 Al ( 0.000000,  0.000000, -0.036036)
  37 Fe ( 0.000000,  0.000000,  1.565822)
  38 Cr ( 0.000000,  0.000000, -0.323180)
  39 Fe ( 0.000000,  0.000000,  2.119858)
  40 Al ( 0.000000,  0.000000, -0.012500)
  41 Al ( 0.000000,  0.000000, -0.012292)
  42 Cr ( 0.000000,  0.000000,  0.344123)
  43 Al ( 0.000000,  0.000000, -0.010100)
  44 Ni ( 0.000000,  0.000000,  0.267452)
  45 Cr ( 0.000000,  0.000000, -1.719239)
  46 Al ( 0.000000,  0.000000, -0.022021)
  47 Fe ( 0.000000,  0.000000,  1.691576)
  48 Cr ( 0.000000,  0.000000, -1.981256)
  49 Co ( 0.000000,  0.000000,  0.835197)
  50 Fe ( 0.000000,  0.000000,  2.288209)
  51 Co ( 0.000000,  0.000000,  1.305444)
  52 Ni ( 0.000000,  0.000000,  0.433296)
  53 Co ( 0.000000,  0.000000,  1.324598)
  54 Co ( 0.000000,  0.000000,  1.173752)
  55 Ni ( 0.000000,  0.000000,  0.342148)
  56 Fe ( 0.000000,  0.000000,  2.126048)
  57 Ni ( 0.000000,  0.000000,  0.404560)
  58 Al ( 0.000000,  0.000000, -0.031328)
  59 Co ( 0.000000,  0.000000,  0.977368)
  60 Al ( 0.000000,  0.000000, -0.045284)
  61 Co ( 0.000000,  0.000000,  1.168521)
  62 Co ( 0.000000,  0.000000,  0.991475)
  63 Al ( 0.000000,  0.000000, -0.038227)
  64 Fe ( 0.000000,  0.000000,  2.194711)
  65 Ni ( 0.000000,  0.000000,  0.059027)
  66 Ni ( 0.000000,  0.000000,  0.025709)
  67 Co ( 0.000000,  0.000000,  0.921718)
  68 Fe ( 0.000000,  0.000000,  2.117321)
  69 Cr ( 0.000000,  0.000000,  0.990769)
  70 Cr ( 0.000000,  0.000000,  0.834545)
  71 Cr ( 0.000000,  0.000000, -1.351818)
  72 Ni ( 0.000000,  0.000000,  0.330583)
  73 Ni ( 0.000000,  0.000000,  0.126671)
  74 Ni ( 0.000000,  0.000000,  0.144929)
  75 Co ( 0.000000,  0.000000,  1.213762)
  76 Ni ( 0.000000,  0.000000,  0.562879)
  77 Co ( 0.000000,  0.000000,  1.332074)
  78 Fe ( 0.000000,  0.000000,  2.067038)
  79 Fe ( 0.000000,  0.000000,  2.020146)
  80 Ni ( 0.000000,  0.000000,  0.439602)
  81 Fe ( 0.000000,  0.000000,  2.352579)
  82 Al ( 0.000000,  0.000000, -0.066866)
  83 Co ( 0.000000,  0.000000,  0.913053)
  84 Cr ( 0.000000,  0.000000, -1.845258)
  85 Cr ( 0.000000,  0.000000,  0.952328)
  86 Fe ( 0.000000,  0.000000,  2.024497)
  87 Fe ( 0.000000,  0.000000,  2.271603)
  88 Co ( 0.000000,  0.000000,  0.941521)
  89 Fe ( 0.000000,  0.000000,  2.079405)
  90 Cr ( 0.000000,  0.000000, -1.003892)
  91 Co ( 0.000000,  0.000000,  0.820627)
  92 Al ( 0.000000,  0.000000, -0.045022)
  93 Al ( 0.000000,  0.000000, -0.039467)
  94 Cr ( 0.000000,  0.000000, -0.747481)
  95 Cr ( 0.000000,  0.000000, -1.279286)
  96 Co ( 0.000000,  0.000000,  1.110671)
  97 Fe ( 0.000000,  0.000000,  2.393179)
  98 Co ( 0.000000,  0.000000,  1.205175)
  99 Ni ( 0.000000,  0.000000,  0.374822)
 100 Ni ( 0.000000,  0.000000,  0.379303)
 101 Ni ( 0.000000,  0.000000,  0.553475)
 102 Fe ( 0.000000,  0.000000,  2.470213)
 103 Ni ( 0.000000,  0.000000,  0.286280)
 104 Co ( 0.000000,  0.000000,  1.246355)
 105 Ni ( 0.000000,  0.000000,  0.497055)
 106 Fe ( 0.000000,  0.000000,  2.662918)
 107 Al ( 0.000000,  0.000000, -0.058689)
 108 Cr ( 0.000000,  0.000000, -2.394397)
 109 Cr ( 0.000000,  0.000000,  2.109367)
 110 Ni ( 0.000000,  0.000000,  0.342657)
 111 Fe ( 0.000000,  0.000000,  2.464299)
 112 Fe ( 0.000000,  0.000000,  2.128824)
 113 Al ( 0.000000,  0.000000, -0.019563)
 114 Co ( 0.000000,  0.000000,  1.310474)
 115 Cr ( 0.000000,  0.000000, -2.475180)
 116 Al ( 0.000000,  0.000000, -0.065695)
 117 Ni ( 0.000000,  0.000000,  0.411315)
 118 Ni ( 0.000000,  0.000000,  0.258308)
 119 Cr ( 0.000000,  0.000000, -1.891246)
 120 Fe ( 0.000000,  0.000000,  2.330517)
 121 Fe ( 0.000000,  0.000000,  2.639571)
 122 Co ( 0.000000,  0.000000,  1.078515)
 123 Cr ( 0.000000,  0.000000,  1.859133)
 124 Co ( 0.000000,  0.000000,  0.974198)

Energy contributions relative to reference atoms: (reference = -3927717.499734)

Kinetic:       +380.714264
Potential:     -367.283478
External:        +0.000000
XC:            -969.232159
Entropy (-ST):   -5.200596
Local:          +38.282426
--------------------------
Free energy:   -922.719543
Extrapolated:  -920.119245

Dipole-layer corrected work functions: 4.827327, 4.869797 eV

Spin contamination: 33.594884 electrons
Showing all kpts
                      Up                     Down
 Kpt  Band  Eigenvalues  Occupancy  Eigenvalues  Occupancy
  0   547     -0.11883    0.99731      0.87595    0.01743
  0   548     -0.11050    0.99708      0.88421    0.01607
  0   549     -0.10009    0.99676      0.90096    0.01363
  0   550     -0.08874    0.99637      0.90403    0.01322

  1   547     -0.11095    0.99709      0.87142    0.01822
  1   548     -0.10696    0.99697      0.89369    0.01464
  1   549     -0.09152    0.99647      0.90613    0.01295
  1   550     -0.08481    0.99623      0.91478    0.01189


Fermi level: 0.47275

No gap

Forces in eV/Ang:
  0 Ni   -0.23619   -0.27612    0.58953
  1 Cr   -0.18658   -0.01165    0.17111
  2 Cr    0.38240   -0.05742    0.54788
  3 Ni   -0.01126   -0.49230   -0.51514
  4 Al    0.35528   -0.66638   -0.82071
  5 Co    0.01306   -0.04912    0.30367
  6 Cr   -0.33723   -0.21907   -0.00716
  7 Cr   -0.22847   -0.08873   -1.22271
  8 Fe   -0.12900    0.54449    0.28089
  9 Co    0.41056   -0.12283    0.47497
 10 Fe   -0.46858   -0.01530   -0.03033
 11 Co    0.10521   -0.06617    0.13703
 12 Al   -0.60199   -0.06470   -1.27484
 13 Cr   -0.01330   -0.26434   -1.08035
 14 Ni    0.12597   -0.16468    0.23122
 15 Ni    0.11797    0.47100   -0.34700
 16 Co   -0.37097    0.32269   -0.06213
 17 Cr   -0.01038   -0.26851   -0.55965
 18 Cr    0.78175    0.44344   -1.13970
 19 Ni    0.19372    0.28266    0.36198
 20 Co   -0.06012    0.04651    1.71844
 21 Ni   -0.91238    0.18538    0.03672
 22 Cr    0.31993   -0.10764    0.39987
 23 Ni    0.20435    0.14606   -0.13240
 24 Ni    0.59837   -0.04813    0.75302
 25 Fe   -0.43291    1.21132   -0.75436
 26 Co    0.23665    0.35280    0.24540
 27 Fe   -0.88796   -0.57454    0.10035
 28 Al    0.21286   -0.21910   -0.20215
 29 Fe    0.87722   -0.19118    0.11536
 30 Cr   -0.51970   -0.06870   -0.35696
 31 Cr   -1.36565   -0.66623   -0.12840
 32 Al    0.29174   -0.91861    0.52568
 33 Fe    0.62144    0.08119   -0.18056
 34 Fe    0.99102   -0.44828   -0.37670
 35 Co   -0.40853   -0.08313   -0.03807
 36 Al    0.34465   -0.43926    0.22472
 37 Fe    0.44251    0.42104    0.46663
 38 Cr   -0.67541   -0.31915   -1.26408
 39 Fe    0.55517   -0.40892   -0.54460
 40 Al   -2.12439    0.88410   -0.64573
 41 Al    1.16596   -0.43166    0.99052
 42 Cr    0.90700   -0.43050    0.97331
 43 Al    0.95607    0.24370    0.83149
 44 Ni   -0.10667   -0.00036    0.35492
 45 Cr   -0.15899    2.01158   -0.55641
 46 Al   -0.16847    0.83965    0.13999
 47 Fe    0.36051    0.62358    0.79497
 48 Cr   -0.61541   -0.50473    0.25520
 49 Co    0.10077   -0.27864   -0.33990
 50 Fe   -0.05312    0.51366   -0.01887
 51 Co    0.19871   -0.38592   -0.23813
 52 Ni   -0.57029   -0.18979   -0.19795
 53 Co    0.16986    0.01827    0.11124
 54 Co    0.49041   -0.10466   -0.42337
 55 Ni   -0.40063   -0.29247   -0.09812
 56 Fe   -0.02919   -0.07963    0.25673
 57 Ni   -0.22626    0.27601   -0.01813
 58 Al   -0.79937   -1.13489   -0.32751
 59 Co    0.26218   -0.23017    0.21746
 60 Al    0.43005   -0.55555    0.68974
 61 Co    0.43413    0.17056   -0.17634
 62 Co   -0.66219    0.48547   -0.12467
 63 Al    0.61058    1.03942    0.41232
 64 Fe   -0.31181    0.20236   -0.06010
 65 Ni    0.24995    0.01929    0.04236
 66 Ni   -0.53140   -0.45288   -0.07770
 67 Co   -0.03685    0.28902    0.02538
 68 Fe    0.37708    0.54269   -0.22568
 69 Cr   -1.00629    1.04271    0.46808
 70 Cr   -0.27331   -0.29612    0.34322
 71 Cr    0.97674    0.42129   -0.11686
 72 Ni    0.22911   -0.28231   -0.67688
 73 Ni   -0.23893   -0.40863    0.03398
 74 Ni   -0.07228   -0.29663    0.02865
 75 Co    0.31269   -0.01253   -0.34510
 76 Ni   -0.09925    0.38202   -0.01970
 77 Co   -0.23404   -0.08776   -0.53091
 78 Fe    0.27562   -0.42519   -0.35115
 79 Fe    0.02791   -0.27285    0.11633
 80 Ni   -0.23630   -0.04521    0.34469
 81 Fe   -0.60884   -0.24081    0.64862
 82 Al    0.27147    0.90330   -1.22541
 83 Co    0.17749    0.25818    0.22915
 84 Cr    0.63457   -0.56499    1.39319
 85 Cr   -0.44430    0.13588    1.24156
 86 Fe   -0.13588    0.07297   -0.23382
 87 Fe    0.16268   -0.24450   -0.93774
 88 Co   -0.40618   -0.49620   -0.17847
 89 Fe    0.40837   -0.40393    0.09169
 90 Cr    0.00314   -0.07143   -0.22457
 91 Co   -0.39415   -0.02584   -0.50474
 92 Al   -1.01127   -0.29939   -0.35621
 93 Al    0.13266    0.13310   -1.04492
 94 Cr    0.82437    0.58303   -0.55705
 95 Cr    0.27596    0.16414    0.16768
 96 Co   -0.19360    0.16191    0.22706
 97 Fe   -0.00875    0.32117   -0.43088
 98 Co   -0.01324    0.13699   -0.31475
 99 Ni    0.04954   -0.27062    0.28811
100 Ni    0.08541    0.00970    0.18567
101 Ni   -0.20841   -0.13348   -0.24301
102 Fe   -0.26120   -0.26234    0.24606
103 Ni    0.13651   -0.10311   -0.00873
104 Co   -0.19853   -0.32807   -0.05302
105 Ni    0.02092    0.51993   -0.38143
106 Fe   -0.22302    0.33419    0.15452
107 Al   -0.45784   -0.35213    2.01461
108 Cr    0.76833    0.01532    0.28096
109 Cr    0.19063    0.20095    0.14314
110 Ni    0.22436   -0.06180   -1.53216
111 Fe   -0.72393    0.40417   -0.31313
112 Fe   -0.17810   -0.32755    0.13000
113 Al    0.26774    0.80265    0.43023
114 Co    0.54080   -0.18368   -0.32642
115 Cr   -0.51618   -0.60390    0.39854
116 Al    0.52367   -0.08916    1.32832
117 Ni    0.19055   -0.23879    0.28758
118 Ni   -0.24177   -0.10598    0.29533
119 Cr   -0.14431   -0.64056    0.15694
120 Fe   -0.42071    0.24124   -0.12045
121 Fe   -0.04755    0.76694    0.22305
122 Co   -0.03611    0.13640    0.08521
123 Cr    0.61263   -0.27920    0.59237
124 Co    0.46953    0.03226   -0.64000

Timing:                              incl.     excl.
-----------------------------------------------------------
Forces:                             48.696    48.696   0.1% |
Hamiltonian:                         1.976     0.020   0.0% |
 Atomic:                             0.421     0.002   0.0% |
  XC Correction:                     0.419     0.419   0.0% |
 Calculate atomic Hamiltonians:      0.811     0.811   0.0% |
 Communicate:                        0.085     0.085   0.0% |
 Initialize Hamiltonian:             0.001     0.001   0.0% |
 Poisson:                            0.134     0.134   0.0% |
 XC 3D grid:                         0.505     0.505   0.0% |
LCAO initialization:               343.620     0.636   0.0% |
 LCAO eigensolver:                  21.836     0.015   0.0% |
  Calculate projections:             0.000     0.000   0.0% |
  DenseAtomicCorrection:             0.000     0.000   0.0% |
  Distribute overlap matrix:        10.775    10.775   0.0% |
  Orbital Layouts:                  10.988    10.988   0.0% |
  Potential matrix:                  0.006     0.006   0.0% |
  Sum over cells:                    0.051     0.051   0.0% |
 LCAO to grid:                     318.416   318.416   0.9% |
 Set positions (LCAO WFS):           2.732     2.353   0.0% |
  Basic WFS set positions:           0.004     0.004   0.0% |
  Basis functions set positions:     0.001     0.001   0.0% |
  P tci:                             0.000     0.000   0.0% |
  ST tci:                            0.147     0.147   0.0% |
  mktci:                             0.226     0.226   0.0% |
PWDescriptor:                        0.158     0.158   0.0% |
SCF-cycle:                       34871.584     1.895   0.0% |
 Davidson:                       33704.403  9317.318  26.4% |----------|
  Apply H:                         679.551   667.679   1.9% ||
   HMM T:                           11.872    11.872   0.0% |
  Subspace diag:                  3214.895     0.119   0.0% |
   calc_h_matrix:                 1443.147   809.745   2.3% ||
    Apply H:                       633.402   620.722   1.8% ||
     HMM T:                         12.680    12.680   0.0% |
   diagonalize:                    294.947   294.947   0.8% |
   rotate_psi:                    1476.682  1476.682   4.2% |-|
  calc. matrices:                 7447.617  6251.640  17.7% |------|
   Apply H:                       1195.978  1171.938   3.3% ||
    HMM T:                          24.040    24.040   0.1% |
  diagonalize:                    9866.443  9866.443  28.0% |----------|
  rotate_psi:                     3178.577  3178.577   9.0% |---|
 Density:                          669.823     0.009   0.0% |
  Atomic density matrices:           5.878     5.878   0.0% |
  Mix:                             352.665   352.665   1.0% |
  Multipole moments:                 0.184     0.184   0.0% |
  Pseudo density:                  311.086   311.074   0.9% |
   Symmetrize density:               0.012     0.012   0.0% |
 Hamiltonian:                      476.047     3.293   0.0% |
  Atomic:                           81.495     0.353   0.0% |
   XC Correction:                   81.142    81.142   0.2% |
  Calculate atomic Hamiltonians:   280.659   280.659   0.8% |
  Communicate:                      12.726    12.726   0.0% |
  Poisson:                           9.065     9.065   0.0% |
  XC 3D grid:                       88.809    88.809   0.3% |
 Orthonormalize:                    19.416     0.001   0.0% |
  calc_s_matrix:                     2.425     2.425   0.0% |
  inverse-cholesky:                  0.934     0.934   0.0% |
  projections:                      11.983    11.983   0.0% |
  rotate_psi_s:                      4.073     4.073   0.0% |
Set symmetry:                        0.001     0.001   0.0% |
Other:                               8.966     8.966   0.0% |
-----------------------------------------------------------
Total:                                     35275.001 100.0%

Date: Wed Apr 19 19:42:38 2023
