
  ___ ___ ___ _ _ _  
 |   |   |_  | | | | 
 | | | | | . | | | | 
 |__ |  _|___|_____|  22.8.0
 |___|_|             

User:   c.zeng@d0093
Date:   Tue Apr 18 04:37:42 2023
Arch:   x86_64
Pid:    48733
CWD:    /home/c.zeng/projects/hea-corrosion/hea-mlp/data-curation/surface-mcmc/dft-jobs/19
Python: 3.8.1
gpaw:   /home/c.zeng/usr/installs/gpaw/source/gpaw-22.8.0/gpaw
_gpaw:  /home/c.zeng/usr/installs/gpaw/source/gpaw-22.8.0/
        _gpaw.cpython-38-x86_64-linux-gnu.so
ase:    /home/c.zeng/.local/lib/python3.8/site-packages/ase-3.22.1-py3.8.egg/ase (version 3.22.1)
numpy:  /home/c.zeng/.local/lib/python3.8/site-packages/numpy (version 1.24.2)
scipy:  /home/c.zeng/.local/lib/python3.8/site-packages/scipy (version 1.10.1)
libxc:  4.2.3
units:  Angstrom and eV
cores: 30
OpenMP: False
OMP_NUM_THREADS: 1

Input parameters:
  convergence: {energy: 0.0001}
  kpts: [2 2 1]
  maxiter: 666
  mode: {ecut: 350.0,
         name: pw}
  occupations: {fixmagmom: False,
                name: fermi-dirac,
                width: 0.1}
  poissonsolver: {dipolelayer: xy}
  spinpol: True
  symmetry: {point_group: False}
  xc: PBE

System changes: positions, numbers, cell, pbc, initial_charges, initial_magmoms 

Initialize ...

species:
  Cr:
    name: Chromium
    id: 33f258bda2ca9f93018e70263a35547b
    Z: 24.0
    valence: 6
    core: 18
    charge: 0.0
    file: /home/c.zeng/usr/data/gpaw-setups-0.9.20000/Cr.PBE.gz
    compensation charges: {type: gauss,
                           rc: 0.35,
                           lmax: 2}
    cutoffs: {filter: 2.14,
              core: 3.04}
    valence states:
      #              energy  rcut
      - 4s(1.00)    -4.007   1.164
      - 4p(0.00)    -0.989   1.217
      - 3d(5.00)    -2.913   1.111
      -  s          23.205   1.164
      -  p          26.223   1.217
      -  d          24.299   1.111
  
    # Using partial waves for Cr as LCAO basis

  Co:
    name: Cobalt
    id: 339d20d5b0b93d2de9531a1bee871d91
    Z: 27.0
    valence: 9
    core: 18
    charge: 0.0
    file: /home/c.zeng/usr/data/gpaw-setups-0.9.20000/Co.PBE.gz
    compensation charges: {type: gauss,
                           rc: 0.32,
                           lmax: 2}
    cutoffs: {filter: 1.87,
              core: 2.55}
    valence states:
      #              energy  rcut
      - 4s(2.00)    -5.469   1.005
      - 4p(0.00)    -1.277   1.058
      - 3d(7.00)    -8.205   1.005
      -  s          21.742   1.005
      -  p          25.934   1.058
      -  d          19.007   1.005
  
    # Using partial waves for Co as LCAO basis

  Ni:
    name: Nickel
    id: 0d9f38a9d6e76a2886f07bb4381f212b
    Z: 28.0
    valence: 16
    core: 12
    charge: 0.0
    file: /home/c.zeng/usr/data/gpaw-setups-0.9.20000/Ni.PBE.gz
    compensation charges: {type: gauss,
                           rc: 0.36,
                           lmax: 2}
    cutoffs: {filter: 2.14,
              core: 1.98}
    valence states:
      #              energy  rcut
      - 4s(2.00)    -5.642   1.164
      - 3p(6.00)   -71.394   1.207
      - 4p(0.00)    -1.226   1.207
      - 3d(8.00)    -8.875   1.138
      -  s          21.570   1.164
      -  d          18.337   1.138
  
    # Using partial waves for Ni as LCAO basis

  Fe:
    name: Iron
    id: 37abbd8d6c3c35915a9b583b742da910
    Z: 26.0
    valence: 8
    core: 18
    charge: 0.0
    file: /home/c.zeng/usr/data/gpaw-setups-0.9.20000/Fe.PBE.gz
    compensation charges: {type: gauss,
                           rc: 0.33,
                           lmax: 2}
    cutoffs: {filter: 2.06,
              core: 2.67}
    valence states:
      #              energy  rcut
      - 4s(2.00)    -5.291   1.164
      - 4p(0.00)    -1.326   1.058
      - 3d(6.00)    -7.505   1.058
      -  s          21.920   1.164
      -  p          25.885   1.058
      -  d          19.706   1.058
  
    # Using partial waves for Fe as LCAO basis

Reference energy: -4451268.207082  # eV

Spin-polarized calculation.
Magnetic moment: 175.600000

Convergence criteria:
 Maximum [total energy] change in last 3 cyles: 0.0001 eV / electron
 Maximum integral of absolute [dens]ity change: 0.0001 electrons / valence electron
 Maximum integral of absolute [eigenst]ate change: 4e-08 eV^2 / valence electron
 Maximum number of scf [iter]ations: 666
 (Square brackets indicate name in SCF output, whereas a 'c' in
 the SCF output indicates the quantity has converged.)

Symmetries present (total): 1

  ( 1  0  0)
  ( 0  1  0)
  ( 0  0  1)

4 k-points: 2 x 2 x 1 Monkhorst-Pack grid
2 k-points in the irreducible part of the Brillouin zone
       k-points in crystal coordinates                weights
   0:     0.25000000   -0.25000000    0.00000000          2/4
   1:     0.25000000    0.25000000    0.00000000          2/4

Wave functions: Plane wave expansion
  Cutoff energy: 350.000 eV
  Number of coefficients (min, max): 58495, 58567
  Pulay-stress correction: 0.000000 eV/Ang^3 (de/decut=0.000000)
  Using FFTW library
  ScaLapack parameters: grid=1x1, blocksize=None
  Wavefunction extrapolation:
    Improved wavefunction reuse through dual PAW basis 

Occupation numbers: Fermi-Dirac:
  width: 0.1000  # eV
 

Eigensolver
   Davidson(niter=2) 

Densities:
  Coarse grid: 54*54*128 grid
  Fine grid: 108*108*256 grid
  Total Charge: 0.000000 

Density mixing:
  Method: difference
  Backend: pulay
  Linear mixing parameter: 0.05
  old densities: 5
  Damping of long wavelength oscillations: 50 

Hamiltonian:
  XC and Coulomb potentials evaluated on a 108*108*256 grid
  Using the PBE Exchange-Correlation functional
  External potential:
    NoExternalPotential
 

XC parameters: PBE with 2 nearest neighbor stencil

Memory estimate:
  Process memory now: 366.55 MiB
  Calculator: 2405.48 MiB
    Density: 16.73 MiB
      Arrays: 6.75 MiB
      Localized functions: 7.29 MiB
      Mixer: 2.70 MiB
    Hamiltonian: 5.22 MiB
      Arrays: 5.01 MiB
      XC: 0.00 MiB
      Poisson: 0.00 MiB
      vbar: 0.21 MiB
    Wavefunctions: 2383.52 MiB
      Arrays psit_nG: 1501.35 MiB
      Eigensolver: 862.84 MiB
      Projections: 3.85 MiB
      Projectors: 0.98 MiB
      PW-descriptor: 14.51 MiB

Total number of cores used: 30
Parallelization over k-points: 2
Domain decomposition: 1 x 3 x 5

Number of atoms: 125
Number of atomic orbitals: 1218
Number of bands in calculation: 840
Number of valence electrons: 1217
Bands to converge: occupied

... initialized

Initializing position-dependent things.

Density initialized from atomic densities
Creating initial wave functions:
  840 bands from LCAO basis set

                                                                  
                                                                  
                                                                  
                                                                  
                                   Co    Co           Ni          
                         Ni    Ni    Co    Co    Cr               
                    Co    Cr     Cr    Ni    Co                   
                                Fe    Ni    Ni    Cr    Fe        
                Cr    Ni   NCr   FCo    NCo   Fe    Fe            
            Co    Ni   FCo   NCo   CNi   Fe     Ni                
       Ni                 FeCr    Cr     Cr    Co    Co           
                   Fe   FFe   CCo   FNi   CFe   Cr    Cr          
              Ni   CFe    CNi   FFe   CFe   Ni                    
                               Ni    Ni    Cr    Fe    Cr         
               Cr   CFe   FCr   NFNi  FCNi  CFe   Co    Cr        
           Cr   CNi   FFe  CNCr   NCo   CFe         Co            
            Fe    Fe          Fe    Cr        Ni                  
                       CNi   Co    Cr    Ni     Cr                
             Fe    Cr    CFe   Co    CFe   Ni                     
              Co    Co    Cr     Ni    Cr                         
                                                                  
                                                                  
                                                                  
                                                                  
                                                                  

Positions:
   0 Cr    12.462288    1.423821   10.629080    ( 0.0000,  0.0000,  0.0000)
   1 Co     2.499576    1.440301   10.626527    ( 0.0000,  0.0000,  2.0000)
   2 Co     4.968611    1.438835   10.615079    ( 0.0000,  0.0000,  1.5000)
   3 Cr     7.462726    1.421460   10.639178    ( 0.0000,  0.0000,  2.1000)
   4 Ni     9.958813    1.440808   10.614286    ( 0.0000,  0.0000,  1.5000)
   5 Ni    13.701699    3.595687   10.631928    ( 0.0000,  0.0000,  0.0000)
   6 Co     3.731720    3.588498   10.658463    ( 0.0000,  0.0000,  2.0000)
   7 Cr     6.206181    3.578862   10.616048    ( 0.0000,  0.0000,  0.0000)
   8 Co     8.708678    3.588487   10.610441    ( 0.0000,  0.0000,  0.0000)
   9 Co    11.213254    3.596560   10.610265    ( 0.0000,  0.0000,  0.0000)
  10 Cr    14.928341    5.748260   10.633307    ( 0.0000,  0.0000,  1.5000)
  11 Co     4.975718    5.742741   10.620568    ( 0.0000,  0.0000,  0.0000)
  12 Co     7.478433    5.755029   10.612261    ( 0.0000,  0.0000,  0.0000)
  13 Cr     9.958968    5.766540   10.606596    ( 0.0000,  0.0000,  0.0000)
  14 Ni    12.428955    5.759114   10.623679    ( 0.0000,  0.0000,  2.0000)
  15 Co    16.172575    7.907763   10.614962    ( 0.0000,  0.0000,  0.0000)
  16 Co     6.230875    7.897556   10.631399    ( 0.0000,  0.0000,  1.5000)
  17 Co     8.712063    7.918800   10.624912    ( 0.0000,  0.0000,  1.5000)
  18 Cr    11.196407    7.900649   10.627583    ( 0.0000,  0.0000,  2.0000)
  19 Ni    13.685743    7.894915   10.608768    ( 0.0000,  0.0000,  0.0000)
  20 Cr    17.413095   10.061737   10.609531    ( 0.0000,  0.0000,  0.0000)
  21 Ni     7.473454   10.060875   10.626761    ( 0.0000,  0.0000,  1.5000)
  22 Fe     9.959304   10.058201   10.606068    ( 0.0000,  0.0000,  0.0000)
  23 Co    12.452485   10.052985   10.619834    ( 0.0000,  0.0000,  1.5000)
  24 Co    14.933506   10.061047   10.614433    ( 0.0000,  0.0000,  2.0000)
  25 Fe    12.449050   -0.000629   12.627234    ( 0.0000,  0.0000,  2.1000)
  26 Fe     2.492433    0.000558   12.634954    ( 0.0000,  0.0000,  2.1000)
  27 Cr     4.974333    0.000141   12.611941    ( 0.0000,  0.0000,  2.1000)
  28 Fe     7.468637   -0.006559   12.638564    ( 0.0000,  0.0000,  0.0000)
  29 Cr    16.167928   10.788301   12.619514    ( 0.0000,  0.0000,  2.0000)
  30 Fe     1.266555    2.151225   12.633662    ( 0.0000,  0.0000,  2.0000)
  31 Fe     3.735748    2.148121   12.651127    ( 0.0000,  0.0000,  2.1000)
  32 Ni     6.204229    2.151322   12.625297    ( 0.0000,  0.0000,  2.0000)
  33 Fe     8.713864    2.159169   12.632341    ( 0.0000,  0.0000,  0.0000)
  34 Cr    11.209280    2.157261   12.630668    ( 0.0000,  0.0000,  2.0000)
  35 Cr     2.491537    4.311041   12.649513    ( 0.0000,  0.0000,  1.5000)
  36 Fe     4.975141    4.309004   12.661988    ( 0.0000,  0.0000,  1.5000)
  37 Ni     7.471546    4.302515   12.629612    ( 0.0000,  0.0000,  0.0000)
  38 Ni     9.959331    4.321389   12.624211    ( 0.0000,  0.0000,  2.0000)
  39 Fe    12.447216    4.322736   12.648779    ( 0.0000,  0.0000,  0.0000)
  40 Cr     3.727002    6.455713   12.638564    ( 0.0000,  0.0000,  2.0000)
  41 Fe     6.230130    6.458548   12.645726    ( 0.0000,  0.0000,  1.5000)
  42 Fe     8.722502    6.475815   12.624504    ( 0.0000,  0.0000,  2.1000)
  43 Co    11.197735    6.469758   12.643995    ( 0.0000,  0.0000,  1.5000)
  44 Fe    13.683348    6.470059   12.640003    ( 0.0000,  0.0000,  2.1000)
  45 Cr    17.413993    8.621565   12.620189    ( 0.0000,  0.0000,  0.0000)
  46 Ni     7.471608    8.621834   12.638564    ( 0.0000,  0.0000,  1.5000)
  47 Ni     9.955597    8.628593   12.628115    ( 0.0000,  0.0000,  2.1000)
  48 Cr    12.449432    8.615173   12.619279    ( 0.0000,  0.0000,  1.5000)
  49 Fe    14.929575    8.617340   12.626089    ( 0.0000,  0.0000,  2.0000)
  50 Cr     1.254097    0.717223   14.680102    ( 0.0000,  0.0000,  2.1000)
  51 Ni     3.731090    0.711950   14.670063    ( 0.0000,  0.0000,  2.0000)
  52 Fe     6.214925    0.718289   14.674818    ( 0.0000,  0.0000,  0.0000)
  53 Cr     8.714063    0.718519   14.689084    ( 0.0000,  0.0000,  2.0000)
  54 Co    11.204771    0.717512   14.682421    ( 0.0000,  0.0000,  0.0000)
  55 Cr     2.496837    2.862958   14.687264    ( 0.0000,  0.0000,  2.0000)
  56 Fe     4.979214    2.867151   14.683800    ( 0.0000,  0.0000,  2.1000)
  57 Cr     7.478991    2.885690   14.679133    ( 0.0000,  0.0000,  2.1000)
  58 Ni     9.958294    2.881486   14.688056    ( 0.0000,  0.0000,  2.1000)
  59 Ni    12.441997    2.882424   14.688409    ( 0.0000,  0.0000,  0.0000)
  60 Co     3.731806    5.017201   14.686589    ( 0.0000,  0.0000,  2.1000)
  61 Cr     6.225452    5.035536   14.687205    ( 0.0000,  0.0000,  0.0000)
  62 Fe     8.715945    5.032324   14.674525    ( 0.0000,  0.0000,  2.1000)
  63 Cr    11.195745    5.039006   14.696011    ( 0.0000,  0.0000,  2.0000)
  64 Ni    13.700079    5.031203   14.681012    ( 0.0000,  0.0000,  2.1000)
  65 Fe     4.981869    7.184260   14.692048    ( 0.0000,  0.0000,  2.0000)
  66 Co     7.477161    7.188130   14.678135    ( 0.0000,  0.0000,  1.5000)
  67 Fe     9.952805    7.179334   14.674554    ( 0.0000,  0.0000,  0.0000)
  68 Cr    12.443073    7.188992   14.681100    ( 0.0000,  0.0000,  2.0000)
  69 Cr    14.930068    7.191493   14.686618    ( 0.0000,  0.0000,  0.0000)
  70 Cr     6.231394    9.346900   14.677343    ( 0.0000,  0.0000,  0.0000)
  71 Cr     8.712453    9.336671   14.666629    ( 0.0000,  0.0000,  1.5000)
  72 Cr    11.193692    9.342761   14.657881    ( 0.0000,  0.0000,  1.5000)
  73 Co    13.688080    9.336294   14.678986    ( 0.0000,  0.0000,  2.1000)
  74 Co    16.181709    9.338601   14.679603    ( 0.0000,  0.0000,  2.0000)
  75 Fe    12.451515    1.431333   16.739956    ( 0.0000,  0.0000,  2.0000)
  76 Ni     2.493173    1.440441   16.729476    ( 0.0000,  0.0000,  1.5000)
  77 Fe     4.973378    1.437348   16.717295    ( 0.0000,  0.0000,  1.5000)
  78 Ni     7.475017    1.438609   16.711571    ( 0.0000,  0.0000,  2.0000)
  79 Fe     9.955789    1.433845   16.723048    ( 0.0000,  0.0000,  2.1000)
  80 Fe    13.696559    3.594351   16.715270    ( 0.0000,  0.0000,  2.1000)
  81 Fe     3.730077    3.579487   16.736903    ( 0.0000,  0.0000,  2.0000)
  82 Fe     6.225541    3.599416   16.704614    ( 0.0000,  0.0000,  1.5000)
  83 Co     8.709257    3.594792   16.716150    ( 0.0000,  0.0000,  2.1000)
  84 Ni    11.199463    3.603674   16.739691    ( 0.0000,  0.0000,  2.0000)
  85 Ni    14.943900    5.737718   16.712745    ( 0.0000,  0.0000,  1.5000)
  86 Fe     4.972339    5.736543   16.726893    ( 0.0000,  0.0000,  1.5000)
  87 Ni     7.458804    5.749316   16.714624    ( 0.0000,  0.0000,  2.1000)
  88 Co     9.954095    5.748637   16.721228    ( 0.0000,  0.0000,  2.0000)
  89 Fe    12.462014    5.747344   16.728743    ( 0.0000,  0.0000,  2.0000)
  90 Fe    16.183410    7.912818   16.742715    ( 0.0000,  0.0000,  2.0000)
  91 Ni     6.219087    7.908313   16.727040    ( 0.0000,  0.0000,  2.1000)
  92 Fe     8.705037    7.899237   16.717853    ( 0.0000,  0.0000,  1.5000)
  93 Ni    11.200247    7.900293   16.707726    ( 0.0000,  0.0000,  2.0000)
  94 Fe    13.685904    7.915049   16.733058    ( 0.0000,  0.0000,  2.0000)
  95 Fe    17.435836   10.053955   16.714183    ( 0.0000,  0.0000,  2.1000)
  96 Fe     7.479895   10.064335   16.723694    ( 0.0000,  0.0000,  2.1000)
  97 Ni     9.948438   10.062297   16.717999    ( 0.0000,  0.0000,  2.0000)
  98 Ni    12.430846   10.066016   16.706229    ( 0.0000,  0.0000,  2.1000)
  99 Cr    14.931465   10.060206   16.719819    ( 0.0000,  0.0000,  2.0000)
 100 Ni     0.001393   -0.001477   18.721348    ( 0.0000,  0.0000,  2.1000)
 101 Co     8.706806   10.779893   18.727160    ( 0.0000,  0.0000,  2.1000)
 102 Co    11.204107   10.781618   18.717855    ( 0.0000,  0.0000,  1.5000)
 103 Fe     7.469960    0.013195   18.707875    ( 0.0000,  0.0000,  2.0000)
 104 Ni    16.181919   10.775754   18.709108    ( 0.0000,  0.0000,  2.1000)
 105 Co     1.248004    2.161303   18.718354    ( 0.0000,  0.0000,  2.1000)
 106 Ni     3.733315    2.155634   18.745800    ( 0.0000,  0.0000,  1.5000)
 107 Co     6.228574    2.157186   18.698042    ( 0.0000,  0.0000,  2.0000)
 108 Co     8.707430    2.146688   18.721378    ( 0.0000,  0.0000,  1.5000)
 109 Ni    11.204420    2.145825   18.737698    ( 0.0000,  0.0000,  0.0000)
 110 Cr     2.490030    4.312410   18.723374    ( 0.0000,  0.0000,  2.1000)
 111 Ni     4.985099    4.302214   18.737992    ( 0.0000,  0.0000,  1.5000)
 112 Cr     7.468273    4.307150   18.718736    ( 0.0000,  0.0000,  1.5000)
 113 Co     9.951365    4.318112   18.731387    ( 0.0000,  0.0000,  1.5000)
 114 Co    12.445275    4.305296   18.744537    ( 0.0000,  0.0000,  0.0000)
 115 Co     3.740863    6.459076   18.741044    ( 0.0000,  0.0000,  0.0000)
 116 Cr     6.217689    6.472786   18.736054    ( 0.0000,  0.0000,  1.5000)
 117 Cr     8.709004    6.465931   18.718354    ( 0.0000,  0.0000,  0.0000)
 118 Ni    11.207929    6.465576   18.705468    ( 0.0000,  0.0000,  2.1000)
 119 Co    13.697451    6.465489   18.739900    ( 0.0000,  0.0000,  0.0000)
 120 Ni     4.983428    8.632721   18.739518    ( 0.0000,  0.0000,  1.5000)
 121 Ni     7.469224    8.629196   18.723022    ( 0.0000,  0.0000,  1.5000)
 122 Co     9.951770    8.622740   18.693815    ( 0.0000,  0.0000,  2.1000)
 123 Co    12.435945    8.632257   18.713130    ( 0.0000,  0.0000,  0.0000)
 124 Cr    14.940770    8.642831   18.751406    ( 0.0000,  0.0000,  0.0000)

Unit cell:
           periodic     x           y           z      points  spacing
  1. axis:    yes   12.446800    0.000000    0.000000    54     0.1996
  2. axis:    yes    6.223010   10.778600    0.000000    54     0.1996
  3. axis:    no     0.000000    0.000000   29.353100   128     0.2293

  Lengths:  12.446800  12.446046  29.353100
  Angles:   90.000000  90.000000  60.000070

Effective grid spacing dv^(1/3) = 0.2193

     iter     time        total  log10-change:  magmom
                         energy  eigst   dens
iter:   1 04:47:50 -1142.251207                  +175.5308
iter:   2 04:51:15 -2101.119931  +0.54  -1.18    +141.0051
iter:   3 04:54:43 -1984.156813  +0.98  -0.85    +113.8876
iter:   4 04:58:10 -1171.232632  -0.42  -0.85    +78.5073
iter:   5 05:01:38 -1046.524603  -1.27  -1.21    +60.6233
iter:   6 05:05:05 -1034.423109  -1.79  -1.33    +45.3390
iter:   7 05:08:33 -1019.965004  -1.69  -1.35    +41.1865
iter:   8 05:12:00 -1227.392978  -0.94  -1.37    +42.6037
iter:   9 05:15:26 -1116.207266  -0.97  -1.08    +39.9314
iter:  10 05:18:53 -1009.702894  -1.67  -1.17    +34.0394
iter:  11 05:22:20  -999.944113  -1.98  -1.44    +34.3839
iter:  12 05:25:48 -1000.732870  -1.60  -1.47    +35.3846
iter:  13 05:29:16 -1013.642312  -1.62  -1.53    +37.0434
iter:  14 05:32:43  -992.105534  -1.49  -1.46    +37.6333
iter:  15 05:36:09 -1032.477877  -1.63  -1.72    +39.5877
iter:  16 05:39:37 -1086.116484  -1.49  -1.43    +38.6717
iter:  17 05:43:04  -992.104227  -1.81  -1.25    +36.3511
iter:  18 05:46:32  -990.866040  -2.40  -1.73    +37.6978
iter:  19 05:49:59  -998.030529  -2.08  -1.77    +38.9502
iter:  20 05:53:26  -988.937055  -2.38  -1.68    +40.0016
iter:  21 05:56:53  -987.811664  -2.88  -1.80    +41.6351
iter:  22 06:00:20  -988.626819  -2.85  -1.86    +43.1359
iter:  23 06:03:48  -989.261203  -2.78  -1.84    +46.3166
iter:  24 06:07:15  -994.148166  -2.65  -1.87    +47.6724
iter:  25 06:10:43  -992.690585  -2.60  -1.77    +49.0993
iter:  26 06:14:11 -1002.538865  -2.16  -1.84    +50.1706
iter:  27 06:17:38  -990.644647  -2.43  -1.67    +50.5078
iter:  28 06:21:05  -990.786569  -2.57  -1.93    +52.9629
iter:  29 06:24:32  -990.244986  -2.79  -1.97    +53.5091
iter:  30 06:27:59  -990.573606  -2.97  -1.98    +57.1839
iter:  31 06:31:27  -990.223859  -3.30  -2.00    +58.3024
iter:  32 06:34:54  -990.448966  -3.43  -2.05    +60.0206
iter:  33 06:38:22  -992.451893  -2.82  -2.08    +61.7443
iter:  34 06:41:50  -992.357106  -2.76  -2.03    +62.1290
iter:  35 06:45:18  -992.740274  -2.62  -2.06    +63.2457
iter:  36 06:48:45 -1000.770603  -2.54  -2.11    +63.5453
iter:  37 06:52:14  -999.029413  -2.37  -1.78    +66.5983
iter:  38 06:55:42  -991.746907  -2.80  -1.83    +65.5450
iter:  39 06:59:12  -991.993917  -3.40  -2.24    +66.4781
iter:  40 07:02:40  -991.845581  -3.46  -2.27    +67.0120
iter:  41 07:06:09  -992.029662  -3.66  -2.33    +68.1460
iter:  42 07:09:37  -992.209259  -3.55  -2.35    +69.2494
iter:  43 07:13:03  -993.820698  -3.21  -2.41    +69.9513
iter:  44 07:16:32  -992.885853  -3.08  -2.15    +70.6856
iter:  45 07:20:01  -992.616201  -3.29  -2.39    +71.9444
iter:  46 07:23:29  -994.293523  -3.11  -2.54    +72.8762
iter:  47 07:26:58  -992.705350  -3.32  -2.14    +72.8061
iter:  48 07:30:28  -992.568349  -3.75  -2.53    +73.3901
iter:  49 07:33:57  -992.597221  -4.23  -2.68    +74.0834
iter:  50 07:37:26  -992.667125c -4.11  -2.73    +74.6345
iter:  51 07:40:53  -992.758481  -3.78  -2.73    +75.3605
iter:  52 07:44:22  -992.805303  -3.91  -2.74    +75.7041
iter:  53 07:47:51  -992.968439  -4.26  -2.72    +75.9175
iter:  54 07:51:20  -992.890830  -4.20  -2.55    +76.1763
iter:  55 07:54:48  -992.876816c -4.66  -2.64    +76.5561
iter:  56 07:58:17  -992.924160c -4.29  -2.67    +76.9594
iter:  57 08:01:46  -993.388046  -3.76  -2.65    +76.8373
iter:  58 08:05:13  -993.031686  -3.78  -2.40    +77.0342
iter:  59 08:08:42  -993.932536  -3.35  -2.60    +76.7674
iter:  60 08:12:11  -992.979011  -3.51  -2.26    +76.8157
iter:  61 08:15:40  -993.156604  -4.02  -2.68    +76.6878
iter:  62 08:19:09  -993.015419  -4.46  -2.52    +76.4813
iter:  63 08:22:36  -992.902387  -4.29  -2.65    +76.0388
iter:  64 08:26:06  -992.930632c -4.85  -2.82    +76.2209
iter:  65 08:29:35  -992.925692c -4.44  -2.80    +76.2172
iter:  66 08:33:03  -993.071335  -3.81  -2.89    +76.2828
iter:  67 08:36:31  -992.921382  -4.07  -2.68    +76.4043
iter:  68 08:39:59  -992.930435  -4.47  -3.04    +76.4266
iter:  69 08:43:27  -992.916236c -4.77  -3.02    +76.3998
iter:  70 08:46:56  -992.929367c -4.71  -3.27    +76.4497
iter:  71 08:50:25  -992.935846c -4.96  -3.17    +76.5608
iter:  72 08:53:54  -992.929923c -5.20  -3.13    +76.4998
iter:  73 08:57:23  -992.942470c -5.23  -3.34    +76.4806
iter:  74 09:00:50  -992.945202c -5.54  -3.20    +76.4766
iter:  75 09:04:20  -992.954787c -4.83  -3.23    +76.3988
iter:  76 09:07:48  -992.957122c -5.30  -3.29    +76.4103
iter:  77 09:11:17  -992.976324c -5.16  -3.25    +76.3962
iter:  78 09:14:45  -992.966024c -5.57  -3.10    +76.3561
iter:  79 09:18:13  -992.973564c -5.22  -3.23    +76.2820
iter:  80 09:21:40  -992.982233c -5.07  -3.24    +76.2454
iter:  81 09:25:09  -993.000036c -4.73  -3.17    +76.2092
iter:  82 09:28:36  -993.018574c -4.72  -3.07    +76.2103
iter:  83 09:32:03  -992.991402c -4.96  -2.97    +76.2899
iter:  84 09:35:32  -993.021060c -4.66  -3.22    +76.2519
iter:  85 09:39:00  -993.002320c -5.39  -3.00    +76.2453
iter:  86 09:42:29  -993.046467c -4.78  -3.16    +76.0417
iter:  87 09:45:58  -993.011085c -4.97  -2.91    +76.1916
iter:  88 09:49:24  -993.012481c -4.80  -3.12    +76.1004
iter:  89 09:52:53  -993.076290c -4.48  -3.17    +76.1171
iter:  90 09:56:20  -993.022334c -4.65  -2.84    +76.1983
iter:  91 09:59:48  -993.025258c -5.39  -3.12    +76.1132
iter:  92 10:03:16  -993.048388c -4.88  -3.13    +75.8347
iter:  93 10:06:45  -993.028261c -4.94  -3.02    +76.1126
iter:  94 10:10:14  -993.039441c -4.55  -3.07    +75.6703
iter:  95 10:13:43  -993.037886c -4.89  -3.15    +75.7400
iter:  96 10:17:12  -993.074185c -4.86  -3.16    +75.6741
iter:  97 10:20:38  -993.027785c -4.94  -2.97    +75.6462
iter:  98 10:24:07  -993.038006c -4.86  -3.37    +75.6194
iter:  99 10:27:35  -993.039820c -4.71  -3.23    +75.6993
iter: 100 10:31:05  -993.038617c -5.12  -3.32    +75.6569
iter: 101 10:34:32  -993.043398c -5.44  -3.58    +75.6032
iter: 102 10:38:01  -993.076648c -5.01  -3.63    +75.6885
iter: 103 10:41:30  -993.050961c -4.92  -2.97    +75.6037
iter: 104 10:44:58  -993.059167c -5.27  -3.67    +75.6044
iter: 105 10:48:26  -993.043195c -4.85  -3.66    +75.6525
iter: 106 10:51:54  -993.017963c -4.45  -3.42    +75.5399
iter: 107 10:55:23  -993.024123c -5.77  -3.53    +75.6349
iter: 108 10:58:51  -993.064933c -4.92  -3.59    +75.6365
iter: 109 11:02:20  -993.034781c -4.90  -2.93    +75.6346
iter: 110 11:05:47  -993.036433c -5.42  -3.40    +75.6551
iter: 111 11:09:16  -993.032171c -6.01  -3.57    +75.6312
iter: 112 11:12:45  -993.043424c -5.35  -3.74    +75.6301
iter: 113 11:16:13  -993.041048c -5.73  -3.51    +75.6437
iter: 114 11:19:40  -993.046051c -5.32  -3.74    +75.4970
iter: 115 11:23:09  -993.056017c -5.35  -3.91    +75.5377
iter: 116 11:26:37  -993.056105c -6.15  -3.74    +75.5000
iter: 117 11:30:05  -993.067270c -5.39  -3.71    +75.4068
iter: 118 11:33:32  -993.011738c -3.72  -3.70    +76.1277
iter: 119 11:37:01  -993.014128c -4.75  -3.63    +76.2569
iter: 120 11:40:30  -993.013320c -5.48  -3.54    +76.2141
iter: 121 11:43:59  -993.013121c -5.67  -3.64    +76.2088
iter: 122 11:47:25  -993.013808c -5.99  -3.76    +76.2531
iter: 123 11:50:53  -993.014322c -5.53  -3.78    +76.2796
iter: 124 11:54:22  -993.017262c -5.45  -3.74    +76.2456
iter: 125 11:57:51  -993.030088c -5.10  -3.38    +76.3186
iter: 126 12:01:19  -993.014427c -5.61  -3.23    +76.2148
iter: 127 12:04:46  -993.017078c -5.80  -3.94    +76.2014
iter: 128 12:08:14  -993.015767c -6.26  -3.67    +76.2116
iter: 129 12:11:43  -993.017624c -5.96  -3.78    +76.2392
iter: 130 12:15:11  -993.018034c -6.11  -3.95    +76.2269
iter: 131 12:18:38  -993.021528c -5.68  -3.93    +76.1870
iter: 132 12:22:07  -993.020670c -5.86  -3.65    +76.2017
iter: 133 12:25:36  -993.021773c -5.91  -3.65    +76.1333
iter: 134 12:29:04  -993.022155c -6.27  -4.03c   +76.1877
iter: 135 12:32:33  -993.024939c -5.79  -3.96    +76.1479
iter: 136 12:36:00  -993.015840c -4.96  -3.89    +76.2325
iter: 137 12:39:28  -993.011874c -4.77  -4.00    +76.3694
iter: 138 12:42:57  -993.011106c -5.20  -3.68    +76.3887
iter: 139 12:46:25  -993.011866c -5.87  -3.61    +76.4025
iter: 140 12:49:53  -993.010417c -6.35  -3.54    +76.3973
iter: 141 12:53:20  -993.015926c -6.00  -3.70    +76.4035
iter: 142 12:56:49  -993.023584c -5.08  -3.42    +76.3839
iter: 143 13:00:18  -993.011105c -5.50  -3.27    +76.3218
iter: 144 13:03:46  -993.016624c -5.28  -3.59    +76.2745
iter: 145 13:07:14  -993.008851c -5.67  -3.32    +76.2597
iter: 146 13:10:42  -993.010453c -5.91  -3.83    +76.2602
iter: 147 13:14:11  -993.011867c -5.99  -3.76    +76.2994
iter: 148 13:17:39  -993.012208c -5.82  -3.90    +76.2786
iter: 149 13:21:06  -993.011638c -6.32  -3.78    +76.2670
iter: 150 13:24:33  -993.013215c -6.13  -4.14c   +76.2379
iter: 151 13:28:01  -993.013816c -6.28  -3.90    +76.2444
iter: 152 13:31:30  -993.013016c -6.32  -4.09c   +76.1961
iter: 153 13:35:00  -993.014466c -5.95  -4.02c   +76.2173
iter: 154 13:38:28  -993.014359c -6.74  -4.18c   +76.1949
iter: 155 13:41:56  -993.015317c -6.30  -4.24c   +76.1353
iter: 156 13:45:23  -993.012935c -5.72  -4.42c   +76.2802
iter: 157 13:48:52  -993.010225c -4.88  -4.29c   +76.6503
iter: 158 13:52:21  -993.010324c -5.39  -3.88    +76.7585
iter: 159 13:55:49  -993.010778c -5.69  -3.78    +76.8105
iter: 160 13:59:15  -993.010661c -6.29  -3.72    +76.7998
iter: 161 14:02:44  -993.011192c -6.45  -3.66    +76.7813
iter: 162 14:06:14  -993.015645c -5.63  -3.70    +76.7810
iter: 163 14:09:45  -993.015835c -5.30  -3.39    +76.7884
iter: 164 14:13:14  -993.010364c -5.00  -3.35    +76.8162
iter: 165 14:16:45  -993.007708c -5.55  -3.52    +76.7304
iter: 166 14:20:16  -993.009819c -5.83  -3.80    +76.7010
iter: 167 14:23:46  -993.009234c -6.07  -3.72    +76.6721
iter: 168 14:27:13  -993.010559c -5.67  -3.69    +76.5710
iter: 169 14:30:41  -993.008873c -6.11  -3.55    +76.5786
iter: 170 14:34:11  -993.009037c -6.20  -3.99    +76.5455
iter: 171 14:37:40  -993.009728c -6.18  -3.96    +76.5280
iter: 172 14:41:08  -993.008862c -6.44  -3.98    +76.5263
iter: 173 14:44:35  -993.009424c -6.47  -3.98    +76.5079
iter: 174 14:48:02  -993.012368c -6.14  -4.05c   +76.5001
iter: 175 14:51:30  -993.010100c -6.11  -3.59    +76.4854
iter: 176 14:54:59  -993.010185c -6.38  -3.94    +76.4459
iter: 177 14:58:25  -993.009943c -6.96  -4.16c   +76.4578
iter: 178 15:01:55  -993.010589c -6.68  -4.08c   +76.4821
iter: 179 15:05:22  -993.010233c -7.12  -4.23c   +76.4480
iter: 180 15:08:49  -993.010393c -6.24  -4.31c   +76.3400
iter: 181 15:12:17  -993.013528c -6.12  -4.18c   +76.3917
iter: 182 15:15:45  -993.011004c -6.18  -3.62    +76.3265
iter: 183 15:19:14  -993.011844c -6.32  -4.24c   +76.3058
iter: 184 15:22:42  -993.008289c -5.15  -4.07c   +76.3666
iter: 185 15:26:10  -993.007831c -5.48  -4.09c   +76.4473
iter: 186 15:29:38  -993.007931c -5.83  -4.05c   +76.5389
iter: 187 15:32:44  -993.011943c -5.67  -4.02c   +76.6379
iter: 188 15:35:52  -993.008418c -6.14  -3.48    +76.5679
iter: 189 15:39:21  -993.008483c -6.13  -3.92    +76.5493
iter: 190 15:42:49  -993.009430c -5.86  -3.85    +76.5575
iter: 191 15:46:17  -993.008548c -5.53  -3.69    +76.6098
iter: 192 15:49:46  -993.008962c -6.11  -3.76    +76.5811
iter: 193 15:53:14  -993.008394c -6.36  -3.85    +76.5541
iter: 194 15:56:42  -993.009292c -6.25  -3.90    +76.5410
iter: 195 16:00:12  -993.008287c -6.17  -3.81    +76.5214
iter: 196 16:03:41  -993.009127c -6.18  -3.92    +76.5321
iter: 197 16:07:10  -993.009027c -6.49  -3.98    +76.5191
iter: 198 16:10:39  -993.008967c -6.42  -4.17c   +76.4798
iter: 199 16:14:08  -993.009323c -6.57  -3.93    +76.4823
iter: 200 16:17:37  -993.009188c -6.76  -4.14c   +76.4597
iter: 201 16:21:06  -993.009613c -6.52  -4.41c   +76.4357
iter: 202 16:24:36  -993.008930c -6.59  -4.51c   +76.4638
iter: 203 16:28:05  -993.009121c -7.12  -4.10c   +76.4833
iter: 204 16:31:35  -993.009399c -7.12  -4.29c   +76.4638
iter: 205 16:35:05  -993.008841c -6.48  -4.49c   +76.5150
iter: 206 16:38:35  -993.007839c -5.75  -4.29c   +76.6000
iter: 207 16:42:04  -993.008358c -6.70  -4.16c   +76.5472
iter: 208 16:45:34  -993.007715c -6.03  -4.09c   +76.6309
iter: 209 16:49:03  -993.007377c -6.04  -4.10c   +76.6700
iter: 210 16:52:31  -993.007326c -5.93  -3.99    +76.6897
iter: 211 16:55:59  -993.012309c -6.06  -3.86    +76.6757
iter: 212 16:59:29  -993.007860c -6.34  -3.44    +76.6906
iter: 213 17:02:59  -993.007759c -7.09  -3.86    +76.6733
iter: 214 17:06:29  -993.010301c -5.65  -3.87    +76.6523
iter: 215 17:09:56  -993.007442c -5.46  -3.56    +76.6640
iter: 216 17:13:25  -993.007112c -5.75  -3.68    +76.5829
iter: 217 17:16:54  -993.007468c -6.00  -3.92    +76.5748
iter: 218 17:20:24  -993.010128c -6.10  -4.05c   +76.5599
iter: 219 17:23:54  -993.007761c -5.99  -3.62    +76.5615
iter: 220 17:27:24  -993.007477c -6.40  -3.92    +76.5356
iter: 221 17:30:53  -993.007664c -6.82  -4.27c   +76.5405
iter: 222 17:34:23  -993.007859c -6.61  -4.29c   +76.5284
iter: 223 17:37:51  -993.007771c -7.05  -4.37c   +76.5309
iter: 224 17:41:21  -993.008088c -6.51  -4.29c   +76.5008
iter: 225 17:44:51  -993.008313c -6.85  -3.97    +76.5077
iter: 226 17:48:20  -993.008390c -6.78  -4.45c   +76.4994
iter: 227 17:51:48  -993.008731c -6.43  -4.42c   +76.4651
iter: 228 17:55:18  -993.007866c -6.17  -4.58c   +76.5146
iter: 229 17:58:48  -993.006946c -5.38  -4.58c   +76.6397
iter: 230 18:02:17  -993.007010c -5.67  -4.20c   +76.7084
iter: 231 18:05:47  -993.007008c -6.71  -4.13c   +76.6783
iter: 232 18:09:15  -993.007085c -7.16  -4.17c   +76.6787
iter: 233 18:12:45  -993.007062c -7.32  -4.17c   +76.6735
iter: 234 18:16:14  -993.009109c -6.21  -4.17c   +76.6766
iter: 235 18:19:43  -993.007987c -5.94  -3.62    +76.6788
iter: 236 18:23:09  -993.015784c -5.44  -3.82    +76.6524
iter: 237 18:26:38  -993.006936c -5.86  -3.30    +76.6630
iter: 238 18:30:08  -993.007059c -6.59  -4.14c   +76.6283
iter: 239 18:33:36  -993.006734c -7.16  -4.22c   +76.6158
iter: 240 18:37:06  -993.007880c -6.52  -4.37c   +76.6045
iter: 241 18:40:35  -993.006904c -6.89  -3.96    +76.6035
iter: 242 18:44:05  -993.007535c -6.67  -4.40c   +76.5928
iter: 243 18:47:34  -993.007778c -6.41  -4.06c   +76.5852
iter: 244 18:51:02  -993.007242c -6.59  -3.83    +76.5771
iter: 245 18:54:30  -993.007564c -6.61  -4.22c   +76.5598
iter: 246 18:57:59  -993.007299c -7.33  -4.30c   +76.5607
iter: 247 19:01:29  -993.007703c -6.94  -4.63c   +76.5709
iter: 248 19:04:59  -993.007445c -7.21  -4.47c   +76.5520
iter: 249 19:08:28  -993.007835c -6.86  -4.62c   +76.5368
iter: 250 19:11:57  -993.007573c -7.33  -4.37c   +76.5591
iter: 251 19:15:25  -993.007575c -7.07  -4.82c   +76.5949
iter: 252 19:18:55  -993.007675c -6.92  -4.38c   +76.6008
iter: 253 19:22:24  -993.007554c -6.61  -4.43c   +76.5662
iter: 254 19:25:53  -993.007703c -6.78  -4.79c   +76.5316
iter: 255 19:29:22  -993.006948c -5.47  -4.71c   +76.7071
iter: 256 19:32:52  -993.007241c -6.59  -4.14c   +76.6186
iter: 257 19:36:19  -993.007309c -7.27  -4.35c   +76.6013
iter: 258 19:39:49  -993.007053c -6.35  -4.38c   +76.6695
iter: 259 19:43:18  -993.006813c -5.60  -4.25c   +76.8059
iter: 260 19:46:47  -993.006917c -6.44  -4.13c   +76.7807
iter: 261 19:50:15  -993.006529c -6.37  -3.95    +76.7964
iter: 262 19:53:45  -993.006623c -6.87  -3.98    +76.7586
iter: 263 19:57:14  -993.006572c -6.95  -4.21c   +76.7261
iter: 264 20:00:44  -993.007950c -5.87  -4.24c   +76.6878
iter: 265 20:04:14  -993.006443c -6.37  -3.88    +76.7187
iter: 266 20:07:43  -993.006674c -6.77  -4.07c   +76.7229
iter: 267 20:11:11  -993.006639c -7.16  -4.21c   +76.7006
iter: 268 20:14:40  -993.006658c -6.47  -4.31c   +76.6543
iter: 269 20:18:09  -993.006749c -6.75  -4.27c   +76.6378
iter: 270 20:21:39  -993.007113c -6.53  -4.56c   +76.6229
iter: 271 20:25:07  -993.006863c -6.93  -4.13c   +76.6102
iter: 272 20:28:35  -993.006916c -6.94  -4.68c   +76.5915
iter: 273 20:32:05  -993.007107c -7.10  -4.49c   +76.5877
iter: 274 20:35:35  -993.007046c -7.68c -4.89c   +76.5885

Converged after 274 iterations.

Dipole moment: (52.535251, 29.062925, -0.012708) |e|*Ang

Total magnetic moment: (0.000000, 0.000000, 76.588519)
Local magnetic moments:
   0 Cr ( 0.000000,  0.000000, -2.075880)
   1 Co ( 0.000000,  0.000000,  1.467253)
   2 Co ( 0.000000,  0.000000,  1.185468)
   3 Cr ( 0.000000,  0.000000,  0.799455)
   4 Ni ( 0.000000,  0.000000,  0.081362)
   5 Ni ( 0.000000,  0.000000,  0.355129)
   6 Co ( 0.000000,  0.000000,  1.216293)
   7 Cr ( 0.000000,  0.000000, -2.254933)
   8 Co ( 0.000000,  0.000000,  1.355434)
   9 Co ( 0.000000,  0.000000,  1.231085)
  10 Cr ( 0.000000,  0.000000, -1.972846)
  11 Co ( 0.000000,  0.000000,  1.215686)
  12 Co ( 0.000000,  0.000000,  1.496821)
  13 Cr ( 0.000000,  0.000000, -2.412609)
  14 Ni ( 0.000000,  0.000000,  0.259771)
  15 Co ( 0.000000,  0.000000,  0.996398)
  16 Co ( 0.000000,  0.000000,  1.373974)
  17 Co ( 0.000000,  0.000000,  1.384267)
  18 Cr ( 0.000000,  0.000000,  1.732897)
  19 Ni ( 0.000000,  0.000000,  0.290748)
  20 Cr ( 0.000000,  0.000000, -1.836433)
  21 Ni ( 0.000000,  0.000000,  0.295744)
  22 Fe ( 0.000000,  0.000000,  2.404679)
  23 Co ( 0.000000,  0.000000,  0.818440)
  24 Co ( 0.000000,  0.000000,  1.083606)
  25 Fe ( 0.000000,  0.000000,  1.332062)
  26 Fe ( 0.000000,  0.000000,  1.978406)
  27 Cr ( 0.000000,  0.000000, -1.285389)
  28 Fe ( 0.000000,  0.000000,  1.641922)
  29 Cr ( 0.000000,  0.000000,  0.259381)
  30 Fe ( 0.000000,  0.000000,  1.649374)
  31 Fe ( 0.000000,  0.000000,  1.917527)
  32 Ni ( 0.000000,  0.000000,  0.245285)
  33 Fe ( 0.000000,  0.000000,  1.840174)
  34 Cr ( 0.000000,  0.000000, -0.561298)
  35 Cr ( 0.000000,  0.000000, -0.378030)
  36 Fe ( 0.000000,  0.000000,  1.812204)
  37 Ni ( 0.000000,  0.000000,  0.355415)
  38 Ni ( 0.000000,  0.000000,  0.328245)
  39 Fe ( 0.000000,  0.000000,  2.005979)
  40 Cr ( 0.000000,  0.000000, -0.036658)
  41 Fe ( 0.000000,  0.000000,  2.072912)
  42 Fe ( 0.000000,  0.000000,  2.320746)
  43 Co ( 0.000000,  0.000000,  0.648522)
  44 Fe ( 0.000000,  0.000000,  1.534010)
  45 Cr ( 0.000000,  0.000000, -0.371779)
  46 Ni ( 0.000000,  0.000000,  0.307878)
  47 Ni ( 0.000000,  0.000000,  0.147803)
  48 Cr ( 0.000000,  0.000000, -0.767098)
  49 Fe ( 0.000000,  0.000000,  1.377518)
  50 Cr ( 0.000000,  0.000000, -0.617160)
  51 Ni ( 0.000000,  0.000000,  0.151555)
  52 Fe ( 0.000000,  0.000000,  1.777539)
  53 Cr ( 0.000000,  0.000000, -1.014027)
  54 Co ( 0.000000,  0.000000,  0.493022)
  55 Cr ( 0.000000,  0.000000, -1.211807)
  56 Fe ( 0.000000,  0.000000,  1.755259)
  57 Cr ( 0.000000,  0.000000, -1.080412)
  58 Ni ( 0.000000,  0.000000,  0.163908)
  59 Ni ( 0.000000,  0.000000,  0.203232)
  60 Co ( 0.000000,  0.000000,  0.890189)
  61 Cr ( 0.000000,  0.000000, -1.505140)
  62 Fe ( 0.000000,  0.000000,  2.022233)
  63 Cr ( 0.000000,  0.000000, -1.162539)
  64 Ni ( 0.000000,  0.000000,  0.159742)
  65 Fe ( 0.000000,  0.000000,  1.483583)
  66 Co ( 0.000000,  0.000000,  0.932243)
  67 Fe ( 0.000000,  0.000000, -1.372420)
  68 Cr ( 0.000000,  0.000000, -0.489563)
  69 Cr ( 0.000000,  0.000000, -0.978793)
  70 Cr ( 0.000000,  0.000000, -0.474806)
  71 Cr ( 0.000000,  0.000000, -0.963856)
  72 Cr ( 0.000000,  0.000000,  0.664517)
  73 Co ( 0.000000,  0.000000,  0.322175)
  74 Co ( 0.000000,  0.000000,  0.282908)
  75 Fe ( 0.000000,  0.000000,  2.290111)
  76 Ni ( 0.000000,  0.000000,  0.416512)
  77 Fe ( 0.000000,  0.000000,  2.449165)
  78 Ni ( 0.000000,  0.000000,  0.386025)
  79 Fe ( 0.000000,  0.000000,  2.227839)
  80 Fe ( 0.000000,  0.000000,  2.273909)
  81 Fe ( 0.000000,  0.000000,  2.076191)
  82 Fe ( 0.000000,  0.000000,  2.144862)
  83 Co ( 0.000000,  0.000000,  1.307099)
  84 Ni ( 0.000000,  0.000000,  0.518492)
  85 Ni ( 0.000000,  0.000000,  0.374176)
  86 Fe ( 0.000000,  0.000000,  2.049680)
  87 Ni ( 0.000000,  0.000000,  0.250277)
  88 Co ( 0.000000,  0.000000,  1.149081)
  89 Fe ( 0.000000,  0.000000,  2.247780)
  90 Fe ( 0.000000,  0.000000,  2.026874)
  91 Ni ( 0.000000,  0.000000,  0.365912)
  92 Fe ( 0.000000,  0.000000,  2.274487)
  93 Ni ( 0.000000,  0.000000,  0.374947)
  94 Fe ( 0.000000,  0.000000,  1.939634)
  95 Fe ( 0.000000,  0.000000,  2.112758)
  96 Fe ( 0.000000,  0.000000,  2.124241)
  97 Ni ( 0.000000,  0.000000,  0.466254)
  98 Ni ( 0.000000,  0.000000,  0.429833)
  99 Cr ( 0.000000,  0.000000, -0.692088)
 100 Ni ( 0.000000,  0.000000,  0.657112)
 101 Co ( 0.000000,  0.000000,  1.752331)
 102 Co ( 0.000000,  0.000000,  1.714810)
 103 Fe ( 0.000000,  0.000000,  2.480721)
 104 Ni ( 0.000000,  0.000000,  0.424207)
 105 Co ( 0.000000,  0.000000,  1.612947)
 106 Ni ( 0.000000,  0.000000,  0.573394)
 107 Co ( 0.000000,  0.000000,  1.566910)
 108 Co ( 0.000000,  0.000000,  1.581033)
 109 Ni ( 0.000000,  0.000000,  0.683245)
 110 Cr ( 0.000000,  0.000000, -2.581924)
 111 Ni ( 0.000000,  0.000000,  0.411755)
 112 Cr ( 0.000000,  0.000000, -2.304829)
 113 Co ( 0.000000,  0.000000,  1.421959)
 114 Co ( 0.000000,  0.000000,  1.645651)
 115 Co ( 0.000000,  0.000000,  1.359763)
 116 Cr ( 0.000000,  0.000000,  2.170660)
 117 Cr ( 0.000000,  0.000000, -2.419508)
 118 Ni ( 0.000000,  0.000000,  0.556084)
 119 Co ( 0.000000,  0.000000,  1.519710)
 120 Ni ( 0.000000,  0.000000,  0.446966)
 121 Ni ( 0.000000,  0.000000,  0.447572)
 122 Co ( 0.000000,  0.000000,  1.620310)
 123 Co ( 0.000000,  0.000000,  1.595267)
 124 Cr ( 0.000000,  0.000000, -2.402767)

Energy contributions relative to reference atoms: (reference = -4451268.207082)

Kinetic:       +230.683945
Potential:     -287.949278
External:        +0.000000
XC:            -978.523814
Entropy (-ST):   -5.652732
Local:          +45.608467
--------------------------
Free energy:   -995.833412
Extrapolated:  -993.007046

Dipole-layer corrected work functions: 4.933390, 4.950530 eV

Spin contamination: 42.181132 electrons
Showing all kpts
                      Up                     Down
 Kpt  Band  Eigenvalues  Occupancy  Eigenvalues  Occupancy
  0   606     -0.04677    0.99603      0.86895    0.02580
  0   607     -0.04176    0.99583      0.87168    0.02512
  0   608     -0.01562    0.99459      0.87401    0.02456
  0   609     -0.00205    0.99381      0.88654    0.02173

  1   606     -0.02889    0.99526      0.86438    0.02697
  1   607     -0.01713    0.99467      0.87593    0.02410
  1   608     -0.00246    0.99384      0.88813    0.02139
  1   609      0.01381    0.99276      0.90023    0.01900


Fermi level: 0.50583

No gap

Forces in eV/Ang:
  0 Cr    0.31784    0.36028   -0.18361
  1 Co   -0.01618    0.14890    0.13077
  2 Co    0.04154   -0.11830    0.14472
  3 Cr    0.13518   -0.39935    0.07615
  4 Ni    0.01588    0.08069   -0.22634
  5 Ni   -0.15623    0.03023   -0.24088
  6 Co   -0.21487   -0.09881    0.08271
  7 Cr   -0.08453    0.33911   -0.18052
  8 Co    0.14359   -0.07113    0.26280
  9 Co    0.08390   -0.17885    0.36031
 10 Cr    0.16984    0.06741   -0.17303
 11 Co   -0.00390    0.19124    0.41007
 12 Co   -0.22670    0.10986    0.07192
 13 Cr   -0.24870   -0.14048   -0.16421
 14 Ni    0.25011   -0.26185   -0.01778
 15 Co   -0.03571    0.06146    0.34283
 16 Co   -0.08557   -0.13177    0.03066
 17 Co   -0.34082   -0.00466    0.01527
 18 Cr    0.33315   -0.01101   -0.22856
 19 Ni    0.24928    0.17795   -0.03969
 20 Cr   -0.39616   -0.35051   -0.01144
 21 Ni   -0.05233   -0.09727   -0.03797
 22 Fe   -0.06734    0.26338   -0.39620
 23 Co   -0.08514    0.18545    0.10108
 24 Co   -0.05580   -0.19710    0.26573
 25 Fe   -0.25377    0.09686   -0.12863
 26 Fe   -0.09949   -0.02558    0.07402
 27 Cr    0.09170    0.28985   -0.21211
 28 Fe   -0.25450   -0.00206    0.05157
 29 Cr    0.31863   -0.43747   -0.31878
 30 Fe   -0.24384    0.00892   -0.16775
 31 Fe    0.25713   -0.00388   -0.21613
 32 Ni    0.17348   -0.11365    0.10753
 33 Fe   -0.14316    0.22109   -0.06316
 34 Cr    0.04838   -0.00329    0.09406
 35 Cr    0.23277    0.20753   -0.38281
 36 Fe    0.03918   -0.01120   -0.24950
 37 Ni    0.11075    0.07347   -0.25671
 38 Ni   -0.12193   -0.18213   -0.00641
 39 Fe   -0.28794   -0.08185   -0.31751
 40 Cr    0.40115   -0.11940   -0.21242
 41 Fe   -0.08372    0.11950   -0.27809
 42 Fe    0.04705    0.02623   -0.19578
 43 Co    0.11051    0.00661    0.22498
 44 Fe   -0.22237    0.20286   -0.16656
 45 Cr    0.10081   -0.16213   -0.08391
 46 Ni   -0.06127   -0.06582   -0.06652
 47 Ni    0.04278   -0.24780    0.11356
 48 Cr    0.08637   -0.02695   -0.16182
 49 Fe    0.11956    0.01168    0.05813
 50 Cr   -0.35662    0.06201   -0.17474
 51 Ni    0.00704   -0.00282    0.03747
 52 Fe    0.34731    0.13042   -0.16661
 53 Cr    0.01858   -0.34914   -0.21118
 54 Co    0.15615    0.10073   -0.30297
 55 Cr    0.11858    0.20877    0.05024
 56 Fe   -0.05430   -0.01554   -0.32329
 57 Cr   -0.00095   -0.26665   -0.06771
 58 Ni    0.11377   -0.11628   -0.19184
 59 Ni   -0.06658   -0.26635   -0.15125
 60 Co    0.04648    0.12747    0.08485
 61 Cr   -0.38322    0.21751   -0.21470
 62 Fe   -0.00944   -0.04629    0.20442
 63 Cr    0.06123    0.18090   -0.15607
 64 Ni   -0.04544    0.04231   -0.11183
 65 Fe   -0.01733    0.13874   -0.13304
 66 Co   -0.11904    0.06817   -0.00895
 67 Fe    0.38014    0.12179   -0.26406
 68 Cr   -0.31425   -0.09646   -0.00378
 69 Cr    0.28487    0.14622   -0.12471
 70 Cr   -0.33259    0.11181    0.00933
 71 Cr    0.01446   -0.16759   -0.00811
 72 Cr    0.23734   -0.27804    0.20228
 73 Co    0.08246    0.07028   -0.09151
 74 Co   -0.04533    0.01392   -0.10890
 75 Fe    0.00959    0.04203   -0.12354
 76 Ni   -0.09095   -0.11943    0.08719
 77 Fe    0.06542   -0.23993    0.16212
 78 Ni   -0.08391    0.09867    0.03411
 79 Fe   -0.20250    0.23715   -0.08001
 80 Fe   -0.12549   -0.20143    0.29744
 81 Fe    0.14358    0.20904    0.22616
 82 Fe    0.17374   -0.00520    0.30580
 83 Co   -0.00474    0.00750    0.26946
 84 Ni    0.07179   -0.04412   -0.01608
 85 Ni    0.03239    0.21664    0.26038
 86 Fe   -0.26168   -0.01260   -0.23518
 87 Ni    0.07267    0.04417   -0.21183
 88 Co   -0.01794   -0.14163    0.07385
 89 Fe   -0.36161    0.13451    0.25925
 90 Fe    0.01721   -0.08692    0.12015
 91 Ni    0.10923   -0.11962   -0.31706
 92 Fe   -0.04249   -0.01767   -0.06258
 93 Ni   -0.00482    0.15063    0.02159
 94 Fe   -0.04363    0.14984    0.06006
 95 Fe   -0.19516   -0.07638    0.12237
 96 Fe    0.20299   -0.05204    0.21199
 97 Ni   -0.01870   -0.01357    0.08014
 98 Ni    0.18285   -0.00666    0.08725
 99 Cr   -0.00992   -0.10892   -0.38021
100 Ni    0.05670    0.00918    0.26730
101 Co    0.10257   -0.05276    0.05430
102 Co   -0.02210   -0.00565    0.01840
103 Fe   -0.16872   -0.04312    0.27224
104 Ni    0.06356    0.15775    0.39503
105 Co   -0.16385   -0.10851   -0.05132
106 Ni    0.10791   -0.10917    0.12291
107 Co   -0.23628   -0.02588    0.22268
108 Co    0.20811    0.16030   -0.10376
109 Ni    0.01457    0.13965    0.20956
110 Cr    0.07028   -0.05306    0.36377
111 Ni   -0.10419   -0.12948    0.19765
112 Cr   -0.26671   -0.84923    0.19671
113 Co    0.10746   -0.07229   -0.26841
114 Co   -0.17689    0.00513   -0.15021
115 Co   -0.16798    0.13433   -0.34871
116 Cr    0.26774   -0.02873    0.59434
117 Cr    0.61087    0.70592    0.44094
118 Ni    0.12208   -0.00614    0.33485
119 Co   -0.25667    0.04929   -0.29444
120 Ni   -0.05032    0.14084    0.15309
121 Ni    0.09122    0.31425    0.26514
122 Co   -0.02805    0.17794    0.18351
123 Co   -0.14285   -0.08314   -0.04994
124 Cr    0.14155   -0.34528    0.44661

Timing:                              incl.     excl.
-----------------------------------------------------------
Forces:                             48.970    48.970   0.1% |
Hamiltonian:                         2.031     0.012   0.0% |
 Atomic:                             0.408     0.001   0.0% |
  XC Correction:                     0.406     0.406   0.0% |
 Calculate atomic Hamiltonians:      0.926     0.926   0.0% |
 Communicate:                        0.159     0.159   0.0% |
 Initialize Hamiltonian:             0.001     0.001   0.0% |
 Poisson:                            0.112     0.112   0.0% |
 XC 3D grid:                         0.412     0.412   0.0% |
LCAO initialization:               376.805     0.451   0.0% |
 LCAO eigensolver:                  21.838     0.017   0.0% |
  Calculate projections:             0.000     0.000   0.0% |
  DenseAtomicCorrection:             0.000     0.000   0.0% |
  Distribute overlap matrix:        12.340    12.340   0.0% |
  Orbital Layouts:                   9.423     9.423   0.0% |
  Potential matrix:                  0.007     0.007   0.0% |
  Sum over cells:                    0.051     0.051   0.0% |
 LCAO to grid:                     351.732   351.732   0.6% |
 Set positions (LCAO WFS):           2.784     2.448   0.0% |
  Basic WFS set positions:           0.004     0.004   0.0% |
  Basis functions set positions:     0.001     0.001   0.0% |
  P tci:                             0.000     0.000   0.0% |
  ST tci:                            0.132     0.132   0.0% |
  mktci:                             0.200     0.200   0.0% |
PWDescriptor:                        0.109     0.109   0.0% |
SCF-cycle:                       57090.410     2.092   0.0% |
 Davidson:                       55694.686 15691.288  27.3% |----------|
  Apply H:                         958.941   941.365   1.6% ||
   HMM T:                           17.576    17.576   0.0% |
  Subspace diag:                  5594.545     0.137   0.0% |
   calc_h_matrix:                 2347.050  1459.856   2.5% ||
    Apply H:                       887.194   869.647   1.5% ||
     HMM T:                         17.547    17.547   0.0% |
   diagonalize:                    513.158   513.158   0.9% |
   rotate_psi:                    2734.201  2734.201   4.8% |-|
  calc. matrices:                13015.522 11342.445  19.7% |-------|
   Apply H:                       1673.077  1637.536   2.8% ||
    HMM T:                          35.541    35.541   0.1% |
  diagonalize:                   14653.730 14653.730  25.5% |---------|
  rotate_psi:                     5780.660  5780.660  10.0% |---|
 Density:                          809.136     0.012   0.0% |
  Atomic density matrices:           8.457     8.457   0.0% |
  Mix:                             342.307   342.307   0.6% |
  Multipole moments:                 0.221     0.221   0.0% |
  Pseudo density:                  458.140   458.124   0.8% |
   Symmetrize density:               0.016     0.016   0.0% |
 Hamiltonian:                      561.790     4.465   0.0% |
  Atomic:                          113.852     0.640   0.0% |
   XC Correction:                  113.212   113.212   0.2% |
  Calculate atomic Hamiltonians:   289.925   289.925   0.5% |
  Communicate:                      30.221    30.221   0.1% |
  Poisson:                          12.641    12.641   0.0% |
  XC 3D grid:                      110.686   110.686   0.2% |
 Orthonormalize:                    22.706     0.001   0.0% |
  calc_s_matrix:                     2.858     2.858   0.0% |
  inverse-cholesky:                  1.159     1.159   0.0% |
  projections:                      13.784    13.784   0.0% |
  rotate_psi_s:                      4.904     4.904   0.0% |
Set symmetry:                        0.001     0.001   0.0% |
Other:                               8.496     8.496   0.0% |
-----------------------------------------------------------
Total:                                     57526.822 100.0%

Date: Tue Apr 18 20:36:29 2023
