
  ___ ___ ___ _ _ _  
 |   |   |_  | | | | 
 | | | | | . | | | | 
 |__ |  _|___|_____|  22.8.0
 |___|_|             

User:   c.zeng@d0037
Date:   Mon Apr 17 18:17:42 2023
Arch:   x86_64
Pid:    273872
CWD:    /home/c.zeng/projects/hea-corrosion/hea-mlp/data-curation/surface-md/dft-jobs/71
Python: 3.8.1
gpaw:   /home/c.zeng/usr/installs/gpaw/source/gpaw-22.8.0/gpaw
_gpaw:  /home/c.zeng/usr/installs/gpaw/source/gpaw-22.8.0/
        _gpaw.cpython-38-x86_64-linux-gnu.so
ase:    /home/c.zeng/.local/lib/python3.8/site-packages/ase-3.22.1-py3.8.egg/ase (version 3.22.1)
numpy:  /home/c.zeng/.local/lib/python3.8/site-packages/numpy (version 1.24.2)
scipy:  /home/c.zeng/.local/lib/python3.8/site-packages/scipy (version 1.10.1)
libxc:  4.2.3
units:  Angstrom and eV
cores: 30
OpenMP: False
OMP_NUM_THREADS: 1

Input parameters:
  convergence: {energy: 0.0001}
  kpts: [2 2 1]
  maxiter: 666
  mode: {ecut: 350.0,
         name: pw}
  occupations: {fixmagmom: False,
                name: fermi-dirac,
                width: 0.1}
  poissonsolver: {dipolelayer: xy}
  spinpol: True
  symmetry: {point_group: False}
  xc: PBE

System changes: positions, numbers, cell, pbc, initial_charges, initial_magmoms 

Initialize ...

species:
  Cr:
    name: Chromium
    id: 33f258bda2ca9f93018e70263a35547b
    Z: 24.0
    valence: 6
    core: 18
    charge: 0.0
    file: /home/c.zeng/usr/data/gpaw-setups-0.9.20000/Cr.PBE.gz
    compensation charges: {type: gauss,
                           rc: 0.35,
                           lmax: 2}
    cutoffs: {filter: 2.14,
              core: 3.04}
    valence states:
      #              energy  rcut
      - 4s(1.00)    -4.007   1.164
      - 4p(0.00)    -0.989   1.217
      - 3d(5.00)    -2.913   1.111
      -  s          23.205   1.164
      -  p          26.223   1.217
      -  d          24.299   1.111
  
    # Using partial waves for Cr as LCAO basis

  Al:
    name: Aluminium
    id: 0292cae29f5d6237e50f6abdd43a7bdd
    Z: 13.0
    valence: 3
    core: 10
    charge: 0.0
    file: /home/c.zeng/usr/data/gpaw-setups-0.9.20000/Al.PBE.gz
    compensation charges: {type: gauss,
                           rc: 0.34,
                           lmax: 2}
    cutoffs: {filter: 1.91,
              core: 2.36}
    valence states:
      #              energy  rcut
      - 3s(2.00)    -7.753   1.085
      - 3p(1.00)    -2.712   1.085
      -  s          19.459   1.085
      -  p          24.499   1.085
      -  d           0.000   1.085
  
    # Using partial waves for Al as LCAO basis

  Fe:
    name: Iron
    id: 37abbd8d6c3c35915a9b583b742da910
    Z: 26.0
    valence: 8
    core: 18
    charge: 0.0
    file: /home/c.zeng/usr/data/gpaw-setups-0.9.20000/Fe.PBE.gz
    compensation charges: {type: gauss,
                           rc: 0.33,
                           lmax: 2}
    cutoffs: {filter: 2.06,
              core: 2.67}
    valence states:
      #              energy  rcut
      - 4s(2.00)    -5.291   1.164
      - 4p(0.00)    -1.326   1.058
      - 3d(6.00)    -7.505   1.058
      -  s          21.920   1.164
      -  p          25.885   1.058
      -  d          19.706   1.058
  
    # Using partial waves for Fe as LCAO basis

  Co:
    name: Cobalt
    id: 339d20d5b0b93d2de9531a1bee871d91
    Z: 27.0
    valence: 9
    core: 18
    charge: 0.0
    file: /home/c.zeng/usr/data/gpaw-setups-0.9.20000/Co.PBE.gz
    compensation charges: {type: gauss,
                           rc: 0.32,
                           lmax: 2}
    cutoffs: {filter: 1.87,
              core: 2.55}
    valence states:
      #              energy  rcut
      - 4s(2.00)    -5.469   1.005
      - 4p(0.00)    -1.277   1.058
      - 3d(7.00)    -8.205   1.005
      -  s          21.742   1.005
      -  p          25.934   1.058
      -  d          19.007   1.005
  
    # Using partial waves for Co as LCAO basis

  Ni:
    name: Nickel
    id: 0d9f38a9d6e76a2886f07bb4381f212b
    Z: 28.0
    valence: 16
    core: 12
    charge: 0.0
    file: /home/c.zeng/usr/data/gpaw-setups-0.9.20000/Ni.PBE.gz
    compensation charges: {type: gauss,
                           rc: 0.36,
                           lmax: 2}
    cutoffs: {filter: 2.14,
              core: 1.98}
    valence states:
      #              energy  rcut
      - 4s(2.00)    -5.642   1.164
      - 3p(6.00)   -71.394   1.207
      - 4p(0.00)    -1.226   1.207
      - 3d(8.00)    -8.875   1.138
      -  s          21.570   1.164
      -  d          18.337   1.138
  
    # Using partial waves for Ni as LCAO basis

Reference energy: -3927717.499734  # eV

Spin-polarized calculation.
Magnetic moment: 149.100000

Convergence criteria:
 Maximum [total energy] change in last 3 cyles: 0.0001 eV / electron
 Maximum integral of absolute [dens]ity change: 0.0001 electrons / valence electron
 Maximum integral of absolute [eigenst]ate change: 4e-08 eV^2 / valence electron
 Maximum number of scf [iter]ations: 666
 (Square brackets indicate name in SCF output, whereas a 'c' in
 the SCF output indicates the quantity has converged.)

Symmetries present (total): 1

  ( 1  0  0)
  ( 0  1  0)
  ( 0  0  1)

4 k-points: 2 x 2 x 1 Monkhorst-Pack grid
2 k-points in the irreducible part of the Brillouin zone
       k-points in crystal coordinates                weights
   0:     0.25000000   -0.25000000    0.00000000          2/4
   1:     0.25000000    0.25000000    0.00000000          2/4

Wave functions: Plane wave expansion
  Cutoff energy: 350.000 eV
  Number of coefficients (min, max): 60143, 60161
  Pulay-stress correction: 0.000000 eV/Ang^3 (de/decut=0.000000)
  Using FFTW library
  ScaLapack parameters: grid=1x1, blocksize=None
  Wavefunction extrapolation:
    Improved wavefunction reuse through dual PAW basis 

Occupation numbers: Fermi-Dirac:
  width: 0.1000  # eV
 

Eigensolver
   Davidson(niter=2) 

Densities:
  Coarse grid: 56*56*128 grid
  Fine grid: 112*112*256 grid
  Total Charge: 0.000000 

Density mixing:
  Method: difference
  Backend: pulay
  Linear mixing parameter: 0.05
  old densities: 5
  Damping of long wavelength oscillations: 50 

Hamiltonian:
  XC and Coulomb potentials evaluated on a 112*112*256 grid
  Using the PBE Exchange-Correlation functional
  External potential:
    NoExternalPotential
 

XC parameters: PBE with 2 nearest neighbor stencil

Memory estimate:
  Process memory now: 379.49 MiB
  Calculator: 2209.57 MiB
    Density: 18.91 MiB
      Arrays: 7.39 MiB
      Localized functions: 8.57 MiB
      Mixer: 2.95 MiB
    Hamiltonian: 5.75 MiB
      Arrays: 5.49 MiB
      XC: 0.00 MiB
      Poisson: 0.00 MiB
      vbar: 0.26 MiB
    Wavefunctions: 2184.92 MiB
      Arrays psit_nG: 1382.48 MiB
      Eigensolver: 782.37 MiB
      Projections: 3.31 MiB
      Projectors: 1.16 MiB
      PW-descriptor: 15.59 MiB

Total number of cores used: 30
Parallelization over k-points: 2
Domain decomposition: 1 x 3 x 5

Number of atoms: 125
Number of atomic orbitals: 1116
Number of bands in calculation: 753
Number of valence electrons: 1098
Bands to converge: occupied

... initialized

Initializing position-dependent things.

Density initialized from atomic densities
Creating initial wave functions:
  753 bands from LCAO basis set

                                                                   
                                                                   
                                                                   
                                                                   
                                                                   
                                                                   
                                                                   
                                                  Fe               
                        Coo   Fe     Nie    Ni                     
                           Cr    Co              Cr                
                   Al    Cr  Cr    CrCoAl    Ni     Ni             
                      Fe    Ni Al        NiCo  Ni     Ni           
              Fe     Ni Co     Ni Cr             Al                
        CrCr    Co    Fe  Ni         Cr   Ni                       
                   Fe    Alr Ni Fe Cr  AlAl Coe   Ni               
            Co    Co Fe Ni  AlCoNi Fe Cr            Cr             
               Cr               CoNiCr Alo    CrNi    Cr           
                 Ni  Fe    Co Ni    NiFe Co     Cr                 
         Co    Fe      Co   Nie    Fe    Fe                        
                 CoCrFe  Cr   CrFCo   Fe    Al    Al     Al        
           Al          Cr   Fe      Al        Fe    Fe             
                   Co    Al     FeFe   Nio  Co                     
                      Ni    Al     Cr          Ni                  
              Cr     Al          Cr     Crr                        
                                 Fe                                
                                                                   
                                                                   
                                                                   
                                                                   
                                                                   
                                                                   

Positions:
   0 Cr    13.389529    2.476158    9.768013    ( 0.0000,  0.0000,  0.0000)
   1 Cr     3.164693    1.543589   10.769768    ( 0.0000,  0.0000,  0.0000)
   2 Al     5.865312    2.123038   10.239026    ( 0.0000,  0.0000,  0.0000)
   3 Fe    10.383215    3.058933    9.019501    ( 0.0000,  0.0000,  2.0000)
   4 Cr    10.667757    1.196983   10.679910    ( 0.0000,  0.0000,  0.0000)
   5 Co    14.809400    3.950549   11.042997    ( 0.0000,  0.0000,  2.1000)
   6 Co     4.500302    3.869341   11.352784    ( 0.0000,  0.0000,  2.1000)
   7 Ni     6.902325    4.465333   11.130111    ( 0.0000,  0.0000,  1.5000)
   8 Fe     9.764441    4.133697   11.171838    ( 0.0000,  0.0000,  2.0000)
   9 Ni    12.401789    4.256464   10.902521    ( 0.0000,  0.0000,  1.5000)
  10 Ni    15.457153    5.530200    9.531380    ( 0.0000,  0.0000,  1.5000)
  11 Ni     5.401602    5.406183    9.671278    ( 0.0000,  0.0000,  1.5000)
  12 Al     7.689974    5.544899    9.263544    ( 0.0000,  0.0000,  0.0000)
  13 Cr    10.487736    5.507639    9.299754    ( 0.0000,  0.0000,  0.0000)
  14 Cr    13.276283    5.466523    8.786595    ( 0.0000,  0.0000,  0.0000)
  15 Fe    17.182461    7.620356   10.146041    ( 0.0000,  0.0000,  2.0000)
  16 Fe     7.075185    7.882761    9.653574    ( 0.0000,  0.0000,  2.0000)
  17 Fe     9.704519    7.752728    9.445769    ( 0.0000,  0.0000,  2.0000)
  18 Co    12.190413    7.635656    9.442199    ( 0.0000,  0.0000,  2.1000)
  19 Fe    14.620917    7.937628    9.573233    ( 0.0000,  0.0000,  2.0000)
  20 Al    18.368755   10.213616    9.930764    ( 0.0000,  0.0000,  0.0000)
  21 Ni     8.590305    9.996470   10.097472    ( 0.0000,  0.0000,  1.5000)
  22 Co    11.422181   11.227990   11.926362    ( 0.0000,  0.0000,  2.1000)
  23 Co    12.998037   10.167860    9.937918    ( 0.0000,  0.0000,  2.1000)
  24 Al    15.648402    9.948358   10.125301    ( 0.0000,  0.0000,  0.0000)
  25 Al     6.543824   10.884422   12.401156    ( 0.0000,  0.0000,  0.0000)
  26 Fe     9.144275   11.017620   12.520805    ( 0.0000,  0.0000,  2.0000)
  27 Al     7.871207   -0.005539   12.734243    ( 0.0000,  0.0000,  0.0000)
  28 Ni    14.476656   12.414484   10.998968    ( 0.0000,  0.0000,  1.5000)
  29 Cr    16.347996   10.645970   12.437464    ( 0.0000,  0.0000,  0.0000)
  30 Al     1.710739    2.325544   12.700810    ( 0.0000,  0.0000,  0.0000)
  31 Co     4.006209    2.151087   13.111765    ( 0.0000,  0.0000,  2.1000)
  32 Cr     6.534231    2.159332   12.624047    ( 0.0000,  0.0000,  0.0000)
  33 Cr     9.064272    2.744258   12.874434    ( 0.0000,  0.0000,  0.0000)
  34 Al    11.604488    2.432891   12.417589    ( 0.0000,  0.0000,  0.0000)
  35 Ni     3.320958    4.736910   13.731739    ( 0.0000,  0.0000,  1.5000)
  36 Co     5.703843    4.847976   13.289452    ( 0.0000,  0.0000,  2.1000)
  37 Fe     8.307559    5.236787   13.202904    ( 0.0000,  0.0000,  2.0000)
  38 Fe    10.777499    4.889635   12.990559    ( 0.0000,  0.0000,  2.0000)
  39 Fe    13.323245    4.747504   13.436268    ( 0.0000,  0.0000,  2.0000)
  40 Cr     3.691276    6.296878   11.893527    ( 0.0000,  0.0000,  0.0000)
  41 Cr     6.318326    6.667221   11.674950    ( 0.0000,  0.0000,  0.0000)
  42 Fe     8.995461    6.492682   11.286470    ( 0.0000,  0.0000,  2.0000)
  43 Fe    11.546855    6.387853   11.460079    ( 0.0000,  0.0000,  2.0000)
  44 Al    14.018523    6.322848   11.479653    ( 0.0000,  0.0000,  0.0000)
  45 Cr    17.538930    8.567011   12.546300    ( 0.0000,  0.0000,  0.0000)
  46 Ni     7.770145    8.659865   12.074902    ( 0.0000,  0.0000,  1.5000)
  47 Ni    10.337390    8.884982   11.574150    ( 0.0000,  0.0000,  1.5000)
  48 Co    12.567244    8.526916   11.859367    ( 0.0000,  0.0000,  2.1000)
  49 Cr    15.116821    8.615990   12.080773    ( 0.0000,  0.0000,  0.0000)
  50 Co     1.249834    0.910284   15.230744    ( 0.0000,  0.0000,  2.1000)
  51 Fe     3.744933    0.673980   14.867282    ( 0.0000,  0.0000,  2.0000)
  52 Fe     6.245467    0.612225   14.546164    ( 0.0000,  0.0000,  2.0000)
  53 Ni     8.795940    1.184168   14.670173    ( 0.0000,  0.0000,  1.5000)
  54 Co    11.090320    0.818644   14.441721    ( 0.0000,  0.0000,  2.1000)
  55 Cr     2.945942    2.810043   15.579275    ( 0.0000,  0.0000,  0.0000)
  56 Fe     5.337655    2.979283   15.028223    ( 0.0000,  0.0000,  2.0000)
  57 Co     7.749090    3.555255   14.776009    ( 0.0000,  0.0000,  2.1000)
  58 Co     9.997262    3.091016   15.131496    ( 0.0000,  0.0000,  2.1000)
  59 Fe    12.687517    2.803413   14.567516    ( 0.0000,  0.0000,  2.0000)
  60 Fe     4.228246    5.126274   15.849961    ( 0.0000,  0.0000,  2.0000)
  61 Al     6.580593    5.438848   15.762348    ( 0.0000,  0.0000,  0.0000)
  62 Ni     9.338522    5.888315   15.326482    ( 0.0000,  0.0000,  1.5000)
  63 Cr    11.806556    5.204900   15.432308    ( 0.0000,  0.0000,  0.0000)
  64 Co    14.517376    5.498842   15.715577    ( 0.0000,  0.0000,  2.1000)
  65 Fe     4.417640    6.998956   14.143339    ( 0.0000,  0.0000,  2.0000)
  66 Al     7.184845    7.450614   14.194269    ( 0.0000,  0.0000,  0.0000)
  67 Ni     9.771012    7.295617   13.407560    ( 0.0000,  0.0000,  1.5000)
  68 Al    12.132961    6.815699   13.641451    ( 0.0000,  0.0000,  0.0000)
  69 Cr    14.676043    7.116313   13.629788    ( 0.0000,  0.0000,  0.0000)
  70 Cr     5.902991    9.532438   14.304982    ( 0.0000,  0.0000,  0.0000)
  71 Fe     8.339409    9.680162   14.331415    ( 0.0000,  0.0000,  2.0000)
  72 Al    11.178266    9.738959   13.853157    ( 0.0000,  0.0000,  0.0000)
  73 Fe    13.701894    9.027546   14.471057    ( 0.0000,  0.0000,  2.0000)
  74 Ni    15.953663    9.443923   14.342558    ( 0.0000,  0.0000,  1.5000)
  75 Cr    11.960963    1.171000   16.770115    ( 0.0000,  0.0000,  0.0000)
  76 Co     2.187166    0.935959   17.338324    ( 0.0000,  0.0000,  2.1000)
  77 Co     4.630011    1.502878   16.978495    ( 0.0000,  0.0000,  2.1000)
  78 Ni     7.179044    1.761475   16.576694    ( 0.0000,  0.0000,  1.5000)
  79 Co     9.501551    1.569806   16.859993    ( 0.0000,  0.0000,  2.1000)
  80 Al    13.619300    3.335622   17.061890    ( 0.0000,  0.0000,  0.0000)
  81 Co     3.305901    3.365010   17.808688    ( 0.0000,  0.0000,  2.1000)
  82 Fe     5.898443    3.517327   17.583211    ( 0.0000,  0.0000,  2.0000)
  83 Ni     8.572092    4.053674   16.703071    ( 0.0000,  0.0000,  1.5000)
  84 Cr    11.263386    3.560107   17.198164    ( 0.0000,  0.0000,  0.0000)
  85 Ni    15.330487    6.074256   17.857279    ( 0.0000,  0.0000,  1.5000)
  86 Fe     5.174922    5.950180   18.000778    ( 0.0000,  0.0000,  2.0000)
  87 Ni     7.692037    6.100422   17.918900    ( 0.0000,  0.0000,  1.5000)
  88 Co    10.347414    5.746054   17.495567    ( 0.0000,  0.0000,  2.1000)
  89 Ni    12.977052    5.903583   18.405585    ( 0.0000,  0.0000,  1.5000)
  90 Al    15.707873    7.674609   16.160641    ( 0.0000,  0.0000,  0.0000)
  91 Co     5.653069    8.078872   16.132513    ( 0.0000,  0.0000,  2.1000)
  92 Ni     8.396706    7.778107   16.449951    ( 0.0000,  0.0000,  1.5000)
  93 Cr    10.734882    7.814030   15.605888    ( 0.0000,  0.0000,  0.0000)
  94 Ni    13.158652    7.541871   16.156269    ( 0.0000,  0.0000,  1.5000)
  95 Ni    17.177594   10.164980   16.359070    ( 0.0000,  0.0000,  1.5000)
  96 Cr     7.143595    9.845939   16.789285    ( 0.0000,  0.0000,  0.0000)
  97 Cr     9.707854   10.040760   16.845112    ( 0.0000,  0.0000,  0.0000)
  98 Co    12.043698    9.829114   16.288811    ( 0.0000,  0.0000,  2.1000)
  99 Co    14.544215   10.247215   16.399469    ( 0.0000,  0.0000,  2.1000)
 100 Co     5.460364   10.646067   18.578056    ( 0.0000,  0.0000,  2.1000)
 101 Cr     1.656634   -0.507932   19.265412    ( 0.0000,  0.0000,  0.0000)
 102 Fe    10.799633   10.241487   18.945436    ( 0.0000,  0.0000,  2.0000)
 103 Ni    13.137320   10.927283   18.270143    ( 0.0000,  0.0000,  1.5000)
 104 Fe    15.508466   10.488554   19.355938    ( 0.0000,  0.0000,  2.0000)
 105 Cr     0.650570    1.699080   18.718812    ( 0.0000,  0.0000,  0.0000)
 106 Fe     3.126744    1.505234   19.726732    ( 0.0000,  0.0000,  2.0000)
 107 Ni     5.559570    1.979529   19.434190    ( 0.0000,  0.0000,  1.5000)
 108 Ni     7.923916    2.284857   18.699758    ( 0.0000,  0.0000,  1.5000)
 109 Cr    11.070884    2.193481   18.945831    ( 0.0000,  0.0000,  0.0000)
 110 Al    13.209557    1.957885   21.062447    ( 0.0000,  0.0000,  0.0000)
 111 Al     4.541709    4.257343   19.593316    ( 0.0000,  0.0000,  0.0000)
 112 Cr     6.682997    4.385969   19.684421    ( 0.0000,  0.0000,  0.0000)
 113 Al     9.174283    4.347979   19.104064    ( 0.0000,  0.0000,  0.0000)
 114 Co    11.905080    4.231229   19.819167    ( 0.0000,  0.0000,  2.1000)
 115 Cr    15.884891    6.779512   19.801088    ( 0.0000,  0.0000,  0.0000)
 116 Co     5.710340    6.809227   20.476030    ( 0.0000,  0.0000,  2.1000)
 117 Fe     8.195251    6.755236   20.359965    ( 0.0000,  0.0000,  2.0000)
 118 Ni    11.058142    6.645928   19.910491    ( 0.0000,  0.0000,  1.5000)
 119 Co    14.231274    3.812343   19.523142    ( 0.0000,  0.0000,  2.1000)
 120 Ni    16.838282    8.255037   18.220758    ( 0.0000,  0.0000,  1.5000)
 121 Cr     6.560462    8.403163   18.583379    ( 0.0000,  0.0000,  0.0000)
 122 Co     9.160044    8.354195   18.633838    ( 0.0000,  0.0000,  2.1000)
 123 Fe    11.434205    8.034672   17.835871    ( 0.0000,  0.0000,  2.0000)
 124 Ni    14.092522    8.524048   18.104256    ( 0.0000,  0.0000,  1.5000)

Unit cell:
           periodic     x           y           z      points  spacing
  1. axis:    yes   12.614700    0.000000    0.000000    56     0.1951
  2. axis:    yes    6.308550   10.926700    0.000000    56     0.1951
  3. axis:    no     0.000000    0.000000   29.353100   128     0.2293

  Lengths:  12.614700  12.617075  29.353100
  Angles:   90.000000  90.000000  59.999934

Effective grid spacing dv^(1/3) = 0.2160

     iter     time        total  log10-change:  magmom
                         energy  eigst   dens
iter:   1 18:24:03 -1135.774411                  +149.4302
iter:   2 18:26:11 -1596.760141  +0.41  -1.08    +82.1700
iter:   3 18:28:19 -3231.928343  +1.53  -0.83    +56.8149
iter:   4 18:30:27 -1008.023838  +0.39  -0.52    +30.5133
iter:   5 18:32:35  -959.512413  -0.11  -1.15    +25.9161
iter:   6 18:34:43  -949.720650  -0.59  -1.19    +24.6290
iter:   7 18:36:51  -929.217557  -1.09  -1.21    +25.1893
iter:   8 18:39:00  -981.653740  -0.70  -1.22    +26.2929
iter:   9 18:41:08 -1852.253231  +0.14  -1.13    +27.4654
iter:  10 18:43:16  -937.544633  -0.65  -0.76    +23.9536
iter:  11 18:45:24  -907.453387  -1.35  -1.24    +23.9270
iter:  12 18:47:33  -912.718853  -1.71  -1.32    +28.1420
iter:  13 18:49:41  -904.723079  -1.71  -1.29    +29.4761
iter:  14 18:51:49  -896.908137  -2.03  -1.34    +32.4337
iter:  15 18:53:58 -1031.790426  -1.17  -1.39    +35.4846
iter:  16 18:56:06  -959.016389  -1.17  -1.12    +37.2550
iter:  17 18:58:15  -902.825384  -1.58  -1.20    +34.5156
iter:  18 19:00:22  -902.611776  -1.59  -1.41    +36.4511
iter:  19 19:02:31  -906.001115  -1.52  -1.47    +39.4886
iter:  20 19:04:39  -889.144804  -1.94  -1.42    +42.1264
iter:  21 19:06:48  -900.788814  -1.84  -1.53    +45.7235
iter:  22 19:08:56  -909.502493  -1.90  -1.44    +49.0960
iter:  23 19:11:04  -902.706677  -1.77  -1.40    +50.5501
iter:  24 19:13:13  -890.802990  -2.21  -1.43    +52.1228
iter:  25 19:15:21  -893.218808  -2.27  -1.58    +57.3064
iter:  26 19:17:29  -897.527134  -2.41  -1.58    +59.4517
iter:  27 19:19:38  -888.746202  -2.25  -1.53    +63.4258
iter:  28 19:21:46  -897.045852  -1.97  -1.70    +64.7327
iter:  29 19:23:55  -890.123729  -2.27  -1.59    +65.8311
iter:  30 19:26:03  -900.468080  -2.33  -1.74    +68.0059
iter:  31 19:28:12  -894.624048  -2.40  -1.59    +70.9761
iter:  32 19:30:20  -896.648043  -2.14  -1.75    +74.2129
iter:  33 19:32:29  -892.059207  -2.61  -1.71    +74.0465
iter:  34 19:34:37  -894.532814  -2.38  -1.86    +74.4022
iter:  35 19:36:46  -893.373793  -2.47  -1.86    +74.1143
iter:  36 19:38:54  -893.873298  -2.79  -1.91    +74.1865
iter:  37 19:41:02  -896.367574  -2.56  -1.97    +75.4921
iter:  38 19:43:10  -894.674025  -2.74  -1.86    +75.1049
iter:  39 19:45:19  -895.039109  -2.49  -2.01    +74.3666
iter:  40 19:47:27  -894.396552  -2.88  -2.02    +74.8667
iter:  41 19:49:35  -895.623552  -2.69  -2.14    +75.3751
iter:  42 19:51:44  -894.078588  -3.08  -2.06    +75.2341
iter:  43 19:53:52  -895.049271  -3.08  -2.27    +75.4491
iter:  44 19:56:00  -894.570754  -3.10  -2.15    +75.9988
iter:  45 19:58:06  -894.398669  -3.24  -2.26    +76.4030
iter:  46 20:00:12  -894.376820  -3.50  -2.30    +75.9433
iter:  47 20:02:19  -894.852595  -3.46  -2.36    +75.9725
iter:  48 20:04:27  -894.626166  -3.44  -2.27    +75.8410
iter:  49 20:06:34  -894.577473  -3.44  -2.34    +75.5724
iter:  50 20:08:42  -894.696387  -3.52  -2.47    +75.9100
iter:  51 20:10:49  -895.092854  -3.18  -2.45    +75.7745
iter:  52 20:12:57  -894.581112  -3.46  -2.31    +75.7589
iter:  53 20:15:04  -894.866455  -3.70  -2.63    +75.5531
iter:  54 20:17:12  -894.815288  -3.55  -2.44    +75.6003
iter:  55 20:19:19  -894.764338c -3.94  -2.46    +75.5900
iter:  56 20:21:27  -894.919065  -3.74  -2.52    +74.7411
iter:  57 20:23:35  -894.985516  -4.08  -2.48    +74.6446
iter:  58 20:25:42  -894.990382c -3.97  -2.43    +74.0137
iter:  59 20:27:49  -899.717200  -2.60  -2.44    +73.2073
iter:  60 20:29:56  -895.008804  -2.98  -1.84    +73.7092
iter:  61 20:32:04  -894.931320  -3.83  -2.48    +73.6661
iter:  62 20:34:11  -894.978947c -3.88  -2.53    +73.6305
iter:  63 20:36:18  -894.888197c -3.98  -2.50    +73.4089
iter:  64 20:38:25  -895.072372  -3.25  -2.54    +73.2505
iter:  65 20:40:33  -898.520673  -2.83  -2.43    +73.1169
iter:  66 20:42:40  -894.952308  -3.03  -1.91    +71.9715
iter:  67 20:44:47  -894.900839  -3.95  -2.47    +71.7821
iter:  68 20:46:54  -894.924894c -4.18  -2.51    +71.6816
iter:  69 20:49:01  -894.836528c -4.14  -2.51    +71.6292
iter:  70 20:51:09  -895.115196  -4.06  -2.65    +71.6003
iter:  71 20:53:16  -895.367686  -3.30  -2.41    +71.5822
iter:  72 20:55:24  -895.051504  -3.61  -2.33    +71.4292
iter:  73 20:57:31  -894.882310  -3.86  -2.40    +71.3821
iter:  74 20:59:38  -894.908297  -3.87  -2.50    +71.4294
iter:  75 21:01:46  -894.805427c -3.59  -2.48    +71.5288
iter:  76 21:03:54  -894.898549c -3.92  -2.69    +71.5444
iter:  77 21:06:02  -895.374677  -3.42  -2.58    +71.7845
iter:  78 21:08:09  -894.921316  -3.74  -2.31    +71.8748
iter:  79 21:10:17  -895.013731  -4.29  -2.64    +72.0492
iter:  80 21:12:24  -894.855177  -3.84  -2.62    +71.6320
iter:  81 21:14:31  -894.771681  -4.02  -2.63    +71.6632
iter:  82 21:16:39  -894.809441c -4.39  -2.81    +71.8685
iter:  83 21:18:46  -894.801269c -4.22  -2.77    +71.9249
iter:  84 21:20:53  -894.836329c -4.20  -2.93    +71.9307
iter:  85 21:23:01  -894.876541c -3.92  -2.81    +72.2196
iter:  86 21:25:08  -894.863584c -4.33  -2.78    +72.3566
iter:  87 21:27:15  -894.831000c -4.40  -2.81    +72.2938
iter:  88 21:29:23  -894.844451c -4.55  -3.04    +72.3565
iter:  89 21:31:31  -894.842420c -4.57  -3.01    +72.4852
iter:  90 21:33:38  -894.841573c -4.70  -3.04    +72.5233
iter:  91 21:35:45  -894.841569c -4.94  -3.10    +72.6187
iter:  92 21:37:53  -894.842253c -5.28  -3.13    +72.6329
iter:  93 21:40:00  -894.876860c -4.91  -3.19    +72.6572
iter:  94 21:42:08  -894.849250c -4.86  -2.89    +72.6481
iter:  95 21:44:15  -894.848123c -4.96  -3.12    +72.6265
iter:  96 21:46:22  -894.851381c -4.95  -3.27    +72.7349
iter:  97 21:48:30  -894.857728c -5.16  -3.24    +72.7595
iter:  98 21:50:38  -894.846300c -5.07  -3.07    +72.8030
iter:  99 21:52:45  -894.854368c -4.78  -3.43    +72.7947
iter: 100 21:54:53  -894.849250c -5.06  -3.19    +72.7812
iter: 101 21:57:00  -894.847082c -5.62  -3.34    +72.8221
iter: 102 21:59:08  -894.848980c -5.79  -3.47    +72.8752
iter: 103 22:01:15  -894.848169c -5.70  -3.41    +72.9183
iter: 104 22:03:23  -894.847732c -5.86  -3.57    +72.9140
iter: 105 22:05:31  -894.849163c -5.60  -3.61    +72.8872
iter: 106 22:07:38  -894.849245c -5.83  -3.58    +72.8823
iter: 107 22:09:46  -894.848939c -6.11  -3.56    +72.8920
iter: 108 22:11:54  -894.849460c -6.10  -3.64    +72.9146
iter: 109 22:14:02  -894.849505c -5.91  -3.70    +72.9030
iter: 110 22:16:10  -894.851550c -5.83  -3.68    +72.9021
iter: 111 22:18:17  -894.850263c -5.70  -3.53    +72.9256
iter: 112 22:20:25  -894.851856c -5.86  -3.79    +72.9145
iter: 113 22:22:33  -894.850237c -6.30  -3.58    +72.9012
iter: 114 22:24:40  -894.850570c -6.11  -4.05c   +72.9083
iter: 115 22:26:48  -894.850598c -6.72  -3.91    +72.9154
iter: 116 22:28:56  -894.850876c -6.71  -4.19c   +72.9154
iter: 117 22:31:04  -894.851179c -6.61  -4.18c   +72.9151
iter: 118 22:33:12  -894.851509c -6.63  -4.13c   +72.9207
iter: 119 22:35:19  -894.851337c -6.92  -4.04c   +72.9157
iter: 120 22:37:27  -894.851633c -6.54  -4.04c   +72.9284
iter: 121 22:39:35  -894.851908c -6.76  -3.97    +72.9371
iter: 122 22:41:43  -894.852550c -6.33  -4.00c   +72.9406
iter: 123 22:43:51  -894.853206c -6.16  -3.79    +72.9454
iter: 124 22:45:58  -894.852504c -6.74  -3.81    +72.9355
iter: 125 22:48:06  -894.857486c -5.64  -3.91    +72.9369
iter: 126 22:50:13  -894.852324c -5.91  -3.36    +72.9294
iter: 127 22:52:21  -894.852574c -6.21  -3.95    +72.9118
iter: 128 22:54:28  -894.852868c -6.50  -4.05c   +72.9117
iter: 129 22:56:36  -894.852573c -6.95  -4.02c   +72.9101
iter: 130 22:58:44  -894.853234c -6.84  -4.15c   +72.9146
iter: 131 23:00:51  -894.852732c -6.70  -3.83    +72.9110
iter: 132 23:02:59  -894.852698c -6.73  -4.08c   +72.9127
iter: 133 23:05:06  -894.852880c -7.00  -3.99    +72.9111
iter: 134 23:07:14  -894.852840c -6.71  -3.96    +72.9035
iter: 135 23:09:22  -894.852852c -6.79  -4.05c   +72.9040
iter: 136 23:11:29  -894.852753c -6.45  -4.14c   +72.9090
iter: 137 23:13:37  -894.852942c -6.57  -3.93    +72.9158
iter: 138 23:15:45  -894.852965c -6.92  -4.01c   +72.9134
iter: 139 23:17:53  -894.852582c -6.90  -3.91    +72.9099
iter: 140 23:20:00  -894.852727c -6.86  -4.27c   +72.9092
iter: 141 23:22:08  -894.852978c -7.11  -4.02c   +72.9117
iter: 142 23:24:16  -894.852805c -7.35  -4.12c   +72.9071
iter: 143 23:26:24  -894.852702c -6.51  -4.10c   +72.9077
iter: 144 23:28:33  -894.852446c -6.77  -3.90    +72.9087
iter: 145 23:30:41  -894.852468c -7.14  -4.34c   +72.9093
iter: 146 23:32:49  -894.852471c -7.09  -4.17c   +72.9073
iter: 147 23:34:58  -894.852432c -7.56c -4.41c   +72.9088

Converged after 147 iterations.

Dipole moment: (64.034453, 51.109082, 0.060828) |e|*Ang

Total magnetic moment: (0.000000, 0.000000, 72.908813)
Local magnetic moments:
   0 Cr ( 0.000000,  0.000000, -3.433613)
   1 Cr ( 0.000000,  0.000000, -2.932048)
   2 Al ( 0.000000,  0.000000, -0.027904)
   3 Fe ( 0.000000,  0.000000,  2.950011)
   4 Cr ( 0.000000,  0.000000, -1.957080)
   5 Co ( 0.000000,  0.000000,  1.046851)
   6 Co ( 0.000000,  0.000000,  1.367063)
   7 Ni ( 0.000000,  0.000000,  0.110314)
   8 Fe ( 0.000000,  0.000000,  2.180636)
   9 Ni ( 0.000000,  0.000000,  0.205055)
  10 Ni ( 0.000000,  0.000000,  0.327182)
  11 Ni ( 0.000000,  0.000000,  0.318655)
  12 Al ( 0.000000,  0.000000, -0.027768)
  13 Cr ( 0.000000,  0.000000, -3.015529)
  14 Cr ( 0.000000,  0.000000,  3.224949)
  15 Fe ( 0.000000,  0.000000,  2.427935)
  16 Fe ( 0.000000,  0.000000,  2.629646)
  17 Fe ( 0.000000,  0.000000,  2.736235)
  18 Co ( 0.000000,  0.000000,  1.562779)
  19 Fe ( 0.000000,  0.000000,  2.618184)
  20 Al ( 0.000000,  0.000000, -0.006113)
  21 Ni ( 0.000000,  0.000000,  0.541827)
  22 Co ( 0.000000,  0.000000,  0.931607)
  23 Co ( 0.000000,  0.000000,  1.873023)
  24 Al ( 0.000000,  0.000000, -0.029554)
  25 Al ( 0.000000,  0.000000, -0.002081)
  26 Fe ( 0.000000,  0.000000,  2.052139)
  27 Al ( 0.000000,  0.000000, -0.008287)
  28 Ni ( 0.000000,  0.000000, -0.288235)
  29 Cr ( 0.000000,  0.000000,  0.743540)
  30 Al ( 0.000000,  0.000000, -0.020845)
  31 Co ( 0.000000,  0.000000,  1.234357)
  32 Cr ( 0.000000,  0.000000, -2.387701)
  33 Cr ( 0.000000,  0.000000, -1.952572)
  34 Al ( 0.000000,  0.000000, -0.006623)
  35 Ni ( 0.000000,  0.000000,  0.378824)
  36 Co ( 0.000000,  0.000000,  1.584146)
  37 Fe ( 0.000000,  0.000000,  2.468697)
  38 Fe ( 0.000000,  0.000000,  2.187666)
  39 Fe ( 0.000000,  0.000000,  2.271990)
  40 Cr ( 0.000000,  0.000000,  0.956143)
  41 Cr ( 0.000000,  0.000000, -1.745914)
  42 Fe ( 0.000000,  0.000000,  2.415304)
  43 Fe ( 0.000000,  0.000000,  2.262201)
  44 Al ( 0.000000,  0.000000, -0.036529)
  45 Cr ( 0.000000,  0.000000,  0.149556)
  46 Ni ( 0.000000,  0.000000,  0.280505)
  47 Ni ( 0.000000,  0.000000,  0.609552)
  48 Co ( 0.000000,  0.000000,  1.522047)
  49 Cr ( 0.000000,  0.000000, -0.036532)
  50 Co ( 0.000000,  0.000000,  1.186904)
  51 Fe ( 0.000000,  0.000000,  2.255038)
  52 Fe ( 0.000000,  0.000000,  2.441711)
  53 Ni ( 0.000000,  0.000000,  0.286761)
  54 Co ( 0.000000,  0.000000,  1.155108)
  55 Cr ( 0.000000,  0.000000, -2.327155)
  56 Fe ( 0.000000,  0.000000,  2.539902)
  57 Co ( 0.000000,  0.000000,  1.369772)
  58 Co ( 0.000000,  0.000000,  1.423227)
  59 Fe ( 0.000000,  0.000000,  2.223117)
  60 Fe ( 0.000000,  0.000000,  2.332289)
  61 Al ( 0.000000,  0.000000, -0.045579)
  62 Ni ( 0.000000,  0.000000,  0.255503)
  63 Cr ( 0.000000,  0.000000, -2.473859)
  64 Co ( 0.000000,  0.000000,  1.467299)
  65 Fe ( 0.000000,  0.000000,  1.943956)
  66 Al ( 0.000000,  0.000000, -0.016511)
  67 Ni ( 0.000000,  0.000000,  0.225703)
  68 Al ( 0.000000,  0.000000, -0.031719)
  69 Cr ( 0.000000,  0.000000, -0.870478)
  70 Cr ( 0.000000,  0.000000, -0.804052)
  71 Fe ( 0.000000,  0.000000,  2.322708)
  72 Al ( 0.000000,  0.000000, -0.046022)
  73 Fe ( 0.000000,  0.000000,  2.245070)
  74 Ni ( 0.000000,  0.000000,  0.292362)
  75 Cr ( 0.000000,  0.000000, -1.242523)
  76 Co ( 0.000000,  0.000000,  0.533797)
  77 Co ( 0.000000,  0.000000,  1.567865)
  78 Ni ( 0.000000,  0.000000,  0.640532)
  79 Co ( 0.000000,  0.000000,  1.578051)
  80 Al ( 0.000000,  0.000000, -0.005848)
  81 Co ( 0.000000,  0.000000,  1.106205)
  82 Fe ( 0.000000,  0.000000,  2.495295)
  83 Ni ( 0.000000,  0.000000,  0.442109)
  84 Cr ( 0.000000,  0.000000,  1.578779)
  85 Ni ( 0.000000,  0.000000,  0.143666)
  86 Fe ( 0.000000,  0.000000,  2.398102)
  87 Ni ( 0.000000,  0.000000,  0.283334)
  88 Co ( 0.000000,  0.000000,  1.146196)
  89 Ni ( 0.000000,  0.000000,  0.575550)
  90 Al ( 0.000000,  0.000000, -0.025643)
  91 Co ( 0.000000,  0.000000,  0.882412)
  92 Ni ( 0.000000,  0.000000,  0.225065)
  93 Cr ( 0.000000,  0.000000, -2.091079)
  94 Ni ( 0.000000,  0.000000,  0.317362)
  95 Ni ( 0.000000,  0.000000,  0.163891)
  96 Cr ( 0.000000,  0.000000,  1.885948)
  97 Cr ( 0.000000,  0.000000, -1.672357)
  98 Co ( 0.000000,  0.000000,  1.321468)
  99 Co ( 0.000000,  0.000000,  1.767955)
 100 Co ( 0.000000,  0.000000,  0.788790)
 101 Cr ( 0.000000,  0.000000, -2.658050)
 102 Fe ( 0.000000,  0.000000,  2.833473)
 103 Ni ( 0.000000,  0.000000,  0.655836)
 104 Fe ( 0.000000,  0.000000,  3.286219)
 105 Cr ( 0.000000,  0.000000,  1.166827)
 106 Fe ( 0.000000,  0.000000,  2.902493)
 107 Ni ( 0.000000,  0.000000,  0.479085)
 108 Ni ( 0.000000,  0.000000,  0.341270)
 109 Cr ( 0.000000,  0.000000, -1.904185)
 110 Al ( 0.000000,  0.000000, -0.014368)
 111 Al ( 0.000000,  0.000000, -0.034542)
 112 Cr ( 0.000000,  0.000000, -2.847195)
 113 Al ( 0.000000,  0.000000, -0.018027)
 114 Co ( 0.000000,  0.000000,  1.539734)
 115 Cr ( 0.000000,  0.000000, -3.237494)
 116 Co ( 0.000000,  0.000000,  1.667022)
 117 Fe ( 0.000000,  0.000000,  3.090295)
 118 Ni ( 0.000000,  0.000000,  0.702797)
 119 Co ( 0.000000,  0.000000,  1.552517)
 120 Ni ( 0.000000,  0.000000,  0.092384)
 121 Cr ( 0.000000,  0.000000, -2.261441)
 122 Co ( 0.000000,  0.000000,  1.308684)
 123 Fe ( 0.000000,  0.000000,  2.516670)
 124 Ni ( 0.000000,  0.000000,  0.528097)

Energy contributions relative to reference atoms: (reference = -3927717.499734)

Kinetic:       +325.201336
Potential:     -326.268311
External:        +0.000000
XC:            -927.871855
Entropy (-ST):   -5.230221
Local:          +36.701508
--------------------------
Free energy:   -897.467542
Extrapolated:  -894.852432

Dipole-layer corrected work functions: 4.323457, 4.243603 eV

Spin contamination: 51.503787 electrons
Showing all kpts
                      Up                     Down
 Kpt  Band  Eigenvalues  Occupancy  Eigenvalues  Occupancy
  0   547      0.26959    0.99831      1.23386    0.03702
  0   548      0.27998    0.99813      1.23793    0.03560
  0   549      0.28999    0.99793      1.24541    0.03312
  0   550      0.30679    0.99756      1.25534    0.03008

  1   547      0.27137    0.99828      1.23446    0.03681
  1   548      0.28423    0.99805      1.23779    0.03565
  1   549      0.29754    0.99777      1.24414    0.03353
  1   550      0.30675    0.99756      1.25747    0.02947


Fermi level: 0.90801

No gap

Forces in eV/Ang:
  0 Cr   -0.66851   -0.72233   -0.20752
  1 Cr    0.71596    0.29644   -0.73118
  2 Al    0.06517   -0.13660   -0.40516
  3 Fe    0.45524   -0.01034    0.87073
  4 Cr   -0.59686    0.27437   -0.87583
  5 Co    0.25690   -0.23984    0.22547
  6 Co    0.19022    0.12950    0.34040
  7 Ni    1.35522   -2.10879    1.35687
  8 Fe   -0.86996   -1.13869   -1.42820
  9 Ni   -0.75394    0.16899    0.33365
 10 Ni    1.48322    1.00321    0.57288
 11 Ni   -1.16597    0.57427    0.05637
 12 Al    1.20218    0.01648   -0.49555
 13 Cr    0.91555    0.05053   -0.09794
 14 Cr   -0.85011   -0.15502    0.56571
 15 Fe   -0.32643    0.52254   -0.38205
 16 Fe   -0.00032    0.63688    0.95262
 17 Fe   -0.50782    0.51441    0.13844
 18 Co    0.26371    0.42293    0.97988
 19 Fe   -0.96698   -0.97801    0.36675
 20 Al    0.66917   -0.97103   -0.22612
 21 Ni   -0.45283   -0.14769    0.80769
 22 Co    1.06074   -0.23152   -0.43911
 23 Co    0.09528   -0.60962    1.28643
 24 Al    0.22724    1.56002   -0.88885
 25 Al    0.25934    0.65220   -0.36016
 26 Fe   -0.13102   -1.11064   -0.16332
 27 Al   -3.26352   -0.70081    0.20508
 28 Ni    0.32622    0.05539   -1.19610
 29 Cr    3.86529    1.46373   -0.89150
 30 Al   -0.79426    0.57976    1.25461
 31 Co    1.11670    0.84346   -0.04658
 32 Cr   -0.57469    1.73391    1.52744
 33 Cr   -0.06742    0.01353   -0.38470
 34 Al    0.37061    1.07574    1.04825
 35 Ni   -0.86898   -0.88327   -0.61076
 36 Co    0.33208   -0.14973    0.53383
 37 Fe   -0.87947   -0.57398   -0.17911
 38 Fe   -0.00893   -0.66497    2.26824
 39 Fe    0.89138   -0.63925   -0.86237
 40 Cr    1.62310   -0.72071   -0.35589
 41 Cr   -0.12277    0.02809   -0.30267
 42 Fe   -0.47896    0.34202   -0.14451
 43 Fe   -1.48604    0.97309   -2.31491
 44 Al   -2.15363   -0.65851   -1.81351
 45 Cr    0.97821    0.39524   -0.88306
 46 Ni   -0.16078    0.25061   -0.02161
 47 Ni   -0.93824    0.03380   -0.47183
 48 Co    1.41010    0.74180   -0.11081
 49 Cr   -0.31347   -0.72851   -0.35907
 50 Co   -0.21990   -0.60719   -1.27796
 51 Fe   -0.29185    0.02769    0.68563
 52 Fe    0.27894    1.02077    0.62999
 53 Ni   -1.44883   -1.52498   -0.30304
 54 Co    0.90786    0.21464    0.03548
 55 Cr    0.04495    0.22338   -1.40886
 56 Fe    0.07605    0.15855    0.16341
 57 Co   -1.31723   -1.26847   -2.09531
 58 Co    1.92469    0.75794   -0.73947
 59 Fe   -0.72468    0.46255    1.38021
 60 Fe   -0.48821   -0.33789    1.03031
 61 Al    0.58976    0.22202    0.33864
 62 Ni   -0.31517   -0.97369   -0.71444
 63 Cr    0.12823   -0.81976    1.32643
 64 Co   -1.00306   -0.94942   -0.93025
 65 Fe    1.08596   -0.36971   -0.08639
 66 Al    0.55694   -0.73021   -0.63677
 67 Ni   -0.35897    0.72117   -0.12650
 68 Al    0.51906    2.20545    1.05080
 69 Cr    1.05181   -0.47739    1.76229
 70 Cr   -0.37637    0.64386    1.38779
 71 Fe    0.56808   -0.18105    0.66883
 72 Al   -0.49402   -1.79837   -0.81215
 73 Fe   -1.58952    0.93785   -0.46485
 74 Ni    0.40980   -0.20994    0.90438
 75 Cr    1.09084    0.82831   -0.85062
 76 Co    1.12147    1.10754   -0.73387
 77 Co    0.50126   -0.77862    0.39166
 78 Ni   -0.61385   -0.41966   -1.29535
 79 Co    0.68637   -0.48123    1.09535
 80 Al    0.61672    1.81186   -1.14223
 81 Co    0.05955    0.02376    0.13221
 82 Fe    0.09832    0.53767   -0.78728
 83 Ni    0.22742   -0.05353    2.74304
 84 Cr   -1.53339    0.12115    0.70130
 85 Ni   -0.34017   -1.23991   -1.00170
 86 Fe    0.50746    0.94492   -0.10751
 87 Ni    0.22976   -0.33846    0.71463
 88 Co    0.46188    1.19116    0.46036
 89 Ni   -0.48199    0.07889   -0.67939
 90 Al   -0.14090    0.83053   -0.07914
 91 Co    0.07496   -1.84015    0.28137
 92 Ni   -0.30278    0.63751   -0.61319
 93 Cr   -0.47923    0.03960    0.90892
 94 Ni   -0.21287   -1.15279   -0.15562
 95 Ni   -1.17627   -0.54540    0.18544
 96 Cr   -0.02007    0.43883    0.16040
 97 Cr   -0.20673   -0.95524   -0.22249
 98 Co    0.37306    0.88016    0.15276
 99 Co    0.20065    0.20797    0.05375
100 Co   -0.48786   -0.50156    0.40602
101 Cr    0.48388    0.25253    0.22111
102 Fe   -0.00375    0.50917   -0.40294
103 Ni    0.04235    0.10314    0.37817
104 Fe    0.00200    0.05590   -1.91556
105 Cr   -0.57390    0.00901    0.97823
106 Fe    0.07424    0.62867   -0.90977
107 Ni   -0.22174   -0.23877   -0.68181
108 Ni    0.45465   -0.03352    0.47455
109 Cr   -1.34660   -0.41043    0.88027
110 Al    0.10657    0.48357    0.08965
111 Al   -4.55652   -0.37544    1.34163
112 Cr    3.73491    0.77820    0.27569
113 Al    1.07232    0.11958    0.43866
114 Co    0.08145   -0.06433   -0.86173
115 Cr    0.04016    0.42642    1.84890
116 Co    0.51481   -0.58262   -1.53287
117 Fe   -0.34447    0.02652   -1.27904
118 Ni   -0.85546   -0.47758   -1.41399
119 Co    0.27654    0.02442   -0.31908
120 Ni   -0.38667    1.26593   -0.00666
121 Cr    0.15459   -1.47426    0.07478
122 Co    0.02432   -0.60165    0.47524
123 Fe    0.34694   -0.28083    0.84736
124 Ni    0.39532    0.05538    0.41194

Timing:                              incl.     excl.
-----------------------------------------------------------
Forces:                             35.699    35.699   0.2% |
Hamiltonian:                         1.763     0.011   0.0% |
 Atomic:                             0.349     0.001   0.0% |
  XC Correction:                     0.348     0.348   0.0% |
 Calculate atomic Hamiltonians:      0.840     0.840   0.0% |
 Communicate:                        0.130     0.130   0.0% |
 Initialize Hamiltonian:             0.000     0.000   0.0% |
 Poisson:                            0.097     0.097   0.0% |
 XC 3D grid:                         0.335     0.335   0.0% |
LCAO initialization:               234.077     0.538   0.0% |
 LCAO eigensolver:                  10.769     0.011   0.0% |
  Calculate projections:             0.000     0.000   0.0% |
  DenseAtomicCorrection:             0.000     0.000   0.0% |
  Distribute overlap matrix:         6.534     6.534   0.0% |
  Orbital Layouts:                   4.166     4.166   0.0% |
  Potential matrix:                  0.006     0.006   0.0% |
  Sum over cells:                    0.052     0.052   0.0% |
 LCAO to grid:                     220.883   220.883   1.2% |
 Set positions (LCAO WFS):           1.886     1.623   0.0% |
  Basic WFS set positions:           0.004     0.004   0.0% |
  Basis functions set positions:     0.001     0.001   0.0% |
  P tci:                             0.000     0.000   0.0% |
  ST tci:                            0.101     0.101   0.0% |
  mktci:                             0.158     0.158   0.0% |
PWDescriptor:                        0.103     0.103   0.0% |
SCF-cycle:                       18795.819     1.213   0.0% |
 Davidson:                       18215.293  6113.020  32.0% |------------|
  Apply H:                         342.011   336.311   1.8% ||
   HMM T:                            5.700     5.700   0.0% |
  Subspace diag:                  1994.800     0.048   0.0% |
   calc_h_matrix:                  819.420   519.868   2.7% ||
    Apply H:                       299.552   293.689   1.5% ||
     HMM T:                          5.863     5.863   0.0% |
   diagonalize:                    168.014   168.014   0.9% |
   rotate_psi:                    1007.318  1007.318   5.3% |-|
  calc. matrices:                 4654.531  4079.104  21.4% |--------|
   Apply H:                        575.427   563.517   3.0% ||
    HMM T:                          11.909    11.909   0.1% |
  diagonalize:                    2988.103  2988.103  15.7% |-----|
  rotate_psi:                     2122.829  2122.829  11.1% |---|
 Density:                          314.495     0.004   0.0% |
  Atomic density matrices:           3.347     3.347   0.0% |
  Mix:                             145.836   145.836   0.8% |
  Multipole moments:                 0.090     0.090   0.0% |
  Pseudo density:                  165.218   165.212   0.9% |
   Symmetrize density:               0.006     0.006   0.0% |
 Hamiltonian:                      248.603     1.525   0.0% |
  Atomic:                           53.826     0.188   0.0% |
   XC Correction:                   53.638    53.638   0.3% |
  Calculate atomic Hamiltonians:   122.233   122.233   0.6% |
  Communicate:                      17.828    17.828   0.1% |
  Poisson:                           5.572     5.572   0.0% |
  XC 3D grid:                       47.619    47.619   0.2% |
 Orthonormalize:                    16.215     0.000   0.0% |
  calc_s_matrix:                     1.946     1.946   0.0% |
  inverse-cholesky:                  0.681     0.681   0.0% |
  projections:                      10.109    10.109   0.1% |
  rotate_psi_s:                      3.479     3.479   0.0% |
Set symmetry:                        0.001     0.001   0.0% |
Other:                               7.148     7.148   0.0% |
-----------------------------------------------------------
Total:                                     19074.610 100.0%

Date: Mon Apr 17 23:35:37 2023
