
  ___ ___ ___ _ _ _  
 |   |   |_  | | | | 
 | | | | | . | | | | 
 |__ |  _|___|_____|  22.8.0
 |___|_|             

User:   c.zeng@d0038
Date:   Wed Apr 19 10:34:00 2023
Arch:   x86_64
Pid:    217054
CWD:    /home/c.zeng/projects/hea-corrosion/hea-mlp/data-curation/surface-mcmc/dft-jobs/190
Python: 3.8.1
gpaw:   /home/c.zeng/usr/installs/gpaw/source/gpaw-22.8.0/gpaw
_gpaw:  /home/c.zeng/usr/installs/gpaw/source/gpaw-22.8.0/
        _gpaw.cpython-38-x86_64-linux-gnu.so
ase:    /home/c.zeng/.local/lib/python3.8/site-packages/ase-3.22.1-py3.8.egg/ase (version 3.22.1)
numpy:  /home/c.zeng/.local/lib/python3.8/site-packages/numpy (version 1.24.2)
scipy:  /home/c.zeng/.local/lib/python3.8/site-packages/scipy (version 1.10.1)
libxc:  4.2.3
units:  Angstrom and eV
cores: 30
OpenMP: False
OMP_NUM_THREADS: 1

Input parameters:
  convergence: {energy: 0.0001}
  kpts: [2 2 1]
  maxiter: 666
  mode: {ecut: 350.0,
         name: pw}
  occupations: {fixmagmom: False,
                name: fermi-dirac,
                width: 0.1}
  poissonsolver: {dipolelayer: xy}
  spinpol: True
  symmetry: {point_group: False}
  xc: PBE

System changes: positions, numbers, cell, pbc, initial_charges, initial_magmoms 

Initialize ...

species:
  Ni:
    name: Nickel
    id: 0d9f38a9d6e76a2886f07bb4381f212b
    Z: 28.0
    valence: 16
    core: 12
    charge: 0.0
    file: /home/c.zeng/usr/data/gpaw-setups-0.9.20000/Ni.PBE.gz
    compensation charges: {type: gauss,
                           rc: 0.36,
                           lmax: 2}
    cutoffs: {filter: 2.14,
              core: 1.98}
    valence states:
      #              energy  rcut
      - 4s(2.00)    -5.642   1.164
      - 3p(6.00)   -71.394   1.207
      - 4p(0.00)    -1.226   1.207
      - 3d(8.00)    -8.875   1.138
      -  s          21.570   1.164
      -  d          18.337   1.138
  
    # Using partial waves for Ni as LCAO basis

  Cr:
    name: Chromium
    id: 33f258bda2ca9f93018e70263a35547b
    Z: 24.0
    valence: 6
    core: 18
    charge: 0.0
    file: /home/c.zeng/usr/data/gpaw-setups-0.9.20000/Cr.PBE.gz
    compensation charges: {type: gauss,
                           rc: 0.35,
                           lmax: 2}
    cutoffs: {filter: 2.14,
              core: 3.04}
    valence states:
      #              energy  rcut
      - 4s(1.00)    -4.007   1.164
      - 4p(0.00)    -0.989   1.217
      - 3d(5.00)    -2.913   1.111
      -  s          23.205   1.164
      -  p          26.223   1.217
      -  d          24.299   1.111
  
    # Using partial waves for Cr as LCAO basis

  Al:
    name: Aluminium
    id: 0292cae29f5d6237e50f6abdd43a7bdd
    Z: 13.0
    valence: 3
    core: 10
    charge: 0.0
    file: /home/c.zeng/usr/data/gpaw-setups-0.9.20000/Al.PBE.gz
    compensation charges: {type: gauss,
                           rc: 0.34,
                           lmax: 2}
    cutoffs: {filter: 1.91,
              core: 2.36}
    valence states:
      #              energy  rcut
      - 3s(2.00)    -7.753   1.085
      - 3p(1.00)    -2.712   1.085
      -  s          19.459   1.085
      -  p          24.499   1.085
      -  d           0.000   1.085
  
    # Using partial waves for Al as LCAO basis

  Co:
    name: Cobalt
    id: 339d20d5b0b93d2de9531a1bee871d91
    Z: 27.0
    valence: 9
    core: 18
    charge: 0.0
    file: /home/c.zeng/usr/data/gpaw-setups-0.9.20000/Co.PBE.gz
    compensation charges: {type: gauss,
                           rc: 0.32,
                           lmax: 2}
    cutoffs: {filter: 1.87,
              core: 2.55}
    valence states:
      #              energy  rcut
      - 4s(2.00)    -5.469   1.005
      - 4p(0.00)    -1.277   1.058
      - 3d(7.00)    -8.205   1.005
      -  s          21.742   1.005
      -  p          25.934   1.058
      -  d          19.007   1.005
  
    # Using partial waves for Co as LCAO basis

  Fe:
    name: Iron
    id: 37abbd8d6c3c35915a9b583b742da910
    Z: 26.0
    valence: 8
    core: 18
    charge: 0.0
    file: /home/c.zeng/usr/data/gpaw-setups-0.9.20000/Fe.PBE.gz
    compensation charges: {type: gauss,
                           rc: 0.33,
                           lmax: 2}
    cutoffs: {filter: 2.06,
              core: 2.67}
    valence states:
      #              energy  rcut
      - 4s(2.00)    -5.291   1.164
      - 4p(0.00)    -1.326   1.058
      - 3d(6.00)    -7.505   1.058
      -  s          21.920   1.164
      -  p          25.885   1.058
      -  d          19.706   1.058
  
    # Using partial waves for Fe as LCAO basis

Reference energy: -3927717.499734  # eV

Spin-polarized calculation.
Magnetic moment: 149.100000

Convergence criteria:
 Maximum [total energy] change in last 3 cyles: 0.0001 eV / electron
 Maximum integral of absolute [dens]ity change: 0.0001 electrons / valence electron
 Maximum integral of absolute [eigenst]ate change: 4e-08 eV^2 / valence electron
 Maximum number of scf [iter]ations: 666
 (Square brackets indicate name in SCF output, whereas a 'c' in
 the SCF output indicates the quantity has converged.)

Symmetries present (total): 1

  ( 1  0  0)
  ( 0  1  0)
  ( 0  0  1)

4 k-points: 2 x 2 x 1 Monkhorst-Pack grid
2 k-points in the irreducible part of the Brillouin zone
       k-points in crystal coordinates                weights
   0:     0.25000000   -0.25000000    0.00000000          2/4
   1:     0.25000000    0.25000000    0.00000000          2/4

Wave functions: Plane wave expansion
  Cutoff energy: 350.000 eV
  Number of coefficients (min, max): 60143, 60161
  Pulay-stress correction: 0.000000 eV/Ang^3 (de/decut=0.000000)
  Using FFTW library
  ScaLapack parameters: grid=1x1, blocksize=None
  Wavefunction extrapolation:
    Improved wavefunction reuse through dual PAW basis 

Occupation numbers: Fermi-Dirac:
  width: 0.1000  # eV
 

Eigensolver
   Davidson(niter=2) 

Densities:
  Coarse grid: 56*56*128 grid
  Fine grid: 112*112*256 grid
  Total Charge: 0.000000 

Density mixing:
  Method: difference
  Backend: pulay
  Linear mixing parameter: 0.05
  old densities: 5
  Damping of long wavelength oscillations: 50 

Hamiltonian:
  XC and Coulomb potentials evaluated on a 112*112*256 grid
  Using the PBE Exchange-Correlation functional
  External potential:
    NoExternalPotential
 

XC parameters: PBE with 2 nearest neighbor stencil

Memory estimate:
  Process memory now: 379.18 MiB
  Calculator: 2209.57 MiB
    Density: 18.91 MiB
      Arrays: 7.39 MiB
      Localized functions: 8.57 MiB
      Mixer: 2.95 MiB
    Hamiltonian: 5.75 MiB
      Arrays: 5.49 MiB
      XC: 0.00 MiB
      Poisson: 0.00 MiB
      vbar: 0.26 MiB
    Wavefunctions: 2184.92 MiB
      Arrays psit_nG: 1382.48 MiB
      Eigensolver: 782.37 MiB
      Projections: 3.31 MiB
      Projectors: 1.16 MiB
      PW-descriptor: 15.59 MiB

Total number of cores used: 30
Parallelization over k-points: 2
Domain decomposition: 1 x 3 x 5

Number of atoms: 125
Number of atomic orbitals: 1116
Number of bands in calculation: 753
Number of valence electrons: 1098
Bands to converge: occupied

... initialized

Initializing position-dependent things.

Density initialized from atomic densities
Creating initial wave functions:
  753 bands from LCAO basis set

                                                               
                                                               
                                                               
                                                               
                          Ni          Ni     Ni    Co          
                            Ni    Co    Cr    Co    Ni         
                                                               
                       Al    CNi   FFe   CCr   NCr   Cr        
                   Fe   CFe    Al    Co    Ni    Cr            
        Ni                       Cr                            
               Ni   FAl  CFCr  CCo   FFe    Cr    Ni           
          Fe    Fe   NAl   FCo   CCr   FFe   Cr                
           Ni    Co    Fe Fe  FeCo  Co       Al   Fe           
                Al    Co    ACo   FAl   CFe   Co    Cr         
            Ni   AFe   ANi    Al    Co    Fe                   
        Ni    Co    Ni    Co Ni Co Cr    Ni    Ni    Co        
             Co    Al   CFe    Cr    Fe    Fe    Ni            
         Cr    Cr   CAl   AFe   CFe   Ni     Ni                
                Fe          Ni                                 
               Cr     Cr          Co    Co                     
           Cr    Cr    Ni    Al     Ni                         
                                                               
                                                               
                                                               
                                                               
                                                               

Positions:
   0 Ni    12.638410    1.500640   10.473714    ( 0.0000,  0.0000,  0.0000)
   1 Cr     2.522937    1.464200   10.500925    ( 0.0000,  0.0000,  0.0000)
   2 Cr     5.053910    1.499679   10.110352    ( 0.0000,  0.0000,  0.0000)
   3 Ni     7.557679    1.474012   10.651858    ( 0.0000,  0.0000,  2.0000)
   4 Al    10.063098    1.480808   10.510582    ( 0.0000,  0.0000,  0.0000)
   5 Co    13.876684    3.701125   10.575129    ( 0.0000,  0.0000,  2.1000)
   6 Cr     3.765065    3.676845   10.563946    ( 0.0000,  0.0000,  2.1000)
   7 Cr     6.296333    3.639618   10.618367    ( 0.0000,  0.0000,  1.5000)
   8 Ni     8.839996    3.605986   10.672787    ( 0.0000,  0.0000,  2.0000)
   9 Co    11.352953    3.684964   10.549299    ( 0.0000,  0.0000,  1.5000)
  10 Ni    15.161276    5.824565   10.498577    ( 0.0000,  0.0000,  1.5000)
  11 Co     5.025278    5.836147   10.574572    ( 0.0000,  0.0000,  1.5000)
  12 Al     7.581095    5.809082   10.450437    ( 0.0000,  0.0000,  0.0000)
  13 Cr    10.115365    5.826084   10.611674    ( 0.0000,  0.0000,  0.0000)
  14 Ni    12.590175    5.838835   10.516863    ( 0.0000,  0.0000,  0.0000)
  15 Ni    16.389239    7.986063   10.611380    ( 0.0000,  0.0000,  2.0000)
  16 Co     6.336726    8.007129   10.633278    ( 0.0000,  0.0000,  2.0000)
  17 Cr     8.860477    8.041112   10.593798    ( 0.0000,  0.0000,  2.0000)
  18 Cr    11.352548    8.028917   10.631722    ( 0.0000,  0.0000,  2.1000)
  19 Fe    13.851584    7.983364   10.505680    ( 0.0000,  0.0000,  2.0000)
  20 Co    17.745314   10.116747   10.074659    ( 0.0000,  0.0000,  0.0000)
  21 Ni     7.636083   10.176440   10.530337    ( 0.0000,  0.0000,  1.5000)
  22 Cr    10.089221   10.193890   10.552029    ( 0.0000,  0.0000,  2.1000)
  23 Ni    12.605039   10.182297   10.523703    ( 0.0000,  0.0000,  2.1000)
  24 Ni    15.064141   10.171206   10.358709    ( 0.0000,  0.0000,  0.0000)
  25 Fe     6.302566   10.804692   12.567941    ( 0.0000,  0.0000,  0.0000)
  26 Co     8.851494   10.898072   12.591335    ( 0.0000,  0.0000,  2.0000)
  27 Fe     5.076351    0.044825   12.536856    ( 0.0000,  0.0000,  0.0000)
  28 Al    13.909654   10.893450   12.608008    ( 0.0000,  0.0000,  1.5000)
  29 Fe    16.352727   10.867270   12.510966    ( 0.0000,  0.0000,  0.0000)
  30 Cr     1.347779    2.234477   12.606775    ( 0.0000,  0.0000,  0.0000)
  31 Cr     3.839937    2.209280   12.530604    ( 0.0000,  0.0000,  2.1000)
  32 Al     6.320342    2.230959   12.618927    ( 0.0000,  0.0000,  0.0000)
  33 Fe     8.782195    2.170075   12.671851    ( 0.0000,  0.0000,  0.0000)
  34 Fe    11.261675    2.259871   12.615258    ( 0.0000,  0.0000,  0.0000)
  35 Co     2.575110    4.392020   12.601990    ( 0.0000,  0.0000,  1.5000)
  36 Al     5.033696    4.384579   12.606305    ( 0.0000,  0.0000,  2.1000)
  37 Fe     7.564379    4.363294   12.629230    ( 0.0000,  0.0000,  2.0000)
  38 Cr    10.052143    4.418954   12.638359    ( 0.0000,  0.0000,  2.0000)
  39 Fe    12.588573    4.408563   12.597529    ( 0.0000,  0.0000,  2.0000)
  40 Al     3.825223    6.539248   12.601110    ( 0.0000,  0.0000,  0.0000)
  41 Al     6.285427    6.556719   12.584144    ( 0.0000,  0.0000,  0.0000)
  42 Cr     8.820218    6.557845   12.561307    ( 0.0000,  0.0000,  2.0000)
  43 Al    11.348710    6.570170   12.593977    ( 0.0000,  0.0000,  2.0000)
  44 Fe    13.909132    6.548655   12.525790    ( 0.0000,  0.0000,  0.0000)
  45 Cr    17.626555    8.699096   12.604162    ( 0.0000,  0.0000,  0.0000)
  46 Al     7.618200    8.725899   12.612235    ( 0.0000,  0.0000,  1.5000)
  47 Fe    10.087472    8.739109   12.626412    ( 0.0000,  0.0000,  1.5000)
  48 Cr    12.639844    8.757204   12.602842    ( 0.0000,  0.0000,  2.1000)
  49 Co    15.116728    8.758580   12.586668    ( 0.0000,  0.0000,  0.0000)
  50 Ni     1.234973    0.732950   14.688585    ( 0.0000,  0.0000,  2.1000)
  51 Co     3.756660    0.776875   14.661198    ( 0.0000,  0.0000,  2.0000)
  52 Ni     6.353364    0.739044   14.685297    ( 0.0000,  0.0000,  2.0000)
  53 Co     8.843197    0.707504   14.667421    ( 0.0000,  0.0000,  1.5000)
  54 Co    11.308149    0.724265   14.667803    ( 0.0000,  0.0000,  2.1000)
  55 Ni     2.562577    2.918904   14.681980    ( 0.0000,  0.0000,  0.0000)
  56 Fe     5.047514    2.876224   14.673262    ( 0.0000,  0.0000,  2.0000)
  57 Ni     7.587094    2.887588   14.717057    ( 0.0000,  0.0000,  2.1000)
  58 Al    10.059655    2.923122   14.721842    ( 0.0000,  0.0000,  2.1000)
  59 Co    12.581173    2.902022   14.699768    ( 0.0000,  0.0000,  2.0000)
  60 Al     3.748435    5.096399   14.714592    ( 0.0000,  0.0000,  2.0000)
  61 Co     6.262723    5.033089   14.723016    ( 0.0000,  0.0000,  0.0000)
  62 Co     8.857244    5.082347   14.703790    ( 0.0000,  0.0000,  1.5000)
  63 Al    11.325799    5.051271   14.695776    ( 0.0000,  0.0000,  0.0000)
  64 Fe    13.876183    5.054495   14.660318    ( 0.0000,  0.0000,  2.1000)
  65 Ni     5.052567    7.279870   14.704259    ( 0.0000,  0.0000,  2.0000)
  66 Fe     7.623886    7.324091   14.709690    ( 0.0000,  0.0000,  0.0000)
  67 Co    10.091768    7.250248   14.682744    ( 0.0000,  0.0000,  1.5000)
  68 Fe    12.609710    7.231017   14.738808    ( 0.0000,  0.0000,  0.0000)
  69 Cr    15.165859    7.289737   14.678898    ( 0.0000,  0.0000,  0.0000)
  70 Cr     6.290924    9.483294   14.711891    ( 0.0000,  0.0000,  0.0000)
  71 Cr     8.799610    9.526006   14.705668    ( 0.0000,  0.0000,  2.0000)
  72 Fe    11.328536    9.524116   14.771390    ( 0.0000,  0.0000,  0.0000)
  73 Ni    13.905777    9.475951   14.693692    ( 0.0000,  0.0000,  2.0000)
  74 Ni    16.402593    9.490986   14.643939    ( 0.0000,  0.0000,  1.5000)
  75 Co    12.559989    1.424700   16.738106    ( 0.0000,  0.0000,  0.0000)
  76 Ni     2.519368    1.415325   16.732030    ( 0.0000,  0.0000,  2.1000)
  77 Co     5.058418    1.426623   16.724633    ( 0.0000,  0.0000,  2.1000)
  78 Fe     7.588593    1.431310   16.719262    ( 0.0000,  0.0000,  1.5000)
  79 Fe    10.080282    1.446990   16.712775    ( 0.0000,  0.0000,  2.1000)
  80 Fe    13.906517    3.636537   16.770219    ( 0.0000,  0.0000,  0.0000)
  81 Fe     3.830827    3.632472   16.750288    ( 0.0000,  0.0000,  2.1000)
  82 Al     6.307138    3.580352   16.791881    ( 0.0000,  0.0000,  2.0000)
  83 Co     8.837036    3.649693   16.760356    ( 0.0000,  0.0000,  1.5000)
  84 Cr    11.316239    3.632713   16.757567    ( 0.0000,  0.0000,  0.0000)
  85 Cr    15.124416    5.819298   16.794875    ( 0.0000,  0.0000,  1.5000)
  86 Fe     5.069314    5.825133   16.817741    ( 0.0000,  0.0000,  2.0000)
  87 Fe     7.591000    5.828182   16.790531    ( 0.0000,  0.0000,  1.5000)
  88 Co    10.100423    5.832104   16.795022    ( 0.0000,  0.0000,  2.1000)
  89 Fe    12.591819    5.816097   16.796049    ( 0.0000,  0.0000,  1.5000)
  90 Cr    16.393148    8.022678   16.766491    ( 0.0000,  0.0000,  0.0000)
  91 Co     6.343718    8.036435   16.784337    ( 0.0000,  0.0000,  2.1000)
  92 Al     8.869407    8.031059   16.785541    ( 0.0000,  0.0000,  1.5000)
  93 Al    11.350811    8.006966   16.850353    ( 0.0000,  0.0000,  0.0000)
  94 Cr    13.848456    8.043231   16.790120    ( 0.0000,  0.0000,  1.5000)
  95 Cr    17.664975   10.214378   16.704673    ( 0.0000,  0.0000,  1.5000)
  96 Co     7.577805   10.200216   16.752871    ( 0.0000,  0.0000,  0.0000)
  97 Fe    10.073950   10.240525   16.814835    ( 0.0000,  0.0000,  0.0000)
  98 Co    12.634825   10.205702   16.792879    ( 0.0000,  0.0000,  2.1000)
  99 Ni    15.128204   10.222671   16.717207    ( 0.0000,  0.0000,  2.1000)
 100 Ni     6.295996   10.895646   18.725164    ( 0.0000,  0.0000,  2.1000)
 101 Fe     2.531103    0.010731   18.808028    ( 0.0000,  0.0000,  0.0000)
 102 Ni    11.354102   10.922176   18.789712    ( 0.0000,  0.0000,  2.0000)
 103 Ni    13.893055   10.918669   18.754371    ( 0.0000,  0.0000,  1.5000)
 104 Co    16.407321   10.902924   18.697866    ( 0.0000,  0.0000,  2.0000)
 105 Ni     1.242615    2.122916   18.813664    ( 0.0000,  0.0000,  0.0000)
 106 Ni     3.777583    2.163727   18.725751    ( 0.0000,  0.0000,  2.0000)
 107 Al     6.316494    2.112186   18.751024    ( 0.0000,  0.0000,  1.5000)
 108 Cr     8.821019    2.135678   18.724841    ( 0.0000,  0.0000,  1.5000)
 109 Cr    11.346910    2.127920   18.772482    ( 0.0000,  0.0000,  0.0000)
 110 Ni    15.041821    4.389824   19.217240    ( 0.0000,  0.0000,  0.0000)
 111 Fe     5.122707    4.340730   18.947661    ( 0.0000,  0.0000,  0.0000)
 112 Fe     7.593428    4.391189   18.757570    ( 0.0000,  0.0000,  0.0000)
 113 Al    10.074524    4.387147   18.958463    ( 0.0000,  0.0000,  0.0000)
 114 Co    12.568500    4.377597   18.792178    ( 0.0000,  0.0000,  2.1000)
 115 Cr    16.401190    6.592941   18.854788    ( 0.0000,  0.0000,  0.0000)
 116 Al     6.333626    6.597181   18.774830    ( 0.0000,  0.0000,  2.1000)
 117 Ni     8.832315    6.612293   18.776708    ( 0.0000,  0.0000,  2.0000)
 118 Fe    11.357713    6.592056   18.807559    ( 0.0000,  0.0000,  1.5000)
 119 Cr    13.843649    6.600634   18.766083    ( 0.0000,  0.0000,  2.1000)
 120 Ni    17.672908    8.762055   18.787393    ( 0.0000,  0.0000,  1.5000)
 121 Ni     7.589466    8.752057   18.793733    ( 0.0000,  0.0000,  0.0000)
 122 Co    10.105305    8.758351   18.804653    ( 0.0000,  0.0000,  2.1000)
 123 Cr    12.605169    8.778467   18.827842    ( 0.0000,  0.0000,  2.0000)
 124 Co    15.105383    8.773889   18.800925    ( 0.0000,  0.0000,  1.5000)

Unit cell:
           periodic     x           y           z      points  spacing
  1. axis:    yes   12.614700    0.000000    0.000000    56     0.1951
  2. axis:    yes    6.308550   10.926700    0.000000    56     0.1951
  3. axis:    no     0.000000    0.000000   29.353100   128     0.2293

  Lengths:  12.614700  12.617075  29.353100
  Angles:   90.000000  90.000000  59.999934

Effective grid spacing dv^(1/3) = 0.2160

     iter     time        total  log10-change:  magmom
                         energy  eigst   dens
iter:   1 10:42:55 -1071.510391                  +148.4681
iter:   2 10:45:53 -1774.783167  +0.36  -1.13    +105.2191
iter:   3 10:48:51 -1898.202138  +0.96  -0.83    +73.7838
iter:   4 10:51:50 -1107.516404  -0.17  -0.79    +48.3590
iter:   5 10:54:51  -987.421113  -1.18  -1.17    +35.5684
iter:   6 10:57:52  -969.872079  -1.65  -1.29    +27.7559
iter:   7 11:00:53  -952.921487  -1.80  -1.31    +26.4944
iter:   8 11:03:53 -1093.996746  -0.62  -1.34    +27.8309
iter:   9 11:06:56 -1141.817205  -0.81  -1.07    +26.4424
iter:  10 11:10:02  -938.322915  -1.31  -1.03    +22.9286
iter:  11 11:13:09  -920.488846  -1.81  -1.39    +24.7447
iter:  12 11:16:19  -936.881685  -1.50  -1.48    +25.6531
iter:  13 11:19:31  -933.014769  -1.62  -1.44    +25.7187
iter:  14 11:22:43  -944.030280  -1.61  -1.43    +26.9655
iter:  15 11:25:55  -945.271976  -1.72  -1.41    +28.9588
iter:  16 11:29:07  -929.510149  -1.74  -1.40    +29.4208
iter:  17 11:32:18  -940.206665  -1.74  -1.53    +30.2600
iter:  18 11:35:30  -920.336516  -2.08  -1.48    +31.0290
iter:  19 11:38:42  -916.405043  -2.05  -1.68    +32.8454
iter:  20 11:41:57  -940.021629  -1.96  -1.74    +34.6909
iter:  21 11:45:19  -913.669785  -2.31  -1.44    +36.2668
iter:  22 11:48:31  -915.742708  -2.59  -1.82    +38.8663
iter:  23 11:51:43  -915.304386  -2.56  -1.78    +40.4016
iter:  24 11:54:55  -914.607440  -2.48  -1.83    +42.4995
iter:  25 11:58:07  -915.270117  -2.69  -1.87    +44.6810
iter:  26 12:01:20  -926.273709  -2.46  -1.88    +46.9143
iter:  27 12:04:31  -922.869243  -2.10  -1.65    +48.5508
iter:  28 12:07:43  -926.462773  -2.26  -1.69    +49.8603
iter:  29 12:10:56  -918.217492  -2.50  -1.65    +52.2388
iter:  30 12:14:12  -918.821567  -2.74  -1.91    +54.8905
iter:  31 12:17:31  -916.776032  -2.88  -1.90    +57.3437
iter:  32 12:20:44  -917.150588  -2.66  -2.00    +59.4906
iter:  33 12:23:56  -921.334565  -2.52  -2.06    +61.4401
iter:  34 12:27:08  -918.717693  -2.71  -1.84    +62.3040
iter:  35 12:30:20  -918.554751  -2.84  -1.98    +64.0802
iter:  36 12:33:32  -918.391249  -2.96  -2.10    +66.0087
iter:  37 12:36:44  -919.656026  -2.78  -2.19    +67.0599
iter:  38 12:40:07  -919.195112  -2.84  -2.08    +67.9124
iter:  39 12:43:21  -919.310704  -3.04  -2.21    +69.5252
iter:  40 12:46:34  -923.311140  -2.69  -2.23    +70.1947
iter:  41 12:49:46  -919.044021  -3.08  -1.87    +71.0634
iter:  42 12:52:58  -919.276938  -3.30  -2.37    +72.7483
iter:  43 12:56:11  -919.441594  -3.68  -2.38    +73.4445
iter:  44 12:59:23  -920.277208  -3.16  -2.40    +73.4376
iter:  45 13:02:35  -919.648827  -3.24  -2.16    +74.8241
iter:  46 13:05:47  -919.864793  -3.54  -2.42    +75.4933
iter:  47 13:08:59  -919.866345  -3.53  -2.43    +76.0477
iter:  48 13:12:11  -920.099439  -3.05  -2.46    +77.3849
iter:  49 13:15:24  -921.753838  -2.83  -2.25    +77.2945
iter:  50 13:18:35  -924.954199  -2.46  -2.02    +77.4115
iter:  51 13:21:47  -919.896291  -2.82  -1.85    +76.5744
iter:  52 13:24:59  -919.743254  -3.25  -2.43    +76.0413
iter:  53 13:28:20  -920.483598  -2.97  -2.57    +76.6185
iter:  54 13:31:38  -919.978611  -3.22  -2.24    +76.8767
iter:  55 13:34:50  -919.757785  -3.81  -2.44    +77.5347
iter:  56 13:38:03  -919.848246  -3.87  -2.63    +78.3137
iter:  57 13:41:14  -919.855520c -4.47  -2.61    +78.4062
iter:  58 13:44:26  -920.256176  -3.70  -2.63    +79.0933
iter:  59 13:47:38  -919.839814  -3.56  -2.51    +78.1807
iter:  60 13:50:50  -919.852079  -3.96  -2.60    +78.4784
iter:  61 13:54:02  -920.105867  -3.72  -2.61    +78.7488
iter:  62 13:57:14  -919.881892  -4.01  -2.43    +79.1378
iter:  63 14:00:26  -919.933858  -4.17  -2.68    +79.4085
iter:  64 14:03:41  -919.922517c -4.07  -2.65    +79.5748
iter:  65 14:07:04  -920.438979  -3.71  -2.65    +79.8283
iter:  66 14:10:16  -920.391667  -4.38  -2.56    +79.6043
iter:  67 14:13:28  -922.863562  -2.77  -2.52    +81.7267
iter:  68 14:16:40  -920.159967  -3.14  -2.02    +81.4350
iter:  69 14:19:52  -919.940169  -3.47  -2.55    +81.6283
iter:  70 14:23:04  -919.600593  -3.40  -2.56    +81.3339
iter:  71 14:26:16  -919.663495  -3.66  -2.80    +81.2843
iter:  72 14:29:27  -919.777004  -3.52  -2.71    +81.0361
iter:  73 14:32:40  -919.613616  -4.11  -2.74    +81.1415
iter:  74 14:35:51  -919.534461  -3.37  -2.97    +81.1676
iter:  75 14:39:03  -919.821772  -3.84  -2.84    +80.5303
iter:  76 14:42:28  -919.594919  -4.11  -2.75    +80.8443
iter:  77 14:45:40  -919.611107  -4.07  -2.87    +80.6982
iter:  78 14:48:53  -920.566736  -3.42  -2.78    +80.1817
iter:  79 14:52:05  -919.685793  -3.44  -2.22    +80.4980
iter:  80 14:55:17  -919.764709  -3.96  -2.90    +80.3743
iter:  81 14:58:29  -919.786619c -4.22  -2.98    +80.3591
iter:  82 15:01:41  -919.856020c -4.00  -2.87    +80.0611
iter:  83 15:04:53  -920.046172  -3.60  -3.01    +79.5872
iter:  84 15:08:04  -920.038560  -3.20  -2.89    +80.4582
iter:  85 15:11:16  -919.899594  -3.57  -2.42    +80.1139
iter:  86 15:14:27  -919.923483  -4.44  -3.07    +80.0914
iter:  87 15:17:52  -920.034858  -3.99  -2.99    +79.8159
iter:  88 15:21:04  -919.867700  -3.85  -2.91    +80.1880
iter:  89 15:24:16  -919.842761  -4.25  -3.02    +80.2704
iter:  90 15:27:27  -920.290840  -3.75  -3.05    +80.2410
iter:  91 15:30:39  -919.856454  -4.12  -2.38    +80.2005
iter:  92 15:33:51  -919.883786  -4.62  -3.20    +80.1243
iter:  93 15:37:02  -919.796570c -3.60  -3.20    +80.5025
iter:  94 15:40:15  -919.809727c -4.47  -2.99    +80.5400
iter:  95 15:43:26  -919.808003c -4.51  -2.95    +80.6358
iter:  96 15:46:36  -919.959685  -4.37  -2.90    +80.5748
iter:  97 15:49:51  -919.806263  -4.40  -2.54    +80.6121
iter:  98 15:52:56  -919.921317  -3.65  -2.98    +80.5709
iter:  99 15:55:57  -919.717199  -4.14  -2.60    +80.6822
iter: 100 15:59:06  -919.717837  -4.23  -3.02    +80.8707
iter: 101 16:02:18  -919.722543c -3.88  -3.03    +80.4508
iter: 102 16:05:26  -920.521012  -3.45  -2.89    +80.4105
iter: 103 16:08:28  -919.804758  -3.59  -2.32    +80.0492
iter: 104 16:11:35  -919.832458  -4.04  -2.82    +79.6693
iter: 105 16:14:37  -919.941216  -4.31  -2.99    +79.7378
iter: 106 16:17:39  -919.581236  -3.28  -3.01    +79.6782
iter: 107 16:20:44  -919.658371  -4.25  -2.79    +79.6535
iter: 108 16:23:49  -921.119375  -3.18  -2.84    +79.6001
iter: 109 16:26:49  -919.703781  -3.61  -2.14    +79.5476
iter: 110 16:29:52  -919.726806  -4.37  -2.93    +79.4687
iter: 111 16:32:54  -919.823059  -3.96  -2.94    +79.5233
iter: 112 16:35:56  -919.864298  -4.15  -2.91    +79.5324
iter: 113 16:38:57  -919.980030  -3.82  -3.06    +79.5682
iter: 114 16:41:59  -920.448463  -3.68  -2.91    +79.6155
iter: 115 16:44:58  -920.069367  -3.50  -2.33    +79.4394
iter: 116 16:48:00  -920.256544  -3.71  -3.05    +79.2163
iter: 117 16:51:00  -920.562219  -2.94  -2.90    +78.3908
iter: 118 16:54:01  -920.602327  -4.16  -2.76    +78.7161
iter: 119 16:57:02  -920.636833c -4.30  -2.70    +78.6271
iter: 120 17:00:04  -920.887069  -4.11  -2.70    +78.6331
iter: 121 17:03:04  -920.767222  -4.00  -2.52    +78.6275
iter: 122 17:06:05  -921.549182  -2.75  -2.57    +78.8623
iter: 123 17:09:06  -920.250388  -2.88  -2.27    +78.4837
iter: 124 17:12:07  -920.027693  -3.96  -2.70    +78.2975
iter: 125 17:15:08  -920.076278  -4.40  -2.77    +78.3283
iter: 126 17:18:10  -919.955434  -4.44  -2.72    +78.3155
iter: 127 17:21:10  -919.973263  -4.72  -2.89    +78.3279
iter: 128 17:24:11  -920.017154c -3.56  -2.89    +78.3158
iter: 129 17:27:10  -919.943029c -3.81  -2.66    +78.3124
iter: 130 17:30:10  -920.080040  -3.70  -2.75    +78.3552
iter: 131 17:33:10  -920.358727  -3.67  -2.65    +78.5283
iter: 132 17:36:11  -920.040734  -3.87  -2.43    +78.6439
iter: 133 17:39:10  -920.107819  -4.01  -2.86    +78.8567
iter: 134 17:42:10  -920.008344c -4.44  -2.96    +78.6313
iter: 135 17:45:11  -919.999312c -4.43  -3.18    +78.3482
iter: 136 17:48:10  -920.006208c -4.37  -3.15    +78.1340
iter: 137 17:51:13  -920.171318  -4.22  -3.08    +78.1863
iter: 138 17:54:14  -920.076510  -4.38  -2.65    +78.2480
iter: 139 17:56:48  -920.081936c -4.50  -2.89    +78.4151
iter: 140 17:59:47  -920.142267c -4.14  -3.04    +78.4729
iter: 141 18:02:46  -920.160737c -3.75  -2.81    +78.4407
iter: 142 18:05:45  -920.172062c -3.96  -2.75    +78.6542
iter: 143 18:08:44  -920.284695  -4.18  -3.03    +78.7098
iter: 144 18:11:44  -920.260299  -4.16  -2.72    +78.9088
iter: 145 18:14:43  -920.433248  -4.07  -3.02    +79.1581
iter: 146 18:17:42  -920.182390  -3.83  -2.85    +78.7552
iter: 147 18:20:41  -920.078751  -3.62  -2.97    +78.3472
iter: 148 18:23:41  -920.103922c -4.44  -3.05    +78.3393
iter: 149 18:26:41  -920.106743c -4.91  -2.95    +78.3890
iter: 150 18:29:40  -920.139487c -4.54  -3.15    +78.5139
iter: 151 18:32:39  -920.293169  -4.24  -3.09    +78.5282
iter: 152 18:35:38  -920.177948  -4.33  -2.62    +78.7041
iter: 153 18:38:37  -920.211205  -4.25  -3.01    +79.0245
iter: 154 18:41:37  -920.157147c -4.26  -3.13    +78.4992
iter: 155 18:44:36  -920.154314c -4.23  -3.14    +78.1273
iter: 156 18:47:34  -920.168231c -4.93  -2.94    +78.1517
iter: 157 18:50:34  -920.151866c -4.68  -2.91    +78.2203
iter: 158 18:53:34  -920.152775c -4.81  -3.00    +78.3311
iter: 159 18:56:34  -920.247354c -4.00  -3.17    +78.4315
iter: 160 18:59:34  -920.163100c -4.35  -2.77    +78.3974
iter: 161 19:02:32  -920.204546c -4.31  -3.28    +78.5638
iter: 162 19:05:31  -920.127970c -3.78  -3.18    +78.3135
iter: 163 19:08:29  -920.113190c -4.04  -3.23    +78.2572
iter: 164 19:11:29  -920.159360c -4.56  -3.01    +78.3566
iter: 165 19:14:27  -920.124575c -4.86  -2.89    +78.3957
iter: 166 19:16:45  -920.126574c -4.89  -3.12    +78.5284
iter: 167 19:18:47  -920.170214c -4.29  -3.29    +78.4637
iter: 168 19:20:50  -920.135078c -4.38  -2.88    +78.6678
iter: 169 19:22:52  -920.193143c -4.15  -3.54    +78.9509
iter: 170 19:24:55  -920.110048c -3.72  -3.22    +78.3383
iter: 171 19:26:57  -920.038425  -3.59  -2.99    +77.7936
iter: 172 19:29:00  -920.078284c -4.57  -3.03    +78.1589
iter: 173 19:31:03  -920.147718c -3.84  -3.17    +78.7117
iter: 174 19:33:05  -920.067481c -3.79  -3.48    +78.0172
iter: 175 19:35:08  -920.061306c -4.32  -3.12    +77.8739
iter: 176 19:37:13  -920.118090c -4.55  -3.06    +78.0901
iter: 177 19:39:15  -920.092735c -4.69  -2.82    +78.0458
iter: 178 19:41:18  -920.089925c -4.74  -3.02    +78.1485
iter: 179 19:43:21  -920.207952  -3.72  -3.19    +78.2698
iter: 180 19:45:23  -920.089738  -3.98  -2.70    +78.2110
iter: 181 19:47:26  -920.180034  -3.71  -2.98    +78.4044
iter: 182 19:49:29  -920.061659  -4.19  -2.74    +78.4027
iter: 183 19:51:32  -920.264785  -4.02  -3.25    +78.6203
iter: 184 19:53:35  -920.103556  -4.27  -2.62    +78.5672
iter: 185 19:55:38  -920.161026  -4.22  -3.10    +78.8578
iter: 186 19:57:41  -920.072244c -4.27  -3.36    +78.5505
iter: 187 19:59:44  -919.992840  -3.58  -3.51    +78.0140
iter: 188 20:02:36  -919.964485c -3.97  -3.11    +77.7759
iter: 189 20:05:34  -919.929145c -3.73  -3.03    +77.2716
iter: 190 20:08:33  -919.891768c -3.58  -2.94    +76.5035
iter: 191 20:11:32  -919.923126c -4.68  -2.93    +76.5246
iter: 192 20:14:31  -919.951942c -4.36  -2.91    +76.3977
iter: 193 20:17:30  -919.904292c -4.53  -2.76    +76.3562
iter: 194 20:20:30  -920.765577  -3.30  -2.97    +76.2600
iter: 195 20:23:29  -919.861270  -3.65  -2.24    +76.3171
iter: 196 20:26:28  -919.906508  -4.08  -2.97    +76.0954
iter: 197 20:29:28  -919.854473c -4.47  -2.81    +76.0698
iter: 198 20:32:27  -919.869410c -4.53  -3.11    +75.7818
iter: 199 20:35:27  -919.887652c -4.89  -3.30    +75.6416
iter: 200 20:38:26  -919.858024c -4.58  -3.28    +76.0071
iter: 201 20:41:24  -919.857797c -4.56  -3.22    +76.1454
iter: 202 20:44:23  -919.967906  -4.18  -3.27    +76.1514
iter: 203 20:47:23  -919.893378  -4.36  -2.70    +76.0177
iter: 204 20:50:22  -919.875656c -4.59  -2.94    +75.9004
iter: 205 20:53:21  -919.879366c -5.08  -3.26    +75.8743
iter: 206 20:56:20  -919.920188c -4.58  -3.33    +75.5770
iter: 207 20:59:19  -919.861174c -4.10  -3.20    +76.2238
iter: 208 21:02:17  -919.925926c -4.35  -3.35    +76.2378
iter: 209 21:05:17  -920.076105  -4.00  -2.80    +76.0775
iter: 210 21:08:16  -919.868096  -4.38  -2.57    +76.1028
iter: 211 21:11:14  -919.866791  -4.88  -3.25    +76.0698
iter: 212 21:14:12  -919.869339c -5.58  -3.45    +76.0271
iter: 213 21:17:11  -919.875486c -5.55  -3.48    +75.9795
iter: 214 21:20:08  -919.898575c -4.86  -3.38    +75.8597
iter: 215 21:23:07  -919.881074c -5.36  -3.07    +75.9496
iter: 216 21:26:06  -919.901613c -4.95  -3.35    +75.9644
iter: 217 21:29:05  -919.899637c -5.43  -3.02    +75.8722
iter: 218 21:32:03  -919.886004c -4.87  -3.12    +75.9078
iter: 219 21:35:02  -919.915740c -4.80  -3.29    +75.7254
iter: 220 21:38:01  -919.889877c -4.92  -3.11    +75.9216
iter: 221 21:41:00  -919.885069c -4.91  -3.29    +76.1247
iter: 222 21:43:58  -919.897675c -5.12  -3.33    +75.9766
iter: 223 21:46:57  -919.887489c -4.67  -3.37    +76.2503
iter: 224 21:49:56  -919.897131c -4.64  -3.24    +76.1518
iter: 225 21:52:56  -920.021898  -4.28  -3.06    +76.1043
iter: 226 21:55:52  -919.891363  -4.64  -2.65    +76.0594
iter: 227 21:58:50  -919.909388  -4.74  -3.36    +75.9638
iter: 228 22:01:50  -919.890519c -4.69  -3.29    +76.1364
iter: 229 22:04:49  -919.888385c -4.78  -3.29    +76.2219
iter: 230 22:07:48  -919.891394c -4.76  -3.25    +76.0951
iter: 231 22:10:46  -919.887173c -5.31  -3.19    +76.0928
iter: 232 22:13:44  -919.898679c -5.08  -3.45    +76.0455
iter: 233 22:16:43  -919.888182c -5.95  -3.24    +76.1228
iter: 234 22:19:43  -919.881777c -5.23  -3.46    +76.2848
iter: 235 22:22:41  -919.883999c -4.96  -3.58    +76.4292
iter: 236 22:25:40  -919.884355c -5.31  -3.49    +76.4300
iter: 237 22:28:39  -919.885775c -5.73  -3.52    +76.3946
iter: 238 22:31:38  -919.891892c -5.25  -3.42    +76.3654
iter: 239 22:34:36  -919.884929c -5.71  -3.25    +76.3642
iter: 240 22:37:35  -919.888278c -5.50  -3.63    +76.2908
iter: 241 22:40:33  -919.887245c -6.04  -3.63    +76.3016
iter: 242 22:43:30  -919.887657c -5.47  -3.71    +76.3140
iter: 243 22:46:29  -919.895384c -5.25  -3.41    +76.2518
iter: 244 22:49:28  -919.891346c -5.59  -3.32    +76.2619
iter: 245 22:52:27  -919.893788c -5.49  -3.56    +76.1967
iter: 246 22:55:26  -919.888861c -5.51  -3.65    +76.2761
iter: 247 22:58:24  -919.890250c -5.34  -3.67    +76.3381
iter: 248 23:01:22  -919.887740c -5.61  -3.52    +76.3042
iter: 249 23:04:19  -919.897292c -5.31  -3.75    +76.2684
iter: 250 23:07:18  -919.888595c -5.79  -3.23    +76.2640
iter: 251 23:10:17  -919.891647c -5.62  -3.84    +76.2124
iter: 252 23:13:16  -919.889772c -5.59  -3.74    +76.2718
iter: 253 23:16:14  -919.888546c -5.85  -3.78    +76.2870
iter: 254 23:19:13  -919.889522c -6.11  -3.87    +76.2683
iter: 255 23:22:11  -919.894033c -5.83  -3.89    +76.2735
iter: 256 23:25:09  -919.891125c -5.85  -3.40    +76.2277
iter: 257 23:28:07  -919.891906c -6.19  -3.92    +76.1875
iter: 258 23:31:07  -919.890178c -5.46  -3.91    +76.3152
iter: 259 23:34:05  -919.890322c -5.95  -3.55    +76.3103
iter: 260 23:37:03  -919.891134c -6.14  -3.83    +76.2827
iter: 261 23:40:00  -919.896369c -5.57  -3.80    +76.3167
iter: 262 23:42:59  -919.894498c -5.43  -3.31    +76.2322
iter: 263 23:45:57  -919.894431c -5.75  -3.76    +76.1801
iter: 264 23:48:56  -919.892184c -6.13  -3.78    +76.2454
iter: 265 23:51:54  -919.894065c -5.46  -3.79    +76.3531
iter: 266 23:54:54  -919.892952c -6.10  -3.56    +76.3294
iter: 267 23:57:53  -919.899930c -5.40  -3.71    +76.3084
iter: 268 00:00:51  -919.893066c -5.91  -3.26    +76.3020
iter: 269 00:03:50  -919.893432c -6.14  -3.88    +76.2665
iter: 270 00:06:48  -919.892869c -6.15  -3.89    +76.3009
iter: 271 00:09:46  -919.892764c -5.85  -3.94    +76.3165
iter: 272 00:12:42  -919.893346c -6.29  -3.81    +76.2877
iter: 273 00:15:42  -919.893493c -6.39  -3.94    +76.2804
iter: 274 00:18:41  -919.895158c -5.83  -3.90    +76.2531
iter: 275 00:21:40  -919.895522c -5.85  -3.53    +76.2544
iter: 276 00:24:39  -919.895640c -5.95  -3.69    +76.2152
iter: 277 00:27:37  -919.895061c -6.05  -3.87    +76.1891
iter: 278 00:30:36  -919.894951c -6.13  -3.77    +76.2016
iter: 279 00:33:35  -919.895670c -6.08  -3.96    +76.1509
iter: 280 00:36:34  -919.894687c -6.01  -4.06c   +76.2258
iter: 281 00:39:30  -919.895011c -5.88  -4.06c   +76.2678
iter: 282 00:42:28  -919.895244c -6.48  -3.80    +76.2425
iter: 283 00:45:26  -919.894926c -6.49  -4.12c   +76.2268
iter: 284 00:48:24  -919.896161c -6.25  -4.11c   +76.2085
iter: 285 00:51:22  -919.895595c -6.45  -3.84    +76.1842
iter: 286 00:54:21  -919.896029c -6.56  -4.08c   +76.1781
iter: 287 00:57:20  -919.895964c -6.44  -4.35c   +76.1416
iter: 288 01:00:17  -919.895555c -6.37  -4.40c   +76.1970
iter: 289 01:03:16  -919.895822c -6.53  -4.32c   +76.2079
iter: 290 01:06:15  -919.896154c -6.48  -4.39c   +76.1849
iter: 291 01:09:13  -919.896098c -6.80  -4.05c   +76.1588
iter: 292 01:12:11  -919.896160c -6.76  -4.39c   +76.1358
iter: 293 01:15:09  -919.895886c -6.27  -4.35c   +76.1747
iter: 294 01:18:08  -919.895752c -5.95  -4.01c   +76.1027
iter: 295 01:21:06  -919.895859c -6.46  -4.10c   +76.1344
iter: 296 01:24:05  -919.896954c -6.24  -4.31c   +76.1396
iter: 297 01:27:03  -919.896776c -6.20  -3.72    +76.1062
iter: 298 01:29:59  -919.896190c -6.67  -3.95    +76.0945
iter: 299 01:32:57  -919.896723c -6.51  -4.31c   +76.0551
iter: 300 01:35:56  -919.896235c -5.66  -4.29c   +76.1833
iter: 301 01:38:54  -919.896505c -6.67  -4.21c   +76.1643
iter: 302 01:41:53  -919.896508c -7.33  -4.24c   +76.1513
iter: 303 01:44:52  -919.896650c -6.63  -4.25c   +76.1194
iter: 304 01:47:49  -919.896223c -6.50  -4.21c   +76.1772
iter: 305 01:50:47  -919.896319c -6.68  -4.27c   +76.1952
iter: 306 01:53:46  -919.896511c -6.72  -4.29c   +76.1640
iter: 307 01:56:46  -919.896553c -6.49  -4.12c   +76.1310
iter: 308 01:59:45  -919.896801c -6.93  -4.06c   +76.1157
iter: 309 02:02:44  -919.901424c -5.78  -4.15c   +76.1021
iter: 310 02:05:43  -919.896604c -6.05  -3.37    +76.0936
iter: 311 02:08:41  -919.897000c -6.49  -4.26c   +76.0592
iter: 312 02:11:39  -919.896896c -6.17  -4.39c   +76.1293
iter: 313 02:14:37  -919.897091c -6.78  -4.38c   +76.1196
iter: 314 02:17:34  -919.897492c -6.48  -4.38c   +76.0951
iter: 315 02:20:32  -919.897609c -7.02  -4.25c   +76.0866
iter: 316 02:23:31  -919.897641c -7.11  -4.10c   +76.0805
iter: 317 02:26:29  -919.897743c -6.63  -4.16c   +76.0651
iter: 318 02:29:27  -919.897655c -6.88  -4.06c   +76.0640
iter: 319 02:32:26  -919.897896c -6.08  -3.98    +76.0587
iter: 320 02:35:25  -919.900340c -6.03  -3.67    +76.0552
iter: 321 02:38:23  -919.897732c -6.29  -3.49    +76.0630
iter: 322 02:41:21  -919.898296c -6.07  -3.79    +76.0568
iter: 323 02:44:19  -919.898568c -6.80  -4.03c   +76.0616
iter: 324 02:47:17  -919.900070c -6.11  -4.08c   +76.0577
iter: 325 02:50:16  -919.899115c -6.94  -3.64    +76.0680
iter: 326 02:53:15  -919.901078c -6.17  -4.02c   +76.0777
iter: 327 02:56:14  -919.899005c -6.00  -3.88    +76.0244
iter: 328 02:59:11  -919.898099c -6.14  -3.93    +75.9719
iter: 329 03:02:09  -919.898021c -6.39  -4.09c   +75.9567
iter: 330 03:05:08  -919.898324c -6.68  -3.97    +75.9598
iter: 331 03:08:06  -919.898613c -6.37  -4.07c   +75.9531
iter: 332 03:11:05  -919.898106c -6.75  -3.76    +75.9475
iter: 333 03:14:04  -919.898046c -5.94  -3.92    +75.9190
iter: 334 03:17:03  -919.898561c -6.19  -3.70    +75.9236
iter: 335 03:20:02  -919.897591c -6.39  -3.87    +75.9105
iter: 336 03:23:00  -919.897701c -6.67  -3.99    +75.8938
iter: 337 03:25:59  -919.899236c -6.16  -4.21c   +75.8801
iter: 338 03:28:56  -919.897674c -6.55  -3.69    +75.8753
iter: 339 03:31:54  -919.897667c -6.81  -4.34c   +75.8602
iter: 340 03:34:52  -919.897515c -7.36  -4.43c   +75.8743
iter: 341 03:37:51  -919.897691c -7.32  -4.51c   +75.8792
iter: 342 03:40:50  -919.897708c -7.06  -4.39c   +75.8560
iter: 343 03:43:50  -919.897806c -6.81  -4.52c   +75.8873
iter: 344 03:46:48  -919.897691c -7.29  -4.35c   +75.8881
iter: 345 03:49:46  -919.897654c -7.38  -4.59c   +75.8720
iter: 346 03:52:43  -919.897667c -7.19  -4.61c   +75.8950
iter: 347 03:55:42  -919.897813c -7.53c -4.52c   +75.8940

Converged after 347 iterations.

Dipole moment: (58.026169, 44.463605, -0.030098) |e|*Ang

Total magnetic moment: (0.000000, 0.000000, 75.894021)
Local magnetic moments:
   0 Ni ( 0.000000,  0.000000,  0.356132)
   1 Cr ( 0.000000,  0.000000,  2.108728)
   2 Cr ( 0.000000,  0.000000, -2.773002)
   3 Ni ( 0.000000,  0.000000,  0.227577)
   4 Al ( 0.000000,  0.000000, -0.033718)
   5 Co ( 0.000000,  0.000000,  1.256799)
   6 Cr ( 0.000000,  0.000000,  1.263655)
   7 Cr ( 0.000000,  0.000000,  2.090495)
   8 Ni ( 0.000000,  0.000000,  0.121381)
   9 Co ( 0.000000,  0.000000,  1.431920)
  10 Ni ( 0.000000,  0.000000,  0.368603)
  11 Co ( 0.000000,  0.000000,  0.616303)
  12 Al ( 0.000000,  0.000000, -0.015551)
  13 Cr ( 0.000000,  0.000000, -1.903126)
  14 Ni ( 0.000000,  0.000000,  0.354348)
  15 Ni ( 0.000000,  0.000000,  0.220942)
  16 Co ( 0.000000,  0.000000,  0.037192)
  17 Cr ( 0.000000,  0.000000,  1.442268)
  18 Cr ( 0.000000,  0.000000,  1.628548)
  19 Fe ( 0.000000,  0.000000,  2.608651)
  20 Co ( 0.000000,  0.000000, -0.231823)
  21 Ni ( 0.000000,  0.000000,  0.195495)
  22 Cr ( 0.000000,  0.000000, -2.088940)
  23 Ni ( 0.000000,  0.000000,  0.065330)
  24 Ni ( 0.000000,  0.000000,  0.327719)
  25 Fe ( 0.000000,  0.000000,  2.443885)
  26 Co ( 0.000000,  0.000000,  0.983130)
  27 Fe ( 0.000000,  0.000000,  2.027980)
  28 Al ( 0.000000,  0.000000, -0.036432)
  29 Fe ( 0.000000,  0.000000,  2.389537)
  30 Cr ( 0.000000,  0.000000, -1.872298)
  31 Cr ( 0.000000,  0.000000, -1.144484)
  32 Al ( 0.000000,  0.000000, -0.023313)
  33 Fe ( 0.000000,  0.000000,  2.177830)
  34 Fe ( 0.000000,  0.000000,  2.338551)
  35 Co ( 0.000000,  0.000000,  0.629271)
  36 Al ( 0.000000,  0.000000, -0.041149)
  37 Fe ( 0.000000,  0.000000,  1.521820)
  38 Cr ( 0.000000,  0.000000,  0.339944)
  39 Fe ( 0.000000,  0.000000,  2.036668)
  40 Al ( 0.000000,  0.000000, -0.006728)
  41 Al ( 0.000000,  0.000000, -0.011691)
  42 Cr ( 0.000000,  0.000000, -0.546234)
  43 Al ( 0.000000,  0.000000, -0.011233)
  44 Fe ( 0.000000,  0.000000,  2.278499)
  45 Cr ( 0.000000,  0.000000, -1.643012)
  46 Al ( 0.000000,  0.000000, -0.025061)
  47 Fe ( 0.000000,  0.000000,  1.618688)
  48 Cr ( 0.000000,  0.000000, -1.948400)
  49 Co ( 0.000000,  0.000000,  0.900836)
  50 Ni ( 0.000000,  0.000000,  0.338771)
  51 Co ( 0.000000,  0.000000,  1.349279)
  52 Ni ( 0.000000,  0.000000,  0.441978)
  53 Co ( 0.000000,  0.000000,  1.375716)
  54 Co ( 0.000000,  0.000000,  1.288852)
  55 Ni ( 0.000000,  0.000000,  0.260351)
  56 Fe ( 0.000000,  0.000000,  2.134453)
  57 Ni ( 0.000000,  0.000000,  0.414737)
  58 Al ( 0.000000,  0.000000, -0.037567)
  59 Co ( 0.000000,  0.000000,  1.145241)
  60 Al ( 0.000000,  0.000000, -0.035199)
  61 Co ( 0.000000,  0.000000,  1.125837)
  62 Co ( 0.000000,  0.000000,  1.063509)
  63 Al ( 0.000000,  0.000000, -0.046525)
  64 Fe ( 0.000000,  0.000000,  2.139767)
  65 Ni ( 0.000000,  0.000000, -0.008359)
  66 Fe ( 0.000000,  0.000000,  1.883991)
  67 Co ( 0.000000,  0.000000,  0.910470)
  68 Fe ( 0.000000,  0.000000,  2.049948)
  69 Cr ( 0.000000,  0.000000, -1.360249)
  70 Cr ( 0.000000,  0.000000,  0.675119)
  71 Cr ( 0.000000,  0.000000, -1.454815)
  72 Fe ( 0.000000,  0.000000,  2.366690)
  73 Ni ( 0.000000,  0.000000,  0.193769)
  74 Ni ( 0.000000,  0.000000,  0.161571)
  75 Co ( 0.000000,  0.000000,  1.225109)
  76 Ni ( 0.000000,  0.000000,  0.424350)
  77 Co ( 0.000000,  0.000000,  1.331963)
  78 Fe ( 0.000000,  0.000000,  2.096692)
  79 Fe ( 0.000000,  0.000000,  1.952402)
  80 Fe ( 0.000000,  0.000000, -2.385260)
  81 Fe ( 0.000000,  0.000000,  2.378236)
  82 Al ( 0.000000,  0.000000, -0.069139)
  83 Co ( 0.000000,  0.000000,  0.955713)
  84 Cr ( 0.000000,  0.000000,  1.252947)
  85 Cr ( 0.000000,  0.000000,  0.498789)
  86 Fe ( 0.000000,  0.000000,  2.096525)
  87 Fe ( 0.000000,  0.000000,  2.213503)
  88 Co ( 0.000000,  0.000000,  1.048705)
  89 Fe ( 0.000000,  0.000000,  1.759714)
  90 Cr ( 0.000000,  0.000000, -1.250801)
  91 Co ( 0.000000,  0.000000,  1.072518)
  92 Al ( 0.000000,  0.000000, -0.036558)
  93 Al ( 0.000000,  0.000000, -0.060002)
  94 Cr ( 0.000000,  0.000000,  0.357807)
  95 Cr ( 0.000000,  0.000000,  0.270756)
  96 Co ( 0.000000,  0.000000,  1.150179)
  97 Fe ( 0.000000,  0.000000,  2.316953)
  98 Co ( 0.000000,  0.000000,  1.181691)
  99 Ni ( 0.000000,  0.000000,  0.368679)
 100 Ni ( 0.000000,  0.000000,  0.400271)
 101 Fe ( 0.000000,  0.000000,  2.822409)
 102 Ni ( 0.000000,  0.000000,  0.352126)
 103 Ni ( 0.000000,  0.000000,  0.240059)
 104 Co ( 0.000000,  0.000000,  1.239497)
 105 Ni ( 0.000000,  0.000000,  0.310070)
 106 Ni ( 0.000000,  0.000000,  0.540475)
 107 Al ( 0.000000,  0.000000, -0.036120)
 108 Cr ( 0.000000,  0.000000, -2.289681)
 109 Cr ( 0.000000,  0.000000, -2.158085)
 110 Ni ( 0.000000,  0.000000,  0.185204)
 111 Fe ( 0.000000,  0.000000,  2.535709)
 112 Fe ( 0.000000,  0.000000,  2.201654)
 113 Al ( 0.000000,  0.000000, -0.008749)
 114 Co ( 0.000000,  0.000000,  0.981618)
 115 Cr ( 0.000000,  0.000000,  2.089002)
 116 Al ( 0.000000,  0.000000, -0.060599)
 117 Ni ( 0.000000,  0.000000,  0.409358)
 118 Fe ( 0.000000,  0.000000,  2.298494)
 119 Cr ( 0.000000,  0.000000, -1.997925)
 120 Ni ( 0.000000,  0.000000,  0.176863)
 121 Ni ( 0.000000,  0.000000,  0.489889)
 122 Co ( 0.000000,  0.000000,  1.134001)
 123 Cr ( 0.000000,  0.000000,  1.459412)
 124 Co ( 0.000000,  0.000000,  0.951849)

Energy contributions relative to reference atoms: (reference = -3927717.499734)

Kinetic:       +363.258415
Potential:     -352.886319
External:        +0.000000
XC:            -965.933734
Entropy (-ST):   -5.297389
Local:          +38.312521
--------------------------
Free energy:   -922.546507
Extrapolated:  -919.897813

Dipole-layer corrected work functions: 4.827351, 4.866864 eV

Spin contamination: 33.557644 electrons
Showing all kpts
                      Up                     Down
 Kpt  Band  Eigenvalues  Occupancy  Eigenvalues  Occupancy
  0   547     -0.06241    0.99512      0.84679    0.02244
  0   548     -0.05001    0.99448      0.86096    0.01954
  0   549     -0.03978    0.99389      0.86782    0.01827
  0   550     -0.02650    0.99303      0.88371    0.01562

  1   547     -0.04621    0.99427      0.85052    0.02164
  1   548     -0.04249    0.99405      0.87021    0.01784
  1   549     -0.02981    0.99325      0.88520    0.01540
  1   550     -0.01326    0.99205      0.89789    0.01359


Fermi level: 0.46938

No gap

Forces in eV/Ang:
  0 Ni   -0.23058   -0.36647    0.57188
  1 Cr   -0.26026    0.04557    0.17994
  2 Cr    0.36534   -0.01592    0.56684
  3 Ni   -0.01006   -0.52696   -0.34914
  4 Al    0.26580   -0.38907   -0.85694
  5 Co   -0.11457   -0.05656    0.43459
  6 Cr   -0.55839    0.01088   -0.09580
  7 Cr   -0.08905   -0.20785   -1.32640
  8 Ni   -0.11337    0.32701   -0.34960
  9 Co    0.43050   -0.06885    0.59386
 10 Ni   -0.09867   -0.00273    0.30976
 11 Co    0.17083   -0.18008    0.29013
 12 Al   -0.49816   -0.10721   -1.14369
 13 Cr    0.16816   -0.56069   -1.04514
 14 Ni    0.19619   -0.14872    0.09741
 15 Ni    0.14217    0.45361   -0.41893
 16 Co   -0.28899    0.44366   -0.06835
 17 Cr   -0.01799   -0.36087   -0.50617
 18 Cr    0.34129    0.50680   -0.87081
 19 Fe    0.49171    0.17278    0.20518
 20 Co   -0.11455    0.06605    2.07886
 21 Ni   -1.03617    0.12778   -0.05446
 22 Cr    0.30924   -0.14554    0.33781
 23 Ni    0.17140    0.20896   -0.14220
 24 Ni    0.63442    0.01359    0.71547
 25 Fe   -0.43065    1.27799   -0.54735
 26 Co    0.21503    0.32143    0.44385
 27 Fe   -0.94007   -0.46009   -0.09407
 28 Al    0.14110   -0.19307   -0.20666
 29 Fe    0.93216   -0.12035    0.06571
 30 Cr   -0.64311   -0.07488   -0.29733
 31 Cr   -1.21649   -0.67858   -0.14775
 32 Al    0.29297   -0.95707    0.53377
 33 Fe    0.54285    0.09867   -0.13002
 34 Fe    1.04016   -0.43685   -0.39054
 35 Co   -0.38899   -0.20071   -0.11899
 36 Al    0.35166   -0.39634    0.23853
 37 Fe    0.45990    0.49360    0.63768
 38 Cr   -0.60151   -0.06727   -1.40208
 39 Fe    0.47581   -0.47748   -0.53995
 40 Al   -1.95698    0.75074   -0.95785
 41 Al    1.10958   -0.40958    0.78231
 42 Cr    0.74267   -0.31899    1.04319
 43 Al    0.72825    0.24024    0.88489
 44 Fe   -0.17035   -0.00363    0.19800
 45 Cr    0.00229    2.12089   -0.70866
 46 Al   -0.28720    0.87522   -0.09223
 47 Fe    0.25677    0.61254    0.66468
 48 Cr   -0.57709   -0.44043    0.33760
 49 Co    0.05706   -0.41897   -0.22684
 50 Ni   -0.06602    0.09844   -0.25005
 51 Co    0.29542   -0.43158   -0.20650
 52 Ni   -0.52643   -0.18133   -0.16549
 53 Co    0.14844   -0.06275    0.05132
 54 Co    0.45754   -0.02224   -0.28439
 55 Ni   -0.39068   -0.09314   -0.15764
 56 Fe   -0.04082   -0.18042    0.31856
 57 Ni   -0.19752    0.31437   -0.02740
 58 Al   -0.70998   -1.07176   -0.21842
 59 Co    0.37111   -0.28952    0.04263
 60 Al    0.38767   -0.58857    0.66129
 61 Co    0.41935    0.22485   -0.11116
 62 Co   -0.78249    0.46050   -0.07105
 63 Al    0.65663    0.95051    0.55926
 64 Fe   -0.33093    0.15459    0.23003
 65 Ni    0.24231    0.09699   -0.01313
 66 Fe   -0.30705   -0.65237    0.02118
 67 Co   -0.13224    0.25128    0.23327
 68 Fe    0.46590    0.52873   -0.29103
 69 Cr   -1.35141    0.97022    0.10522
 70 Cr   -0.18796    0.00189    0.22381
 71 Cr    0.72378    0.39158   -0.18885
 72 Fe    0.26784   -0.06521   -0.65793
 73 Ni   -0.24677   -0.38215    0.04397
 74 Ni   -0.01398   -0.32185    0.02745
 75 Co    0.08334   -0.02488   -0.16058
 76 Ni   -0.12768    0.39857   -0.06038
 77 Co   -0.25950   -0.07144   -0.45040
 78 Fe    0.34425   -0.32389   -0.36577
 79 Fe    0.16136   -0.39763    0.61103
 80 Fe   -0.38706    0.04855    0.43205
 81 Fe   -0.54520   -0.24683    0.74206
 82 Al    0.34558    0.91681   -1.24532
 83 Co   -0.05757    0.13848    0.19741
 84 Cr    0.83037   -0.14467    1.29375
 85 Cr   -0.38840    0.04284    0.77653
 86 Fe   -0.03916   -0.08597   -0.49126
 87 Fe    0.18493   -0.19892   -0.96667
 88 Co   -0.21687   -0.35835   -0.17815
 89 Fe    0.31077   -0.40115   -0.06152
 90 Cr    0.15619   -0.25669    0.58320
 91 Co   -0.36304   -0.06288   -0.68182
 92 Al   -1.05296   -0.14202    0.22354
 93 Al    0.27725    0.21440   -1.20388
 94 Cr    0.87600    0.34743   -0.36448
 95 Cr   -0.11360   -0.07780    0.29247
 96 Co   -0.18956    0.17595    0.05504
 97 Fe    0.40143    0.26033   -0.24577
 98 Co   -0.21127   -0.04190   -0.20683
 99 Ni    0.11857   -0.21202    0.21471
100 Ni   -0.12622    0.12915    0.18218
101 Fe   -0.19545   -0.15790    0.00152
102 Ni   -0.02043   -0.14458   -0.04298
103 Ni    0.20229   -0.17607   -0.02999
104 Co   -0.07379   -0.11566   -0.12940
105 Ni    0.04015    0.53845   -0.37851
106 Ni   -0.03321    0.44307    0.14005
107 Al   -0.91114   -0.73493    1.99696
108 Cr    0.14689    0.07777    0.04426
109 Cr    1.00195   -0.15716   -0.36452
110 Ni    0.20756   -0.16326   -1.56411
111 Fe   -0.58680    0.24312   -0.43606
112 Fe   -0.24380   -0.34696    0.25329
113 Al    0.11217    0.54515    0.37989
114 Co    0.35832   -0.14670   -0.14564
115 Cr   -0.93245    0.06692    0.10520
116 Al    0.37209    0.36979    1.33060
117 Ni    0.14598   -0.22649    0.40643
118 Fe   -0.18488   -0.38276    0.23791
119 Cr    0.36375   -0.54794    0.30922
120 Ni   -0.16980    0.22036   -0.00395
121 Ni    0.08291    0.30323   -0.00498
122 Co   -0.01186   -0.10183    0.04147
123 Cr    0.41655    0.57270    0.58943
124 Co    0.35721   -0.07583   -0.72584

Timing:                              incl.     excl.
-----------------------------------------------------------
Forces:                             47.226    47.226   0.1% |
Hamiltonian:                         2.100     0.015   0.0% |
 Atomic:                             0.400     0.002   0.0% |
  XC Correction:                     0.398     0.398   0.0% |
 Calculate atomic Hamiltonians:      0.998     0.998   0.0% |
 Communicate:                        0.120     0.120   0.0% |
 Initialize Hamiltonian:             0.000     0.000   0.0% |
 Poisson:                            0.117     0.117   0.0% |
 XC 3D grid:                         0.450     0.450   0.0% |
LCAO initialization:               334.870     0.587   0.0% |
 LCAO eigensolver:                  17.422     0.014   0.0% |
  Calculate projections:             0.000     0.000   0.0% |
  DenseAtomicCorrection:             0.000     0.000   0.0% |
  Distribute overlap matrix:        10.047    10.047   0.0% |
  Orbital Layouts:                   7.309     7.309   0.0% |
  Potential matrix:                  0.007     0.007   0.0% |
  Sum over cells:                    0.044     0.044   0.0% |
 LCAO to grid:                     314.323   314.323   0.5% |
 Set positions (LCAO WFS):           2.539     2.206   0.0% |
  Basic WFS set positions:           0.004     0.004   0.0% |
  Basis functions set positions:     0.001     0.001   0.0% |
  P tci:                             0.001     0.001   0.0% |
  ST tci:                            0.127     0.127   0.0% |
  mktci:                             0.201     0.201   0.0% |
PWDescriptor:                        0.121     0.121   0.0% |
SCF-cycle:                       62160.868     3.237   0.0% |
 Davidson:                       59908.971 18112.898  29.0% |-----------|
  Apply H:                        1137.176  1117.027   1.8% ||
   HMM T:                           20.150    20.150   0.0% |
  Subspace diag:                  6039.998     0.180   0.0% |
   calc_h_matrix:                 2613.580  1560.802   2.5% ||
    Apply H:                      1052.778  1031.681   1.6% ||
     HMM T:                         21.097    21.097   0.0% |
   diagonalize:                    490.465   490.465   0.8% |
   rotate_psi:                    2935.773  2935.773   4.7% |-|
  calc. matrices:                14095.921 12101.095  19.3% |-------|
   Apply H:                       1994.826  1951.307   3.1% ||
    HMM T:                          43.519    43.519   0.1% |
  diagonalize:                   14342.014 14342.014  22.9% |--------|
  rotate_psi:                     6180.963  6180.963   9.9% |---|
 Density:                         1291.620     0.015   0.0% |
  Atomic density matrices:           9.649     9.649   0.0% |
  Mix:                             683.169   683.169   1.1% |
  Multipole moments:                 0.280     0.280   0.0% |
  Pseudo density:                  598.506   598.484   1.0% |
   Symmetrize density:               0.022     0.022   0.0% |
 Hamiltonian:                      936.666     5.608   0.0% |
  Atomic:                          144.426     0.634   0.0% |
   XC Correction:                  143.792   143.792   0.2% |
  Calculate atomic Hamiltonians:   575.947   575.947   0.9% |
  Communicate:                      38.880    38.880   0.1% |
  Poisson:                          22.721    22.721   0.0% |
  XC 3D grid:                      149.083   149.083   0.2% |
 Orthonormalize:                    20.373     0.001   0.0% |
  calc_s_matrix:                     2.476     2.476   0.0% |
  inverse-cholesky:                  0.886     0.886   0.0% |
  projections:                      12.720    12.720   0.0% |
  rotate_psi_s:                      4.290     4.290   0.0% |
Set symmetry:                        0.001     0.001   0.0% |
Other:                              12.394    12.394   0.0% |
-----------------------------------------------------------
Total:                                     62557.579 100.0%

Date: Thu Apr 20 03:56:37 2023
