
  ___ ___ ___ _ _ _  
 |   |   |_  | | | | 
 | | | | | . | | | | 
 |__ |  _|___|_____|  22.8.0
 |___|_|             

User:   c.zeng@d0024
Date:   Mon Apr 17 09:05:27 2023
Arch:   x86_64
Pid:    45928
CWD:    /home/c.zeng/projects/hea-corrosion/hea-mlp/data-curation/surface-md/dft-jobs/34
Python: 3.8.1
gpaw:   /home/c.zeng/usr/installs/gpaw/source/gpaw-22.8.0/gpaw
_gpaw:  /home/c.zeng/usr/installs/gpaw/source/gpaw-22.8.0/
        _gpaw.cpython-38-x86_64-linux-gnu.so
ase:    /home/c.zeng/.local/lib/python3.8/site-packages/ase-3.22.1-py3.8.egg/ase (version 3.22.1)
numpy:  /home/c.zeng/.local/lib/python3.8/site-packages/numpy (version 1.24.2)
scipy:  /home/c.zeng/.local/lib/python3.8/site-packages/scipy (version 1.10.1)
libxc:  4.2.3
units:  Angstrom and eV
cores: 30
OpenMP: False
OMP_NUM_THREADS: 1

Input parameters:
  convergence: {energy: 0.0001}
  kpts: [2 2 1]
  maxiter: 666
  mode: {ecut: 350.0,
         name: pw}
  occupations: {fixmagmom: False,
                name: fermi-dirac,
                width: 0.1}
  poissonsolver: {dipolelayer: xy}
  spinpol: True
  symmetry: {point_group: False}
  xc: PBE

System changes: positions, numbers, cell, pbc, initial_charges, initial_magmoms 

Initialize ...

species:
  Ni:
    name: Nickel
    id: 0d9f38a9d6e76a2886f07bb4381f212b
    Z: 28.0
    valence: 16
    core: 12
    charge: 0.0
    file: /home/c.zeng/usr/data/gpaw-setups-0.9.20000/Ni.PBE.gz
    compensation charges: {type: gauss,
                           rc: 0.36,
                           lmax: 2}
    cutoffs: {filter: 2.14,
              core: 1.98}
    valence states:
      #              energy  rcut
      - 4s(2.00)    -5.642   1.164
      - 3p(6.00)   -71.394   1.207
      - 4p(0.00)    -1.226   1.207
      - 3d(8.00)    -8.875   1.138
      -  s          21.570   1.164
      -  d          18.337   1.138
  
    # Using partial waves for Ni as LCAO basis

  Fe:
    name: Iron
    id: 37abbd8d6c3c35915a9b583b742da910
    Z: 26.0
    valence: 8
    core: 18
    charge: 0.0
    file: /home/c.zeng/usr/data/gpaw-setups-0.9.20000/Fe.PBE.gz
    compensation charges: {type: gauss,
                           rc: 0.33,
                           lmax: 2}
    cutoffs: {filter: 2.06,
              core: 2.67}
    valence states:
      #              energy  rcut
      - 4s(2.00)    -5.291   1.164
      - 4p(0.00)    -1.326   1.058
      - 3d(6.00)    -7.505   1.058
      -  s          21.920   1.164
      -  p          25.885   1.058
      -  d          19.706   1.058
  
    # Using partial waves for Fe as LCAO basis

  Co:
    name: Cobalt
    id: 339d20d5b0b93d2de9531a1bee871d91
    Z: 27.0
    valence: 9
    core: 18
    charge: 0.0
    file: /home/c.zeng/usr/data/gpaw-setups-0.9.20000/Co.PBE.gz
    compensation charges: {type: gauss,
                           rc: 0.32,
                           lmax: 2}
    cutoffs: {filter: 1.87,
              core: 2.55}
    valence states:
      #              energy  rcut
      - 4s(2.00)    -5.469   1.005
      - 4p(0.00)    -1.277   1.058
      - 3d(7.00)    -8.205   1.005
      -  s          21.742   1.005
      -  p          25.934   1.058
      -  d          19.007   1.005
  
    # Using partial waves for Co as LCAO basis

  Cr:
    name: Chromium
    id: 33f258bda2ca9f93018e70263a35547b
    Z: 24.0
    valence: 6
    core: 18
    charge: 0.0
    file: /home/c.zeng/usr/data/gpaw-setups-0.9.20000/Cr.PBE.gz
    compensation charges: {type: gauss,
                           rc: 0.35,
                           lmax: 2}
    cutoffs: {filter: 2.14,
              core: 3.04}
    valence states:
      #              energy  rcut
      - 4s(1.00)    -4.007   1.164
      - 4p(0.00)    -0.989   1.217
      - 3d(5.00)    -2.913   1.111
      -  s          23.205   1.164
      -  p          26.223   1.217
      -  d          24.299   1.111
  
    # Using partial waves for Cr as LCAO basis

  Al:
    name: Aluminium
    id: 0292cae29f5d6237e50f6abdd43a7bdd
    Z: 13.0
    valence: 3
    core: 10
    charge: 0.0
    file: /home/c.zeng/usr/data/gpaw-setups-0.9.20000/Al.PBE.gz
    compensation charges: {type: gauss,
                           rc: 0.34,
                           lmax: 2}
    cutoffs: {filter: 1.91,
              core: 2.36}
    valence states:
      #              energy  rcut
      - 3s(2.00)    -7.753   1.085
      - 3p(1.00)    -2.712   1.085
      -  s          19.459   1.085
      -  p          24.499   1.085
      -  d           0.000   1.085
  
    # Using partial waves for Al as LCAO basis

Reference energy: -4275894.041763  # eV

Spin-polarized calculation.
Magnetic moment: 165.900000

Convergence criteria:
 Maximum [total energy] change in last 3 cyles: 0.0001 eV / electron
 Maximum integral of absolute [dens]ity change: 0.0001 electrons / valence electron
 Maximum integral of absolute [eigenst]ate change: 4e-08 eV^2 / valence electron
 Maximum number of scf [iter]ations: 666
 (Square brackets indicate name in SCF output, whereas a 'c' in
 the SCF output indicates the quantity has converged.)

Symmetries present (total): 1

  ( 1  0  0)
  ( 0  1  0)
  ( 0  0  1)

4 k-points: 2 x 2 x 1 Monkhorst-Pack grid
2 k-points in the irreducible part of the Brillouin zone
       k-points in crystal coordinates                weights
   0:     0.25000000   -0.25000000    0.00000000          2/4
   1:     0.25000000    0.25000000    0.00000000          2/4

Wave functions: Plane wave expansion
  Cutoff energy: 350.000 eV
  Number of coefficients (min, max): 58901, 58943
  Pulay-stress correction: 0.000000 eV/Ang^3 (de/decut=0.000000)
  Using FFTW library
  ScaLapack parameters: grid=1x1, blocksize=None
  Wavefunction extrapolation:
    Improved wavefunction reuse through dual PAW basis 

Occupation numbers: Fermi-Dirac:
  width: 0.1000  # eV
 

Eigensolver
   Davidson(niter=2) 

Densities:
  Coarse grid: 54*54*128 grid
  Fine grid: 108*108*256 grid
  Total Charge: 0.000000 

Density mixing:
  Method: difference
  Backend: pulay
  Linear mixing parameter: 0.05
  old densities: 5
  Damping of long wavelength oscillations: 50 

Hamiltonian:
  XC and Coulomb potentials evaluated on a 108*108*256 grid
  Using the PBE Exchange-Correlation functional
  External potential:
    NoExternalPotential
 

XC parameters: PBE with 2 nearest neighbor stencil

Memory estimate:
  Process memory now: 367.65 MiB
  Calculator: 2335.53 MiB
    Density: 17.84 MiB
      Arrays: 6.75 MiB
      Localized functions: 8.39 MiB
      Mixer: 2.70 MiB
    Hamiltonian: 5.27 MiB
      Arrays: 5.01 MiB
      XC: 0.00 MiB
      Poisson: 0.00 MiB
      vbar: 0.25 MiB
    Wavefunctions: 2312.43 MiB
      Arrays psit_nG: 1458.82 MiB
      Eigensolver: 834.29 MiB
      Projections: 3.66 MiB
      Projectors: 1.14 MiB
      PW-descriptor: 14.51 MiB

Total number of cores used: 30
Parallelization over k-points: 2
Domain decomposition: 1 x 3 x 5

Number of atoms: 125
Number of atomic orbitals: 1185
Number of bands in calculation: 811
Number of valence electrons: 1179
Bands to converge: occupied

... initialized

Initializing position-dependent things.

Density initialized from atomic densities
Creating initial wave functions:
  811 bands from LCAO basis set

                                                                    
                                                                    
                                                                    
                                                                    
                               Co                                   
                                                       Ni           
                                Ni   Co           Co                
                                       Cr  Cr Al         Cr         
                                 Cr     Co     Cr   Fe    Fe        
                 Co         Cr    Ni           Ni   Fe              
                       Cr   CCo    Cr    CAl         Fe             
               Fe  Co   Ni CrCo    Fer          Cr    Ni            
                     Ni  Cr   FFe   Fe   Ni Al                      
            Co     Fe    NCr   Co     Ni    Coo   Cor               
                    Fe    ANi   FeNi  Fer    Fe Ni                  
                Ni     Fe   Ni    Fe   NNi    Cr                    
                 Ni   Fe    Cr    CFe   NCr     Ni  Co              
                       Cr    Fe    Co     Ni    Ni   Co             
            Co    Ni    Co    FFe   Coe   Cr    Cr                  
            Fe     Cr    Cr    Ni    Cr    Fe                       
                         Ni     Co          Ni                      
        Al    Co   ANi          Co    Cr                            
                Ni          Fe    Cr     Co                         
                      Fe                                            
          Fe     Co    Fe    Co    Ni                               
                                                                    
                                                                    
                                                                    
                                                                    

Positions:
   0 Ni    11.416503    0.090659    9.497708    ( 0.0000,  0.0000,  1.5000)
   1 Fe     1.264178   -0.174887    9.534721    ( 0.0000,  0.0000,  2.0000)
   2 Co     3.766739    0.008286    9.421225    ( 0.0000,  0.0000,  2.1000)
   3 Fe     6.525938   -0.024227    9.381317    ( 0.0000,  0.0000,  2.0000)
   4 Co     8.775848    0.105631    9.580841    ( 0.0000,  0.0000,  2.1000)
   5 Co    12.972347    2.196869   10.072436    ( 0.0000,  0.0000,  2.1000)
   6 Ni     2.797084    2.257014    9.852521    ( 0.0000,  0.0000,  1.5000)
   7 Fe     5.204515    2.251928    9.456211    ( 0.0000,  0.0000,  2.0000)
   8 Fe     7.756620    2.583128    9.526854    ( 0.0000,  0.0000,  2.0000)
   9 Cr    10.224255    2.482694    9.733006    ( 0.0000,  0.0000,  0.0000)
  10 Ni    13.688435    4.139934   10.607268    ( 0.0000,  0.0000,  1.5000)
  11 Al     3.765892    4.272331   10.173651    ( 0.0000,  0.0000,  0.0000)
  12 Ni     6.111176    4.456665   10.398767    ( 0.0000,  0.0000,  1.5000)
  13 Co     8.804766    4.680147   10.398500    ( 0.0000,  0.0000,  2.1000)
  14 Cr    11.526706    4.217663    9.695752    ( 0.0000,  0.0000,  0.0000)
  15 Cr    14.918761    6.788030   10.919076    ( 0.0000,  0.0000,  0.0000)
  16 Fe     4.941220    6.956827   10.532995    ( 0.0000,  0.0000,  2.0000)
  17 Fe     7.574323    6.628388   10.675691    ( 0.0000,  0.0000,  2.0000)
  18 Cr    10.225518    6.937342   10.351513    ( 0.0000,  0.0000,  0.0000)
  19 Fe    12.715211    6.628498   10.115085    ( 0.0000,  0.0000,  2.0000)
  20 Co    16.364224    9.129413   10.834389    ( 0.0000,  0.0000,  2.1000)
  21 Co     6.440333    8.830735   11.055064    ( 0.0000,  0.0000,  2.1000)
  22 Co     9.069357    8.937026   11.009167    ( 0.0000,  0.0000,  2.1000)
  23 Ni    11.629604    8.883217   10.331849    ( 0.0000,  0.0000,  1.5000)
  24 Ni    14.040015    9.117635   11.088420    ( 0.0000,  0.0000,  1.5000)
  25 Al    -0.058561    0.566457   11.913777    ( 0.0000,  0.0000,  0.0000)
  26 Co     2.602909    0.537360   11.568409    ( 0.0000,  0.0000,  2.1000)
  27 Ni     5.046911    0.340846   11.495013    ( 0.0000,  0.0000,  1.5000)
  28 Ni    13.721648   11.595810   11.545225    ( 0.0000,  0.0000,  1.5000)
  29 Co    10.008489    0.519402   11.479645    ( 0.0000,  0.0000,  2.1000)
  30 Fe     1.341303    2.729376   12.358533    ( 0.0000,  0.0000,  2.0000)
  31 Cr     3.887469    2.666439   12.068421    ( 0.0000,  0.0000,  0.0000)
  32 Cr     6.304025    2.801182   11.919811    ( 0.0000,  0.0000,  0.0000)
  33 Ni     9.061210    2.594708   12.132677    ( 0.0000,  0.0000,  1.5000)
  34 Cr    11.381340    2.847305   11.832083    ( 0.0000,  0.0000,  0.0000)
  35 Ni    15.423458    5.076542   12.523720    ( 0.0000,  0.0000,  1.5000)
  36 Cr     5.120211    5.015861   12.667143    ( 0.0000,  0.0000,  0.0000)
  37 Fe     7.608518    4.872250   12.486181    ( 0.0000,  0.0000,  2.0000)
  38 Fe    10.643252    4.991593   12.241722    ( 0.0000,  0.0000,  2.0000)
  39 Cr    12.874811    5.128194   12.281677    ( 0.0000,  0.0000,  0.0000)
  40 Co    16.257629    7.179386   12.752989    ( 0.0000,  0.0000,  2.1000)
  41 Co     6.417374    7.142587   12.904750    ( 0.0000,  0.0000,  2.1000)
  42 Co     9.083122    6.903721   12.762816    ( 0.0000,  0.0000,  2.1000)
  43 Ni    11.445850    7.324087   12.296460    ( 0.0000,  0.0000,  1.5000)
  44 Cr    13.772732    7.050314   13.115775    ( 0.0000,  0.0000,  0.0000)
  45 Al     5.110455    9.657843   13.069378    ( 0.0000,  0.0000,  0.0000)
  46 Fe     7.712884    9.659446   13.055345    ( 0.0000,  0.0000,  2.0000)
  47 Cr    10.383120    9.345349   12.965332    ( 0.0000,  0.0000,  0.0000)
  48 Co    12.745443    9.428102   13.393232    ( 0.0000,  0.0000,  2.1000)
  49 Cr    15.189893    9.767172   13.238056    ( 0.0000,  0.0000,  0.0000)
  50 Co     1.419579    0.965918   14.258445    ( 0.0000,  0.0000,  2.1000)
  51 Ni     4.030059    0.886793   14.021161    ( 0.0000,  0.0000,  1.5000)
  52 Co     6.481033    1.094267   13.836393    ( 0.0000,  0.0000,  2.1000)
  53 Fe     9.244676    1.157341   14.128928    ( 0.0000,  0.0000,  2.0000)
  54 Co    11.539933    1.010176   14.071337    ( 0.0000,  0.0000,  2.1000)
  55 Ni     3.064620    3.095138   14.356872    ( 0.0000,  0.0000,  1.5000)
  56 Fe     5.254341    3.228462   14.410578    ( 0.0000,  0.0000,  2.0000)
  57 Cr     7.671241    3.406352   14.203925    ( 0.0000,  0.0000,  0.0000)
  58 Fe    10.302979    3.258374   14.195320    ( 0.0000,  0.0000,  2.0000)
  59 Cr    12.721116    3.154534   14.577839    ( 0.0000,  0.0000,  0.0000)
  60 Fe     3.913652    5.350241   14.723480    ( 0.0000,  0.0000,  2.0000)
  61 Ni     6.529530    5.492444   14.618420    ( 0.0000,  0.0000,  1.5000)
  62 Ni     9.234821    5.482696   14.629055    ( 0.0000,  0.0000,  1.5000)
  63 Ni    11.438609    5.513917   14.333471    ( 0.0000,  0.0000,  1.5000)
  64 Fe    14.039212    5.393366   14.832305    ( 0.0000,  0.0000,  2.0000)
  65 Ni     4.997758    7.638422   14.905253    ( 0.0000,  0.0000,  1.5000)
  66 Cr     7.771280    7.603939   14.944214    ( 0.0000,  0.0000,  0.0000)
  67 Co    10.582780    7.713373   14.906902    ( 0.0000,  0.0000,  2.1000)
  68 Al    12.853154    7.441023   15.261299    ( 0.0000,  0.0000,  0.0000)
  69 Co    15.263441    7.651582   15.023996    ( 0.0000,  0.0000,  2.1000)
  70 Co     6.328628    9.867143   15.159822    ( 0.0000,  0.0000,  2.1000)
  71 Cr     9.138907    9.664344   15.138758    ( 0.0000,  0.0000,  0.0000)
  72 Ni    11.329409   10.116369   15.571906    ( 0.0000,  0.0000,  1.5000)
  73 Fe    14.099645    9.759208   15.605164    ( 0.0000,  0.0000,  2.0000)
  74 Ni    16.441489   10.101156   15.443194    ( 0.0000,  0.0000,  1.5000)
  75 Ni    12.849873    1.445500   16.239961    ( 0.0000,  0.0000,  1.5000)
  76 Ni     3.219518    1.504687   16.371573    ( 0.0000,  0.0000,  1.5000)
  77 Fe     5.783065    1.503384   16.364502    ( 0.0000,  0.0000,  2.0000)
  78 Ni     7.911156    1.330737   16.024413    ( 0.0000,  0.0000,  1.5000)
  79 Fe    10.427347    1.547769   16.280804    ( 0.0000,  0.0000,  2.0000)
  80 Co    14.112238    3.578481   16.721247    ( 0.0000,  0.0000,  2.1000)
  81 Fe     3.924391    3.830863   16.877819    ( 0.0000,  0.0000,  2.0000)
  82 Cr     6.478435    3.663570   16.764704    ( 0.0000,  0.0000,  0.0000)
  83 Co     8.768904    3.583439   16.462987    ( 0.0000,  0.0000,  2.1000)
  84 Fe    11.441335    3.706756   16.344067    ( 0.0000,  0.0000,  2.0000)
  85 Cr    15.123996    5.851505   17.126493    ( 0.0000,  0.0000,  0.0000)
  86 Ni     5.201765    6.035840   16.815479    ( 0.0000,  0.0000,  1.5000)
  87 Fe     7.724334    5.996114   16.731108    ( 0.0000,  0.0000,  2.0000)
  88 Fe    10.282448    5.722701   16.665872    ( 0.0000,  0.0000,  2.0000)
  89 Ni    12.430082    5.599567   16.908164    ( 0.0000,  0.0000,  1.5000)
  90 Fe    16.384508    8.275888   17.136556    ( 0.0000,  0.0000,  2.0000)
  91 Cr     6.496430    8.070673   16.975841    ( 0.0000,  0.0000,  0.0000)
  92 Cr     9.324711    7.876858   17.013123    ( 0.0000,  0.0000,  0.0000)
  93 Cr    11.744545    7.873396   17.386222    ( 0.0000,  0.0000,  0.0000)
  94 Ni    14.140125    8.189292   17.516747    ( 0.0000,  0.0000,  1.5000)
  95 Fe    17.954868   10.332857   17.539129    ( 0.0000,  0.0000,  2.0000)
  96 Cr     7.886648    9.945327   17.344401    ( 0.0000,  0.0000,  0.0000)
  97 Cr    10.140668   10.954567   18.072327    ( 0.0000,  0.0000,  0.0000)
  98 Al    12.955170   10.567013   17.889799    ( 0.0000,  0.0000,  0.0000)
  99 Fe    15.583872   10.599582   17.635800    ( 0.0000,  0.0000,  2.0000)
 100 Co     6.921766   10.874289   20.272456    ( 0.0000,  0.0000,  2.1000)
 101 Fe     2.944290    0.640842   20.416979    ( 0.0000,  0.0000,  2.0000)
 102 Ni     5.409918    0.240460   19.772046    ( 0.0000,  0.0000,  1.5000)
 103 Cr     7.708718    0.366037   20.064274    ( 0.0000,  0.0000,  0.0000)
 104 Ni    16.572266   11.130050   19.805929    ( 0.0000,  0.0000,  1.5000)
 105 Co     1.699594    1.240122   18.514876    ( 0.0000,  0.0000,  2.1000)
 106 Co     4.116529    2.348078   18.775745    ( 0.0000,  0.0000,  2.1000)
 107 Cr     6.552965    2.224345   18.652571    ( 0.0000,  0.0000,  0.0000)
 108 Fe     9.036284    2.010540   18.209137    ( 0.0000,  0.0000,  2.0000)
 109 Ni    11.840314    1.757858   18.235266    ( 0.0000,  0.0000,  1.5000)
 110 Co     2.857552    4.545738   19.398681    ( 0.0000,  0.0000,  2.1000)
 111 Cr     5.349476    4.307708   19.092244    ( 0.0000,  0.0000,  0.0000)
 112 Co     7.696922    4.435719   18.699798    ( 0.0000,  0.0000,  2.1000)
 113 Fe    10.318781    4.217697   18.320063    ( 0.0000,  0.0000,  2.0000)
 114 Al    12.873675    4.126867   18.814753    ( 0.0000,  0.0000,  0.0000)
 115 Fe    16.541494    6.587572   18.942801    ( 0.0000,  0.0000,  2.0000)
 116 Cr     6.523161    6.520026   18.900471    ( 0.0000,  0.0000,  0.0000)
 117 Ni     9.156016    6.457267   18.807177    ( 0.0000,  0.0000,  1.5000)
 118 Co    11.579599    6.308377   19.289127    ( 0.0000,  0.0000,  2.1000)
 119 Cr    14.157974    6.847159   19.454586    ( 0.0000,  0.0000,  0.0000)
 120 Cr    17.858305    8.788625   19.272630    ( 0.0000,  0.0000,  0.0000)
 121 Ni     7.798035    8.636823   19.941879    ( 0.0000,  0.0000,  1.5000)
 122 Co     9.854977    9.158168   19.498377    ( 0.0000,  0.0000,  2.1000)
 123 Cr    12.496652    8.528069   19.356709    ( 0.0000,  0.0000,  0.0000)
 124 Co    15.155727    9.139612   19.761505    ( 0.0000,  0.0000,  2.1000)

Unit cell:
           periodic     x           y           z      points  spacing
  1. axis:    yes   12.474800    0.000000    0.000000    54     0.2001
  2. axis:    yes    6.246240   10.818800    0.000000    54     0.2003
  3. axis:    no     0.000000    0.000000   29.353100   128     0.2293

  Lengths:  12.474800  12.492476  29.353100
  Angles:   90.000000  90.000000  59.999988

Effective grid spacing dv^(1/3) = 0.2198

     iter     time        total  log10-change:  magmom
                         energy  eigst   dens
iter:   1 09:12:25 -1209.326321                  +166.2219
iter:   2 09:14:48 -1080.073204  -0.08  -1.10    +90.3740
iter:   3 09:17:12 -1135.008940  -0.43  -1.11    +72.1537
iter:   4 09:19:35 -1518.298202  -0.21  -1.05    +64.8262
iter:   5 09:22:00 -1231.122746  -0.06  -0.88    +48.2471
iter:   6 09:24:24 -1009.640533  -1.15  -1.00    +40.7534
iter:   7 09:26:47  -993.544427  -1.58  -1.25    +42.2912
iter:   8 09:29:11  -990.827032  -1.69  -1.28    +45.9466
iter:   9 09:31:35  -986.232542  -1.43  -1.29    +51.4531
iter:  10 09:34:00 -1050.014107  -1.08  -1.31    +50.1776
iter:  11 09:36:24 -1002.344888  -1.23  -1.18    +43.3205
iter:  12 09:38:49  -976.232741  -1.51  -1.26    +46.6252
iter:  13 09:41:13  -955.046263  -1.65  -1.37    +46.4775
iter:  14 09:43:37  -958.156871  -1.76  -1.47    +45.7470
iter:  15 09:46:02  -964.996227  -1.56  -1.47    +46.7915
iter:  16 09:48:26  -957.043994  -1.82  -1.40    +48.0658
iter:  17 09:50:51  -940.398596  -1.98  -1.50    +49.9052
iter:  18 09:53:15  -935.898970  -2.46  -1.60    +52.7348
iter:  19 09:55:40  -946.460474  -2.24  -1.69    +58.5747
iter:  20 09:58:04  -938.682863  -2.36  -1.57    +59.1955
iter:  21 10:00:28  -956.625778  -1.89  -1.71    +65.6090
iter:  22 10:02:52  -954.852738  -2.08  -1.53    +64.5658
iter:  23 10:05:16  -958.381190  -1.81  -1.54    +68.1326
iter:  24 10:07:41  -942.775982  -2.08  -1.54    +68.8860
iter:  25 10:10:05  -942.323315  -2.42  -1.74    +71.2067
iter:  26 10:12:29  -940.270665  -2.86  -1.76    +73.7490
iter:  27 10:14:54  -942.135225  -2.77  -1.84    +76.3863
iter:  28 10:17:18  -940.965588  -2.96  -1.82    +78.2123
iter:  29 10:19:43  -948.148889  -2.46  -1.89    +80.8269
iter:  30 10:22:08  -944.129290  -2.41  -1.75    +80.2587
iter:  31 10:24:32  -945.387519  -2.57  -1.86    +81.3733
iter:  32 10:26:57  -946.777491  -2.30  -1.86    +83.4276
iter:  33 10:29:22  -953.718610  -2.24  -1.87    +84.6856
iter:  34 10:31:50  -947.412295  -2.26  -1.68    +84.3483
iter:  35 10:34:17  -944.082886  -2.90  -1.83    +84.5336
iter:  36 10:36:44  -944.412434  -2.71  -2.06    +86.3165
iter:  37 10:39:12  -943.705212  -2.92  -2.07    +86.8147
iter:  38 10:41:40  -944.551394  -3.12  -2.14    +87.6946
iter:  39 10:44:06  -944.435658  -3.20  -2.09    +88.9527
iter:  40 10:46:34 -1001.734965  -1.85  -2.19    +89.5359
iter:  41 10:49:01  -944.109773  -2.29  -1.33    +89.2077
iter:  42 10:51:29  -944.291461  -2.98  -2.31    +89.8791
iter:  43 10:53:57  -944.402639  -3.02  -2.36    +90.1228
iter:  44 10:56:24  -944.216725  -3.53  -2.31    +90.7111
iter:  45 10:58:52  -944.347072  -3.75  -2.42    +90.9673
iter:  46 11:01:20  -946.843137  -3.13  -2.41    +91.0071
iter:  47 11:03:47  -944.691855  -3.22  -2.02    +91.2402
iter:  48 11:06:14  -944.613941  -3.46  -2.36    +91.7326
iter:  49 11:08:41  -944.706890c -3.74  -2.49    +91.5950
iter:  50 11:11:09  -944.725715c -3.41  -2.51    +91.5861
iter:  51 11:13:36  -944.665123c -3.77  -2.53    +91.8342
iter:  52 11:16:04  -959.724698  -2.49  -2.62    +92.0020
iter:  53 11:18:31  -944.669527  -2.78  -1.64    +91.9546
iter:  54 11:20:59  -944.728126  -3.74  -2.73    +92.3771
iter:  55 11:23:26  -944.780420c -4.21  -2.79    +92.5850
iter:  56 11:25:54  -944.894412  -3.96  -2.78    +93.0198
iter:  57 11:28:22  -945.164540  -3.41  -2.77    +93.8900
iter:  58 11:30:49  -946.857019  -3.21  -2.68    +94.3415
iter:  59 11:33:18  -945.193239  -3.63  -2.12    +94.1927
iter:  60 11:35:46  -945.247661  -4.23  -2.69    +94.3859
iter:  61 11:38:15  -945.233530c -4.47  -2.66    +94.4784
iter:  62 11:40:42  -945.451050  -3.56  -2.69    +94.6348
iter:  63 11:43:10  -945.279714  -3.86  -2.46    +94.6394
iter:  64 11:45:38  -945.407071  -4.08  -2.58    +94.6111
iter:  65 11:48:07  -945.248948  -3.71  -2.51    +94.6746
iter:  66 11:50:35  -945.268214  -3.85  -2.64    +94.4638
iter:  67 11:53:03  -945.565329  -3.60  -2.68    +94.3234
iter:  68 11:55:31  -945.234084  -3.96  -2.42    +94.1731
iter:  69 11:57:59  -945.541451  -3.86  -2.80    +94.1192
iter:  70 12:00:27  -945.263201  -4.08  -2.48    +94.1604
iter:  71 12:02:54  -945.260603  -4.24  -2.77    +94.0455
iter:  72 12:05:23  -945.303069c -4.18  -2.86    +94.0185
iter:  73 12:07:50  -945.336694c -4.25  -2.76    +93.9383
iter:  74 12:10:19  -945.327683c -4.12  -2.75    +93.9947
iter:  75 12:12:47  -945.514810  -4.17  -2.74    +93.9366
iter:  76 12:15:15  -945.329757  -4.04  -2.51    +93.6396
iter:  77 12:17:44  -945.297987  -4.31  -2.79    +93.6169
iter:  78 12:20:11  -945.312694c -4.32  -2.92    +93.6649
iter:  79 12:22:39  -945.324982c -4.59  -2.91    +93.7235
iter:  80 12:25:07  -945.394943c -4.09  -2.86    +93.6526
iter:  81 12:27:35  -945.375069c -4.37  -2.75    +93.7121
iter:  82 12:30:04  -945.353121c -4.11  -2.77    +94.0785
iter:  83 12:32:33  -945.321865c -4.32  -2.86    +94.0319
iter:  84 12:35:01  -945.330996c -4.55  -3.00    +93.9999
iter:  85 12:37:28  -945.318703c -4.87  -2.98    +93.9088
iter:  86 12:39:55  -945.317048c -5.22  -3.13    +93.9911
iter:  87 12:42:23  -945.319142c -5.55  -3.14    +93.9889
iter:  88 12:44:50  -945.326985c -5.05  -3.15    +93.9929
iter:  89 12:47:17  -945.322561c -5.66  -3.10    +93.9789
iter:  90 12:49:44  -945.325218c -5.67  -3.18    +93.9974
iter:  91 12:52:11  -945.372033c -4.58  -3.15    +93.9949
iter:  92 12:54:38  -945.365095c -4.56  -2.91    +94.0049
iter:  93 12:57:04  -945.329573c -4.71  -2.88    +93.9966
iter:  94 12:59:30  -945.341178c -4.65  -3.28    +93.9893
iter:  95 13:01:56  -945.329728c -4.85  -3.14    +94.0806
iter:  96 13:04:22  -945.331563c -5.00  -3.32    +94.0775
iter:  97 13:06:48  -945.325062c -5.52  -3.32    +94.1208
iter:  98 13:09:14  -945.330114c -5.80  -3.55    +94.1057
iter:  99 13:11:40  -945.326009c -6.25  -3.40    +94.1146
iter: 100 13:14:06  -945.326233c -6.07  -3.63    +94.1222
iter: 101 13:16:32  -945.325873c -6.04  -3.69    +94.1171
iter: 102 13:18:57  -945.326846c -5.71  -3.73    +94.1088
iter: 103 13:21:23  -945.331826c -5.64  -3.77    +94.0926
iter: 104 13:23:48  -945.327343c -5.97  -3.44    +94.0941
iter: 105 13:26:14  -945.327030c -6.12  -3.87    +94.1043
iter: 106 13:28:40  -945.327132c -6.30  -4.03c   +94.0923
iter: 107 13:31:06  -945.327663c -6.59  -4.01c   +94.0854
iter: 108 13:33:31  -945.327651c -6.72  -4.05c   +94.0917
iter: 109 13:35:56  -945.327766c -6.59  -4.12c   +94.0941
iter: 110 13:38:20  -945.327835c -6.78  -4.10c   +94.0893
iter: 111 13:40:44  -945.328109c -6.62  -3.98    +94.0860
iter: 112 13:43:09  -945.328188c -6.54  -3.78    +94.0794
iter: 113 13:45:34  -945.328730c -6.54  -4.12c   +94.0823
iter: 114 13:47:58  -945.328456c -6.41  -4.05c   +94.0895
iter: 115 13:50:23  -945.328290c -6.75  -4.13c   +94.0870
iter: 116 13:52:47  -945.328342c -7.09  -3.91    +94.0816
iter: 117 13:55:11  -945.328691c -6.66  -4.10c   +94.0726
iter: 118 13:57:37  -945.328581c -6.85  -4.12c   +94.0760
iter: 119 14:00:01  -945.328679c -6.77  -3.96    +94.0757
iter: 120 14:02:26  -945.328509c -6.89  -4.18c   +94.0673
iter: 121 14:04:50  -945.329766c -6.55  -4.17c   +94.0661
iter: 122 14:07:15  -945.328692c -6.85  -3.95    +94.0698
iter: 123 14:09:39  -945.328780c -7.10  -4.20c   +94.0711
iter: 124 14:12:04  -945.329078c -6.95  -4.33c   +94.0696
iter: 125 14:14:29  -945.328843c -7.36  -4.28c   +94.0704
iter: 126 14:16:54  -945.329002c -7.33  -4.38c   +94.0670
iter: 127 14:19:17  -945.329118c -7.54c -4.56c   +94.0687

Converged after 127 iterations.

Dipole moment: (-8.866603, -46.750493, 0.012287) |e|*Ang

Total magnetic moment: (0.000000, 0.000000, 94.068709)
Local magnetic moments:
   0 Ni ( 0.000000,  0.000000,  0.631458)
   1 Fe ( 0.000000,  0.000000,  3.009617)
   2 Co ( 0.000000,  0.000000,  1.861149)
   3 Fe ( 0.000000,  0.000000,  2.940827)
   4 Co ( 0.000000,  0.000000,  1.704376)
   5 Co ( 0.000000,  0.000000,  1.221551)
   6 Ni ( 0.000000,  0.000000,  0.473054)
   7 Fe ( 0.000000,  0.000000,  2.879820)
   8 Fe ( 0.000000,  0.000000,  2.901713)
   9 Cr ( 0.000000,  0.000000, -2.302912)
  10 Ni ( 0.000000,  0.000000,  0.140303)
  11 Al ( 0.000000,  0.000000, -0.020123)
  12 Ni ( 0.000000,  0.000000,  0.099165)
  13 Co ( 0.000000,  0.000000,  1.504345)
  14 Cr ( 0.000000,  0.000000,  2.406797)
  15 Cr ( 0.000000,  0.000000, -2.384589)
  16 Fe ( 0.000000,  0.000000,  2.837183)
  17 Fe ( 0.000000,  0.000000,  2.840495)
  18 Cr ( 0.000000,  0.000000, -2.836684)
  19 Fe ( 0.000000,  0.000000,  2.705246)
  20 Co ( 0.000000,  0.000000,  1.491992)
  21 Co ( 0.000000,  0.000000,  1.556244)
  22 Co ( 0.000000,  0.000000,  1.361533)
  23 Ni ( 0.000000,  0.000000,  0.365288)
  24 Ni ( 0.000000,  0.000000,  0.396718)
  25 Al ( 0.000000,  0.000000, -0.042202)
  26 Co ( 0.000000,  0.000000,  1.590114)
  27 Ni ( 0.000000,  0.000000,  0.498078)
  28 Ni ( 0.000000,  0.000000,  0.456465)
  29 Co ( 0.000000,  0.000000,  1.124812)
  30 Fe ( 0.000000,  0.000000,  2.300212)
  31 Cr ( 0.000000,  0.000000,  2.107550)
  32 Cr ( 0.000000,  0.000000, -2.029529)
  33 Ni ( 0.000000,  0.000000,  0.260256)
  34 Cr ( 0.000000,  0.000000, -0.858300)
  35 Ni ( 0.000000,  0.000000,  0.051505)
  36 Cr ( 0.000000,  0.000000, -1.974254)
  37 Fe ( 0.000000,  0.000000,  2.081536)
  38 Fe ( 0.000000,  0.000000,  1.969468)
  39 Cr ( 0.000000,  0.000000, -1.612600)
  40 Co ( 0.000000,  0.000000,  0.906855)
  41 Co ( 0.000000,  0.000000,  1.432629)
  42 Co ( 0.000000,  0.000000,  1.553457)
  43 Ni ( 0.000000,  0.000000,  0.134428)
  44 Cr ( 0.000000,  0.000000,  1.519270)
  45 Al ( 0.000000,  0.000000, -0.036812)
  46 Fe ( 0.000000,  0.000000,  2.485941)
  47 Cr ( 0.000000,  0.000000, -2.214107)
  48 Co ( 0.000000,  0.000000,  1.369517)
  49 Cr ( 0.000000,  0.000000, -2.544701)
  50 Co ( 0.000000,  0.000000,  1.478487)
  51 Ni ( 0.000000,  0.000000,  0.275273)
  52 Co ( 0.000000,  0.000000,  1.524878)
  53 Fe ( 0.000000,  0.000000,  2.372600)
  54 Co ( 0.000000,  0.000000,  1.169130)
  55 Ni ( 0.000000,  0.000000,  0.610161)
  56 Fe ( 0.000000,  0.000000,  2.323799)
  57 Cr ( 0.000000,  0.000000, -2.058639)
  58 Fe ( 0.000000,  0.000000,  2.398992)
  59 Cr ( 0.000000,  0.000000, -2.138011)
  60 Fe ( 0.000000,  0.000000,  2.283064)
  61 Ni ( 0.000000,  0.000000,  0.188990)
  62 Ni ( 0.000000,  0.000000,  0.439086)
  63 Ni ( 0.000000,  0.000000,  0.296456)
  64 Fe ( 0.000000,  0.000000,  2.150673)
  65 Ni ( 0.000000,  0.000000,  0.466710)
  66 Cr ( 0.000000,  0.000000, -0.896336)
  67 Co ( 0.000000,  0.000000,  0.988538)
  68 Al ( 0.000000,  0.000000, -0.035245)
  69 Co ( 0.000000,  0.000000,  1.349925)
  70 Co ( 0.000000,  0.000000,  1.282347)
  71 Cr ( 0.000000,  0.000000,  1.106722)
  72 Ni ( 0.000000,  0.000000,  0.233395)
  73 Fe ( 0.000000,  0.000000,  2.673168)
  74 Ni ( 0.000000,  0.000000,  0.474832)
  75 Ni ( 0.000000,  0.000000,  0.447709)
  76 Ni ( 0.000000,  0.000000,  0.356313)
  77 Fe ( 0.000000,  0.000000,  2.296458)
  78 Ni ( 0.000000,  0.000000,  0.634001)
  79 Fe ( 0.000000,  0.000000,  2.441437)
  80 Co ( 0.000000,  0.000000,  1.333905)
  81 Fe ( 0.000000,  0.000000,  2.497491)
  82 Cr ( 0.000000,  0.000000, -1.415540)
  83 Co ( 0.000000,  0.000000,  1.262572)
  84 Fe ( 0.000000,  0.000000,  2.012788)
  85 Cr ( 0.000000,  0.000000, -2.379099)
  86 Ni ( 0.000000,  0.000000,  0.324711)
  87 Fe ( 0.000000,  0.000000,  2.053190)
  88 Fe ( 0.000000,  0.000000,  2.157440)
  89 Ni ( 0.000000,  0.000000,  0.408621)
  90 Fe ( 0.000000,  0.000000,  2.541918)
  91 Cr ( 0.000000,  0.000000, -0.767661)
  92 Cr ( 0.000000,  0.000000, -1.616370)
  93 Cr ( 0.000000,  0.000000,  1.918579)
  94 Ni ( 0.000000,  0.000000,  0.428915)
  95 Fe ( 0.000000,  0.000000,  2.233770)
  96 Cr ( 0.000000,  0.000000,  1.727687)
  97 Cr ( 0.000000,  0.000000, -1.879867)
  98 Al ( 0.000000,  0.000000, -0.012618)
  99 Fe ( 0.000000,  0.000000,  2.398586)
 100 Co ( 0.000000,  0.000000,  1.899942)
 101 Fe ( 0.000000,  0.000000,  2.987205)
 102 Ni ( 0.000000,  0.000000, -0.122063)
 103 Cr ( 0.000000,  0.000000, -3.046121)
 104 Ni ( 0.000000,  0.000000,  0.565105)
 105 Co ( 0.000000,  0.000000,  1.531628)
 106 Co ( 0.000000,  0.000000,  1.153106)
 107 Cr ( 0.000000,  0.000000,  1.471497)
 108 Fe ( 0.000000,  0.000000,  2.480205)
 109 Ni ( 0.000000,  0.000000,  0.550716)
 110 Co ( 0.000000,  0.000000,  1.415668)
 111 Cr ( 0.000000,  0.000000, -2.372893)
 112 Co ( 0.000000,  0.000000, -0.514835)
 113 Fe ( 0.000000,  0.000000,  2.601578)
 114 Al ( 0.000000,  0.000000, -0.053803)
 115 Fe ( 0.000000,  0.000000,  2.103003)
 116 Cr ( 0.000000,  0.000000,  1.864747)
 117 Ni ( 0.000000,  0.000000,  0.275312)
 118 Co ( 0.000000,  0.000000,  1.499706)
 119 Cr ( 0.000000,  0.000000,  2.450183)
 120 Cr ( 0.000000,  0.000000, -2.682229)
 121 Ni ( 0.000000,  0.000000,  0.478960)
 122 Co ( 0.000000,  0.000000,  1.514135)
 123 Cr ( 0.000000,  0.000000, -2.050992)
 124 Co ( 0.000000,  0.000000,  1.408352)

Energy contributions relative to reference atoms: (reference = -4275894.041763)

Kinetic:       +267.464529
Potential:     -301.944107
External:        +0.000000
XC:            -949.212416
Entropy (-ST):   -5.491071
Local:          +41.108412
--------------------------
Free energy:   -948.074654
Extrapolated:  -945.329118

Dipole-layer corrected work functions: 4.547168, 4.530694 eV

Spin contamination: 50.972176 electrons
Showing all kpts
                      Up                     Down
 Kpt  Band  Eigenvalues  Occupancy  Eigenvalues  Occupancy
  0   587      0.09674    0.99923      1.21405    0.01792
  0   588      0.10286    0.99918      1.21620    0.01754
  0   589      0.11320    0.99909      1.22127    0.01669
  0   590      0.12375    0.99899      1.23219    0.01499

  1   587      0.10066    0.99920      1.20711    0.01918
  1   588      0.11058    0.99912      1.21436    0.01786
  1   589      0.11554    0.99907      1.22161    0.01663
  1   590      0.12228    0.99901      1.22946    0.01540


Fermi level: 0.81365

No gap

Forces in eV/Ang:
  0 Ni   -0.48136    0.08354    0.96672
  1 Fe    0.82758    0.19252    0.94946
  2 Co    0.40548   -0.20928    1.03396
  3 Fe   -0.79918    0.46781    0.65534
  4 Co    0.77762    0.29825    0.01104
  5 Co   -1.55509   -2.71651   -0.46830
  6 Ni   -0.21160   -1.03508    0.15918
  7 Fe    0.27255   -0.57678    0.86891
  8 Fe   -0.34380   -0.66558    1.02702
  9 Cr   -0.21033   -0.75372    0.14451
 10 Ni    3.02717    2.25618   -2.38475
 11 Al   -0.17856    2.11876   -0.21495
 12 Ni    0.89496    1.09805   -0.95824
 13 Co    0.48106   -0.74060    0.40044
 14 Cr   -1.10716    0.54355    0.26410
 15 Cr   -0.01865    0.07076   -0.65319
 16 Fe    0.35279   -0.52777    0.69090
 17 Fe   -0.08075    1.00075    0.42399
 18 Cr   -0.69783   -1.25142   -0.27885
 19 Fe   -0.23533    0.25602    0.98999
 20 Co    0.63074   -0.76828    0.15470
 21 Co    0.04606    0.46348   -0.32621
 22 Co   -0.41276    0.05531   -0.40911
 23 Ni   -0.28290    0.53283    0.63898
 24 Ni   -1.08679   -0.22638   -0.04132
 25 Al    1.96819    0.68948   -1.96987
 26 Co   -0.40880   -0.32333    0.42739
 27 Ni    0.42070    0.25062    0.29649
 28 Ni    0.55904   -0.59021    0.13960
 29 Co    0.28728    0.72665    1.07771
 30 Fe    0.44725   -0.96935    1.15252
 31 Cr    1.02119   -0.48228    0.47524
 32 Cr   -0.27610   -1.29761    0.34457
 33 Ni   -0.98859    1.19332   -0.30244
 34 Cr    0.31952    0.41810    0.80112
 35 Ni   -2.72033   -2.04702   -0.01968
 36 Cr    1.56903    0.41425   -0.41875
 37 Fe    0.39806    0.32511   -0.24358
 38 Fe   -1.95242   -0.36549   -0.84131
 39 Cr   -0.78796    0.96247    1.48517
 40 Co    1.21454    1.59714    0.63119
 41 Co    0.22415    0.50226   -0.91005
 42 Co   -0.38849    1.06759   -0.57573
 43 Ni    1.02833    0.26865    0.82623
 44 Cr    0.68104    0.57294   -2.05567
 45 Al   -0.15235   -2.87969    0.62792
 46 Fe    0.32482   -0.89320   -0.11444
 47 Cr   -0.94266    0.50297    0.26768
 48 Co   -0.20935   -0.11180   -0.04487
 49 Cr   -2.00811   -0.67496   -0.31494
 50 Co    1.85590   -0.12567   -1.00992
 51 Ni   -0.16906   -0.11565   -0.57272
 52 Co    0.09406   -0.27410    0.12035
 53 Fe   -1.29231   -0.56254   -1.10373
 54 Co   -0.09029    0.62185    0.18712
 55 Ni   -2.59832    0.29508    0.32150
 56 Fe    1.37746   -0.30273    0.26479
 57 Cr    0.57070   -1.22611    0.69599
 58 Fe   -0.19550    0.63848    0.01295
 59 Cr    0.71643    0.59199   -1.10823
 60 Fe    0.58633    0.76579    0.62487
 61 Ni   -0.29912   -0.19822    0.84048
 62 Ni   -2.45364   -0.49085   -0.24669
 63 Ni    2.33792   -0.04614    0.67223
 64 Fe   -0.06240   -1.80376    0.16577
 65 Ni    1.87916    0.40618    0.07437
 66 Cr    0.15826    0.98252   -0.56753
 67 Co   -1.28718    0.14565   -0.51553
 68 Al    0.05384    0.88793    0.77731
 69 Co   -0.93853    0.20220    0.31452
 70 Co    1.50237   -0.25644    0.80247
 71 Cr   -1.05105    0.58143    0.18545
 72 Ni    1.06051   -0.55940    0.23025
 73 Fe   -0.78952    0.26751   -0.78934
 74 Ni    0.47930   -0.67504   -0.77561
 75 Ni    0.72354   -0.67571   -0.10333
 76 Ni   -0.90143    0.06442   -0.83201
 77 Fe   -2.77263    0.34615   -0.57020
 78 Ni    0.94555   -0.05121    0.63812
 79 Fe   -0.11617    0.18311   -0.17705
 80 Co   -0.49491   -0.44843   -0.32674
 81 Fe    0.77003   -0.13417    0.01252
 82 Cr   -0.22819    0.63459   -0.22580
 83 Co    1.00521    0.82977   -0.50571
 84 Fe    0.36195   -1.64712   -0.13062
 85 Cr   -0.21924    0.25980   -0.27087
 86 Ni   -0.13169   -0.64181    0.07550
 87 Fe    0.51556   -0.58405    0.17258
 88 Fe   -1.80877    1.37340   -0.32322
 89 Ni    3.12433    0.87442    0.40439
 90 Fe    1.18273   -0.17865   -0.09644
 91 Cr   -0.04612    0.31777   -0.09493
 92 Cr   -0.37913    1.43838    0.18982
 93 Cr   -1.48602    1.24523    0.85187
 94 Ni   -0.18883    0.81744   -0.68378
 95 Fe   -0.22637    0.15532    0.16857
 96 Cr    0.55665   -0.21777   -0.04847
 97 Cr    0.08842   -1.49333   -0.83052
 98 Al    0.02816   -0.80175   -1.87743
 99 Fe   -0.78275   -1.05239    1.01537
100 Co   -0.52070   -0.27816   -1.33979
101 Fe    0.29373   -0.52059   -0.67761
102 Ni   -0.68535   -0.03944    0.76045
103 Cr    1.55697    0.27209    0.35816
104 Ni    0.40749   -0.15926   -0.73503
105 Co    0.02160    0.99042   -0.29068
106 Co   -0.71779   -0.21836   -0.10642
107 Cr   -0.08744    0.18341    0.07895
108 Fe    0.19000    0.43442    0.98555
109 Ni   -1.01429    1.20793    1.86405
110 Co    0.09389   -0.36128   -1.10310
111 Cr   -0.51925    0.68224   -0.40681
112 Co    0.62054   -0.52486   -0.75154
113 Fe   -0.38070   -0.53885    1.56285
114 Al    0.31932   -0.16247    0.16390
115 Fe    0.02213    0.26082    0.37860
116 Cr    0.95721    0.53011    0.19923
117 Ni   -0.05130    0.07547    0.72182
118 Co   -0.48245   -0.02569   -0.73448
119 Cr   -0.61818   -0.90131    0.13670
120 Cr   -0.49538    0.29755    0.51720
121 Ni   -1.11128   -0.23152   -0.86500
122 Co    1.51875   -0.11297   -1.03662
123 Cr   -0.33398    0.27364    1.39704
124 Co    0.41014   -0.31976   -1.57423

Timing:                              incl.     excl.
-----------------------------------------------------------
Forces:                             36.675    36.675   0.2% |
Hamiltonian:                         1.302     0.010   0.0% |
 Atomic:                             0.379     0.001   0.0% |
  XC Correction:                     0.377     0.377   0.0% |
 Calculate atomic Hamiltonians:      0.435     0.435   0.0% |
 Communicate:                        0.092     0.092   0.0% |
 Initialize Hamiltonian:             0.000     0.000   0.0% |
 Poisson:                            0.083     0.083   0.0% |
 XC 3D grid:                         0.304     0.304   0.0% |
LCAO initialization:               253.591     0.527   0.0% |
 LCAO eigensolver:                  12.489     0.011   0.0% |
  Calculate projections:             0.000     0.000   0.0% |
  DenseAtomicCorrection:             0.000     0.000   0.0% |
  Distribute overlap matrix:         7.427     7.427   0.0% |
  Orbital Layouts:                   4.887     4.887   0.0% |
  Potential matrix:                  0.005     0.005   0.0% |
  Sum over cells:                    0.159     0.159   0.0% |
 LCAO to grid:                     238.657   238.657   1.3% ||
 Set positions (LCAO WFS):           1.917     1.644   0.0% |
  Basic WFS set positions:           0.003     0.003   0.0% |
  Basis functions set positions:     0.001     0.001   0.0% |
  P tci:                             0.000     0.000   0.0% |
  ST tci:                            0.107     0.107   0.0% |
  mktci:                             0.162     0.162   0.0% |
PWDescriptor:                        0.116     0.116   0.0% |
SCF-cycle:                       18572.458     0.912   0.0% |
 Davidson:                       18183.990  5833.338  30.9% |-----------|
  Apply H:                         302.279   297.176   1.6% ||
   HMM T:                            5.103     5.103   0.0% |
  Subspace diag:                  1986.719     0.042   0.0% |
   calc_h_matrix:                  793.379   527.128   2.8% ||
    Apply H:                       266.251   261.244   1.4% ||
     HMM T:                          5.007     5.007   0.0% |
   diagonalize:                    178.809   178.809   0.9% |
   rotate_psi:                    1014.490  1014.490   5.4% |-|
  calc. matrices:                 4638.601  4143.337  22.0% |--------|
   Apply H:                        495.264   485.011   2.6% ||
    HMM T:                          10.253    10.253   0.1% |
  diagonalize:                    3282.056  3282.056  17.4% |------|
  rotate_psi:                     2140.997  2140.997  11.3% |----|
 Density:                          208.129     0.004   0.0% |
  Atomic density matrices:           2.782     2.782   0.0% |
  Mix:                              72.350    72.350   0.4% |
  Multipole moments:                 0.075     0.075   0.0% |
  Pseudo density:                  132.918   132.913   0.7% |
   Symmetrize density:               0.005     0.005   0.0% |
 Hamiltonian:                      161.487     1.234   0.0% |
  Atomic:                           48.976     0.174   0.0% |
   XC Correction:                   48.802    48.802   0.3% |
  Calculate atomic Hamiltonians:    56.132    56.132   0.3% |
  Communicate:                      12.114    12.114   0.1% |
  Poisson:                           4.391     4.391   0.0% |
  XC 3D grid:                       38.641    38.641   0.2% |
 Orthonormalize:                    17.940     0.001   0.0% |
  calc_s_matrix:                     2.247     2.247   0.0% |
  inverse-cholesky:                  0.804     0.804   0.0% |
  projections:                      10.945    10.945   0.1% |
  rotate_psi_s:                      3.944     3.944   0.0% |
Set symmetry:                        0.001     0.001   0.0% |
Other:                               6.581     6.581   0.0% |
-----------------------------------------------------------
Total:                                     18870.726 100.0%

Date: Mon Apr 17 14:19:58 2023
