
  ___ ___ ___ _ _ _  
 |   |   |_  | | | | 
 | | | | | . | | | | 
 |__ |  _|___|_____|  22.8.0
 |___|_|             

User:   c.zeng@d0131
Date:   Sat Apr  8 11:11:57 2023
Arch:   x86_64
Pid:    65747
CWD:    /home/c.zeng/projects/hea-corrosion/hea-mlp/data-curation/volume/dft-jobs/55
Python: 3.8.1
gpaw:   /home/c.zeng/usr/installs/gpaw/source/gpaw-22.8.0/gpaw
_gpaw:  /home/c.zeng/usr/installs/gpaw/source/gpaw-22.8.0/
        _gpaw.cpython-38-x86_64-linux-gnu.so
ase:    /home/c.zeng/.local/lib/python3.8/site-packages/ase-3.22.1-py3.8.egg/ase (version 3.22.1)
numpy:  /shared/centos7/python/3.8.1/lib/python3.8/site-packages/numpy (version 1.17.4)
scipy:  /shared/centos7/python/3.8.1/lib/python3.8/site-packages/scipy (version 1.4.1)
libxc:  4.2.3
units:  Angstrom and eV
cores: 64
OpenMP: False
OMP_NUM_THREADS: 1

Input parameters:
  convergence: {energy: 0.0001}
  kpts: [2 2 2]
  maxiter: 666
  mode: {ecut: 350.0,
         name: pw}
  occupations: {fixmagmom: False,
                name: fermi-dirac,
                width: 0.1}
  spinpol: True
  xc: PBE

System changes: positions, numbers, cell, pbc, initial_charges, initial_magmoms 

Initialize ...

species:
  Cr:
    name: Chromium
    id: 33f258bda2ca9f93018e70263a35547b
    Z: 24.0
    valence: 6
    core: 18
    charge: 0.0
    file: /home/c.zeng/usr/data/gpaw-setups-0.9.20000/Cr.PBE.gz
    compensation charges: {type: gauss,
                           rc: 0.35,
                           lmax: 2}
    cutoffs: {filter: 2.14,
              core: 3.04}
    valence states:
      #              energy  rcut
      - 4s(1.00)    -4.007   1.164
      - 4p(0.00)    -0.989   1.217
      - 3d(5.00)    -2.913   1.111
      -  s          23.205   1.164
      -  p          26.223   1.217
      -  d          24.299   1.111
  
    # Using partial waves for Cr as LCAO basis

  Al:
    name: Aluminium
    id: 0292cae29f5d6237e50f6abdd43a7bdd
    Z: 13.0
    valence: 3
    core: 10
    charge: 0.0
    file: /home/c.zeng/usr/data/gpaw-setups-0.9.20000/Al.PBE.gz
    compensation charges: {type: gauss,
                           rc: 0.34,
                           lmax: 2}
    cutoffs: {filter: 1.91,
              core: 2.36}
    valence states:
      #              energy  rcut
      - 3s(2.00)    -7.753   1.085
      - 3p(1.00)    -2.712   1.085
      -  s          19.459   1.085
      -  p          24.499   1.085
      -  d           0.000   1.085
  
    # Using partial waves for Al as LCAO basis

  Co:
    name: Cobalt
    id: 339d20d5b0b93d2de9531a1bee871d91
    Z: 27.0
    valence: 9
    core: 18
    charge: 0.0
    file: /home/c.zeng/usr/data/gpaw-setups-0.9.20000/Co.PBE.gz
    compensation charges: {type: gauss,
                           rc: 0.32,
                           lmax: 2}
    cutoffs: {filter: 1.87,
              core: 2.55}
    valence states:
      #              energy  rcut
      - 4s(2.00)    -5.469   1.005
      - 4p(0.00)    -1.277   1.058
      - 3d(7.00)    -8.205   1.005
      -  s          21.742   1.005
      -  p          25.934   1.058
      -  d          19.007   1.005
  
    # Using partial waves for Co as LCAO basis

  Fe:
    name: Iron
    id: 37abbd8d6c3c35915a9b583b742da910
    Z: 26.0
    valence: 8
    core: 18
    charge: 0.0
    file: /home/c.zeng/usr/data/gpaw-setups-0.9.20000/Fe.PBE.gz
    compensation charges: {type: gauss,
                           rc: 0.33,
                           lmax: 2}
    cutoffs: {filter: 2.06,
              core: 2.67}
    valence states:
      #              energy  rcut
      - 4s(2.00)    -5.291   1.164
      - 4p(0.00)    -1.326   1.058
      - 3d(6.00)    -7.505   1.058
      -  s          21.920   1.164
      -  p          25.885   1.058
      -  d          19.706   1.058
  
    # Using partial waves for Fe as LCAO basis

  Ni:
    name: Nickel
    id: 0d9f38a9d6e76a2886f07bb4381f212b
    Z: 28.0
    valence: 16
    core: 12
    charge: 0.0
    file: /home/c.zeng/usr/data/gpaw-setups-0.9.20000/Ni.PBE.gz
    compensation charges: {type: gauss,
                           rc: 0.36,
                           lmax: 2}
    cutoffs: {filter: 2.14,
              core: 1.98}
    valence states:
      #              energy  rcut
      - 4s(2.00)    -5.642   1.164
      - 3p(6.00)   -71.394   1.207
      - 4p(0.00)    -1.226   1.207
      - 3d(8.00)    -8.875   1.138
      -  s          21.570   1.164
      -  d          18.337   1.138
  
    # Using partial waves for Ni as LCAO basis

Reference energy: -3699400.456887  # eV

Spin-polarized calculation.
Magnetic moment: 143.500000

Convergence criteria:
 Maximum [total energy] change in last 3 cyles: 0.0001 eV / electron
 Maximum integral of absolute [dens]ity change: 0.0001 electrons / valence electron
 Maximum integral of absolute [eigenst]ate change: 4e-08 eV^2 / valence electron
 Maximum number of scf [iter]ations: 666
 (Square brackets indicate name in SCF output, whereas a 'c' in
 the SCF output indicates the quantity has converged.)

Symmetries present (total): 1

  ( 1  0  0)
  ( 0  1  0)
  ( 0  0  1)

8 k-points: 2 x 2 x 2 Monkhorst-Pack grid
4 k-points in the irreducible part of the Brillouin zone
       k-points in crystal coordinates                weights
   0:     0.25000000   -0.25000000   -0.25000000          2/8
   1:     0.25000000   -0.25000000    0.25000000          2/8
   2:     0.25000000    0.25000000   -0.25000000          2/8
   3:     0.25000000    0.25000000    0.25000000          2/8

Wave functions: Plane wave expansion
  Cutoff energy: 350.000 eV
  Number of coefficients (min, max): 18052, 18052
  Pulay-stress correction: 0.000000 eV/Ang^3 (de/decut=0.000000)
  Using FFTW library
  ScaLapack parameters: grid=1x1, blocksize=None
  Wavefunction extrapolation:
    Improved wavefunction reuse through dual PAW basis 

Occupation numbers: Fermi-Dirac:
  width: 0.1000  # eV
 

Eigensolver
   Davidson(niter=2) 

Densities:
  Coarse grid: 48*48*48 grid
  Fine grid: 96*96*96 grid
  Total Charge: 0.000000 

Density mixing:
  Method: difference
  Backend: pulay
  Linear mixing parameter: 0.05
  old densities: 5
  Damping of long wavelength oscillations: 50 

Hamiltonian:
  XC and Coulomb potentials evaluated on a 96*96*96 grid
  Using the PBE Exchange-Correlation functional
  External potential:
    NoExternalPotential
 

XC parameters: PBE with 2 nearest neighbor stencil

Memory estimate:
  Process memory now: 178.07 MiB
  Calculator: 671.38 MiB
    Density: 5.00 MiB
      Arrays: 1.85 MiB
      Localized functions: 2.41 MiB
      Mixer: 0.74 MiB
    Hamiltonian: 1.44 MiB
      Arrays: 1.37 MiB
      XC: 0.00 MiB
      Poisson: 0.00 MiB
      vbar: 0.07 MiB
    Wavefunctions: 664.94 MiB
      Arrays psit_nG: 387.29 MiB
      Eigensolver: 270.45 MiB
      Projections: 2.57 MiB
      Projectors: 0.33 MiB
      PW-descriptor: 4.30 MiB

Total number of cores used: 64
Parallelization over k-points: 4
Domain decomposition: 4 x 2 x 2

Number of atoms: 108
Number of atomic orbitals: 1025
Number of bands in calculation: 703
Number of valence electrons: 1020
Bands to converge: occupied

... initialized

Initializing position-dependent things.

Density initialized from atomic densities
Creating initial wave functions:
  703 bands from LCAO basis set

        Cr------------------------.  
       /|  Ni                Cr   |  
      Cr|   Fe         Al         |  
     / Ni      Cr       Fe        |  
    /   CFe      Co       Cr      |  
   /o   | NiFe     CrFe    CrNi   |  
  /  NiCo  FeCo     CrNiFe        |  
 *    FeCo  CrNiNi     CoCo       |  
 |     NiCoCr  CoNi Co  AlCrFe    |  
 | Ni   FeFeCoAl CoNiNiCo  Ni     |  
 |   FeCr  NiCoCo   FeFeCr   Fe   |  
 |    CrNi  CrCoFeCr NiNiNi   Ni  |  
 |     NiNiNi  Co CrCo  CrFeCo    |  
 |      .-FeCrNi-FeCoCoFe--CrFe---.  
 |   CoFe    FeAl   CrNiNi       /   
 |    / Fe    CoCr       Co     /    
 |   /            Fe           /     
 |Al/      Cr       Co        /      
 | /                         /       
 |/            Fe           /        
 *----------------Cr-------*         

Positions:
   0 Cr     0.005316   -0.016350   10.639749    ( 0.0000,  0.0000,  0.0000)
   1 Al    10.672340    1.801276    1.786848    ( 0.0000,  0.0000,  0.0000)
   2 Cr     1.795727   10.625972    1.782259    ( 0.0000,  0.0000,  0.0000)
   3 Co     1.780787    1.796175   10.644605    ( 0.0000,  0.0000,  2.1000)
   4 Fe     3.523539   -0.014558    0.017268    ( 0.0000,  0.0000,  2.0000)
   5 Cr     3.522568    1.781672    1.746648    ( 0.0000,  0.0000,  0.0000)
   6 Ni     5.320952   10.642342    1.763136    ( 0.0000,  0.0000,  1.5000)
   7 Fe     5.342082    1.828767    0.007462    ( 0.0000,  0.0000,  2.0000)
   8 Cr     7.144895    0.019195    0.012033    ( 0.0000,  0.0000,  0.0000)
   9 Co     7.143497    1.798064    1.764939    ( 0.0000,  0.0000,  2.1000)
  10 Ni     8.891362   10.651627    1.788353    ( 0.0000,  0.0000,  1.5000)
  11 Fe     8.888779    1.804777   10.642609    ( 0.0000,  0.0000,  2.0000)
  12 Co     0.008694    3.581540   10.650250    ( 0.0000,  0.0000,  2.1000)
  13 Co     0.018979    5.332745    1.789751    ( 0.0000,  0.0000,  2.1000)
  14 Fe     1.778129    3.600941    1.760019    ( 0.0000,  0.0000,  2.0000)
  15 Fe     1.790423    5.343267   -0.017766    ( 0.0000,  0.0000,  2.0000)
  16 Fe     3.542802    3.589864   -0.015614    ( 0.0000,  0.0000,  2.0000)
  17 Fe     3.526837    5.358538    1.765793    ( 0.0000,  0.0000,  2.0000)
  18 Cr     5.336650    3.606501    1.755815    ( 0.0000,  0.0000,  0.0000)
  19 Co     5.300399    5.323642   -0.012797    ( 0.0000,  0.0000,  2.1000)
  20 Fe     7.122858    3.584816   10.659524    ( 0.0000,  0.0000,  2.0000)
  21 Ni     7.120500    5.315168    1.805502    ( 0.0000,  0.0000,  1.5000)
  22 Co     8.892034    3.590952    1.773146    ( 0.0000,  0.0000,  2.1000)
  23 Cr     8.925340    5.301487   -0.003100    ( 0.0000,  0.0000,  0.0000)
  24 Cr     0.023056    7.096680   -0.007939    ( 0.0000,  0.0000,  0.0000)
  25 Ni     0.019142    8.871245    1.787510    ( 0.0000,  0.0000,  1.5000)
  26 Fe     1.784372    7.104567    1.776443    ( 0.0000,  0.0000,  2.0000)
  27 Ni     1.779944    8.867628   10.659406    ( 0.0000,  0.0000,  1.5000)
  28 Co     3.547785    7.097897    0.009215    ( 0.0000,  0.0000,  2.1000)
  29 Co     3.541137    8.858109    1.788225    ( 0.0000,  0.0000,  2.1000)
  30 Co     5.295105    7.099391    1.787894    ( 0.0000,  0.0000,  2.1000)
  31 Cr     5.303685    8.873828    0.029898    ( 0.0000,  0.0000,  0.0000)
  32 Al     7.106883    7.088719   10.645159    ( 0.0000,  0.0000,  0.0000)
  33 Cr     7.111055    8.901137    1.809472    ( 0.0000,  0.0000,  0.0000)
  34 Cr     8.939384    7.093404    1.799238    ( 0.0000,  0.0000,  0.0000)
  35 Cr     8.919972    8.915853   10.664881    ( 0.0000,  0.0000,  0.0000)
  36 Fe    10.679704   10.658873    3.584517    ( 0.0000,  0.0000,  2.0000)
  37 Co    10.670921    1.796367    5.340289    ( 0.0000,  0.0000,  2.1000)
  38 Cr     1.770350   10.649001    5.343491    ( 0.0000,  0.0000,  0.0000)
  39 Fe     1.791800    1.784671    3.584891    ( 0.0000,  0.0000,  2.0000)
  40 Co     3.529718   10.626388    3.565234    ( 0.0000,  0.0000,  2.1000)
  41 Ni     3.535716    1.793465    5.367289    ( 0.0000,  0.0000,  1.5000)
  42 Ni     5.311497    0.001574    5.366254    ( 0.0000,  0.0000,  1.5000)
  43 Al     5.332627    1.768055    3.580793    ( 0.0000,  0.0000,  0.0000)
  44 Fe     7.136966   10.673941    3.563804    ( 0.0000,  0.0000,  2.0000)
  45 Co     7.136774    1.794126    5.358944    ( 0.0000,  0.0000,  2.1000)
  46 Fe     8.925938   10.673621    5.347589    ( 0.0000,  0.0000,  2.0000)
  47 Ni     8.883827    1.779111    3.582404    ( 0.0000,  0.0000,  1.5000)
  48 Fe    -0.010038    3.572341    3.580996    ( 0.0000,  0.0000,  2.0000)
  49 Fe    10.685573    5.328935    5.338550    ( 0.0000,  0.0000,  2.0000)
  50 Ni     1.784180    3.582949    5.348357    ( 0.0000,  0.0000,  1.5000)
  51 Ni     1.766326    5.339510    3.565255    ( 0.0000,  0.0000,  1.5000)
  52 Cr     3.522387    3.605007    3.574059    ( 0.0000,  0.0000,  0.0000)
  53 Co     3.543581    5.347343    5.347962    ( 0.0000,  0.0000,  2.1000)
  54 Fe     5.333950    3.591678    5.360630    ( 0.0000,  0.0000,  2.0000)
  55 Cr     5.336458    5.346308    3.560132    ( 0.0000,  0.0000,  0.0000)
  56 Co     7.143102    3.570089    3.572138    ( 0.0000,  0.0000,  2.1000)
  57 Fe     7.120265    5.347471    5.345689    ( 0.0000,  0.0000,  2.0000)
  58 Ni     8.888299    3.570665    5.342018    ( 0.0000,  0.0000,  1.5000)
  59 Fe     8.904573    5.339084    3.577453    ( 0.0000,  0.0000,  2.0000)
  60 Cr     0.020297    7.105111    3.565266    ( 0.0000,  0.0000,  0.0000)
  61 Ni     0.010839    8.875973    5.335359    ( 0.0000,  0.0000,  1.5000)
  62 Fe     1.776144    7.099124    5.335530    ( 0.0000,  0.0000,  2.0000)
  63 Ni     1.782707    8.879996    3.566664    ( 0.0000,  0.0000,  1.5000)
  64 Co     3.540379    7.112901    3.549920    ( 0.0000,  0.0000,  2.1000)
  65 Co     3.550165    8.855643    5.319490    ( 0.0000,  0.0000,  2.1000)
  66 Ni     5.302320    7.072776    5.331720    ( 0.0000,  0.0000,  1.5000)
  67 Fe     5.308712    8.888715    3.547198    ( 0.0000,  0.0000,  2.0000)
  68 Ni     7.110436    7.091110    3.542599    ( 0.0000,  0.0000,  1.5000)
  69 Al     7.111322    8.868257    5.343331    ( 0.0000,  0.0000,  0.0000)
  70 Ni     8.928819    7.090939    5.344996    ( 0.0000,  0.0000,  1.5000)
  71 Fe     8.912748    8.874735    3.555853    ( 0.0000,  0.0000,  2.0000)
  72 Cr     0.013232   10.658937    7.109743    ( 0.0000,  0.0000,  0.0000)
  73 Fe    10.669470    1.787435    8.884158    ( 0.0000,  0.0000,  2.0000)
  74 Fe     1.768674   10.665478    8.879922    ( 0.0000,  0.0000,  2.0000)
  75 Cr     1.779645    1.805428    7.118291    ( 0.0000,  0.0000,  0.0000)
  76 Cr     3.512206   10.665905    7.084504    ( 0.0000,  0.0000,  0.0000)
  77 Cr     3.526218    1.824316    8.898021    ( 0.0000,  0.0000,  0.0000)
  78 Al     5.331144    0.023495    8.896708    ( 0.0000,  0.0000,  0.0000)
  79 Co     5.335252    1.825362    7.095656    ( 0.0000,  0.0000,  2.1000)
  80 Cr     7.148524    0.023834    7.114139    ( 0.0000,  0.0000,  0.0000)
  81 Co     7.139912    1.808384    8.892706    ( 0.0000,  0.0000,  2.1000)
  82 Co     8.906836    0.013024    8.882259    ( 0.0000,  0.0000,  2.1000)
  83 Cr     8.894072    1.797691    7.127959    ( 0.0000,  0.0000,  0.0000)
  84 Ni     0.021840    3.574998    7.113777    ( 0.0000,  0.0000,  1.5000)
  85 Ni     0.023462    5.326566    8.882152    ( 0.0000,  0.0000,  1.5000)
  86 Co     1.768098    3.569908    8.891692    ( 0.0000,  0.0000,  2.1000)
  87 Co     1.775205    5.350033    7.118739    ( 0.0000,  0.0000,  2.1000)
  88 Co     3.546355    3.587879    7.119902    ( 0.0000,  0.0000,  2.1000)
  89 Co     3.540272    5.336074    8.886271    ( 0.0000,  0.0000,  2.1000)
  90 Ni     5.331998    3.563526    8.882088    ( 0.0000,  0.0000,  1.5000)
  91 Ni     5.316310    5.330738    7.117095    ( 0.0000,  0.0000,  1.5000)
  92 Ni     7.104076    3.574977    7.111546    ( 0.0000,  0.0000,  1.5000)
  93 Ni     7.108740    5.307762    8.854395    ( 0.0000,  0.0000,  1.5000)
  94 Co     8.907593    3.561296    8.890348    ( 0.0000,  0.0000,  2.1000)
  95 Cr     8.917806    5.336309    7.100224    ( 0.0000,  0.0000,  0.0000)
  96 Fe     0.016270    7.102027    7.111664    ( 0.0000,  0.0000,  2.0000)
  97 Ni     0.000822    8.895150    8.883817    ( 0.0000,  0.0000,  1.5000)
  98 Ni     1.771182    7.105090    8.888608    ( 0.0000,  0.0000,  1.5000)
  99 Fe     1.775184    8.850318    7.108494    ( 0.0000,  0.0000,  2.0000)
 100 Ni     3.530401    7.086478    7.104972    ( 0.0000,  0.0000,  1.5000)
 101 Cr     3.524841    8.851001    8.894798    ( 0.0000,  0.0000,  0.0000)
 102 Cr     5.310654    7.102827    8.871128    ( 0.0000,  0.0000,  0.0000)
 103 Cr     5.290613    8.850286    7.104876    ( 0.0000,  0.0000,  0.0000)
 104 Co     7.129016    7.083330    7.142750    ( 0.0000,  0.0000,  2.1000)
 105 Fe     7.143241    8.903186    8.854384    ( 0.0000,  0.0000,  2.0000)
 106 Cr     8.926504    7.115858    8.862313    ( 0.0000,  0.0000,  0.0000)
 107 Ni     8.932896    8.877648    7.127479    ( 0.0000,  0.0000,  1.5000)

Unit cell:
           periodic     x           y           z      points  spacing
  1. axis:    yes   10.671700    0.000000    0.000000    48     0.2223
  2. axis:    yes    0.000000   10.671700    0.000000    48     0.2223
  3. axis:    yes    0.000000    0.000000   10.671700    48     0.2223

  Lengths:  10.671700  10.671700  10.671700
  Angles:   90.000000  90.000000  90.000000

Effective grid spacing dv^(1/3) = 0.2223

     iter     time        total  log10-change:  magmom
                         energy  eigst   dens
iter:   1 11:13:58 -1058.542349                  +143.7773
iter:   2 11:14:53  -939.124665  -0.23  -1.20    +81.6440
iter:   3 11:15:46  -922.092896  -0.90  -1.22    +69.7687
iter:   4 11:16:39  -902.334763  -1.30  -1.29    +65.6133
iter:   5 11:17:31  -887.712471  -1.59  -1.32    +62.5186
iter:   6 11:18:24  -886.775219  -1.27  -1.39    +63.0152
iter:   7 11:19:18  -883.375038  -1.28  -1.48    +62.1143
iter:   8 11:20:11  -870.859945  -1.76  -1.57    +61.7827
iter:   9 11:21:06  -869.164231  -2.18  -1.76    +63.0247
iter:  10 11:21:59  -869.256207  -2.63  -1.85    +64.1278
iter:  11 11:22:54  -869.857061  -2.59  -1.86    +65.4253
iter:  12 11:23:48  -871.053802  -2.46  -1.91    +66.6126
iter:  13 11:24:41  -870.997587  -2.48  -1.94    +67.1114
iter:  14 11:25:35  -870.844403  -2.56  -2.02    +67.9701
iter:  15 11:26:28  -870.922336  -2.81  -2.05    +68.6201
iter:  16 11:27:22  -870.462016  -2.98  -2.09    +68.8762
iter:  17 11:28:17  -870.538438  -3.23  -2.19    +69.4133
iter:  18 11:29:10  -870.391064  -3.28  -2.20    +69.7530
iter:  19 11:30:04  -870.644021  -3.13  -2.31    +70.1024
iter:  20 11:30:59  -870.426533  -3.23  -2.29    +70.1902
iter:  21 11:31:53  -870.483216  -3.43  -2.41    +70.5183
iter:  22 11:32:47  -870.449913c -3.49  -2.41    +70.6160
iter:  23 11:33:39  -870.432417c -3.46  -2.45    +70.5544
iter:  24 11:34:34  -870.372002c -3.68  -2.51    +70.6758
iter:  25 11:35:25  -870.408535c -3.66  -2.57    +70.6862
iter:  26 11:36:18  -870.413624c -3.77  -2.60    +70.6899
iter:  27 11:37:11  -870.378960c -3.86  -2.59    +70.7087
iter:  28 11:38:03  -870.417903c -3.91  -2.66    +70.7671
iter:  29 11:38:57  -870.413517c -4.04  -2.67    +70.8217
iter:  30 11:39:50  -870.412718c -4.11  -2.69    +70.7248
iter:  31 11:40:43  -870.392521c -4.37  -2.72    +70.7284
iter:  32 11:41:35  -870.474633c -3.98  -2.80    +70.7089
iter:  33 11:42:29  -870.417063c -4.17  -2.71    +70.7169
iter:  34 11:43:22  -870.419590c -4.41  -2.83    +70.6693
iter:  35 11:44:16  -870.436300c -4.42  -2.85    +70.6260
iter:  36 11:45:09  -870.426900c -4.42  -2.86    +70.6553
iter:  37 11:46:01  -870.424509c -4.61  -2.93    +70.6170
iter:  38 11:46:55  -870.443957c -4.59  -2.98    +70.5843
iter:  39 11:47:47  -870.444414c -4.51  -2.97    +70.5591
iter:  40 11:48:41  -870.452210c -4.50  -2.99    +70.5416
iter:  41 11:49:35  -870.451780c -4.61  -2.99    +70.5581
iter:  42 11:50:28  -870.447292c -4.70  -3.04    +70.4543
iter:  43 11:51:23  -870.450350c -4.80  -3.16    +70.4508
iter:  44 11:52:19  -870.452342c -5.00  -3.13    +70.4269
iter:  45 11:53:15  -870.458797c -4.97  -3.21    +70.3969
iter:  46 11:54:10  -870.459518c -4.90  -3.19    +70.3588
iter:  47 11:55:04  -870.460855c -5.17  -3.19    +70.3029
iter:  48 11:55:59  -870.460954c -5.24  -3.27    +70.2885
iter:  49 11:56:55  -870.465908c -5.20  -3.31    +70.2350
iter:  50 11:57:48  -870.464996c -5.48  -3.29    +70.2082
iter:  51 11:58:40  -870.468924c -5.32  -3.36    +70.1346
iter:  52 11:59:36  -870.472040c -5.26  -3.34    +70.1291
iter:  53 12:00:30  -870.471951c -5.38  -3.33    +70.1025
iter:  54 12:01:26  -870.474693c -5.31  -3.39    +70.0278
iter:  55 12:02:19  -870.476395c -5.39  -3.42    +70.0206
iter:  56 12:03:12  -870.476226c -5.60  -3.39    +69.9845
iter:  57 12:04:08  -870.477659c -5.78  -3.47    +69.9565
iter:  58 12:05:03  -870.478852c -5.92  -3.48    +69.9174
iter:  59 12:05:57  -870.481798c -5.63  -3.49    +69.8506
iter:  60 12:06:50  -870.486799c -5.19  -3.45    +69.6953
iter:  61 12:07:44  -870.492346c -5.19  -3.42    +69.5939
iter:  62 12:08:37  -870.488810c -5.83  -3.34    +69.6870
iter:  63 12:09:31  -870.504339c -4.29  -3.37    +69.2489
iter:  64 12:10:25  -870.504962c -5.08  -3.25    +69.2014
iter:  65 12:11:19  -870.507890c -5.19  -3.28    +69.1709
iter:  66 12:12:14  -870.507198c -4.92  -3.26    +69.1755
iter:  67 12:13:06  -870.508052c -4.96  -3.24    +69.1525
iter:  68 12:13:59  -870.510470c -4.66  -3.31    +69.1062
iter:  69 12:14:53  -870.505231c -4.86  -3.25    +69.1053
iter:  70 12:15:49  -870.501678c -5.37  -3.39    +69.0765
iter:  71 12:16:43  -870.499846c -5.75  -3.54    +69.0613
iter:  72 12:17:36  -870.499721c -6.12  -3.67    +69.0167
iter:  73 12:18:28  -870.499761c -6.07  -3.78    +69.0013
iter:  74 12:19:20  -870.499751c -6.36  -3.71    +68.9871
iter:  75 12:20:14  -870.500136c -5.89  -3.80    +68.9655
iter:  76 12:21:09  -870.500168c -5.91  -3.79    +68.9616
iter:  77 12:22:03  -870.500797c -5.91  -3.77    +68.9494
iter:  78 12:22:56  -870.499670c -6.19  -3.77    +68.9493
iter:  79 12:23:51  -870.500163c -6.28  -3.93    +68.9292
iter:  80 12:24:46  -870.499674c -6.42  -3.91    +68.9235
iter:  81 12:25:39  -870.499749c -6.97  -4.00c   +68.9148
iter:  82 12:26:32  -870.499811c -6.79  -4.08c   +68.8990
iter:  83 12:27:25  -870.499741c -6.90  -4.06c   +68.8959
iter:  84 12:28:20  -870.500126c -6.68  -4.08c   +68.8839
iter:  85 12:29:13  -870.499887c -6.74  -4.04c   +68.8821
iter:  86 12:30:09  -870.500405c -6.36  -4.11c   +68.8733
iter:  87 12:31:00  -870.500012c -6.52  -4.00    +68.8679
iter:  88 12:31:54  -870.500125c -6.63  -4.10c   +68.8627
iter:  89 12:32:49  -870.500192c -6.88  -4.15c   +68.8581
iter:  90 12:33:42  -870.500025c -7.09  -4.22c   +68.8531
iter:  91 12:34:36  -870.500076c -7.54c -4.28c   +68.8427

Converged after 91 iterations.

Dipole moment: (-9.619355, 8.081418, 8.205582) |e|*Ang

Total magnetic moment: (0.000000, 0.000000, 68.842724)
Local magnetic moments:
   0 Cr ( 0.000000,  0.000000, -0.915415)
   1 Al ( 0.000000,  0.000000, -0.041446)
   2 Cr ( 0.000000,  0.000000, -1.123499)
   3 Co ( 0.000000,  0.000000,  0.732928)
   4 Fe ( 0.000000,  0.000000,  1.773265)
   5 Cr ( 0.000000,  0.000000, -0.812401)
   6 Ni ( 0.000000,  0.000000,  0.191048)
   7 Fe ( 0.000000,  0.000000,  2.075973)
   8 Cr ( 0.000000,  0.000000, -1.169989)
   9 Co ( 0.000000,  0.000000,  1.222765)
  10 Ni ( 0.000000,  0.000000,  0.177113)
  11 Fe ( 0.000000,  0.000000,  2.244927)
  12 Co ( 0.000000,  0.000000,  1.365963)
  13 Co ( 0.000000,  0.000000,  1.002104)
  14 Fe ( 0.000000,  0.000000,  2.002031)
  15 Fe ( 0.000000,  0.000000,  2.272237)
  16 Fe ( 0.000000,  0.000000,  2.036985)
  17 Fe ( 0.000000,  0.000000,  1.899013)
  18 Cr ( 0.000000,  0.000000, -1.121457)
  19 Co ( 0.000000,  0.000000,  1.268667)
  20 Fe ( 0.000000,  0.000000,  2.282830)
  21 Ni ( 0.000000,  0.000000,  0.255197)
  22 Co ( 0.000000,  0.000000,  1.280690)
  23 Cr ( 0.000000,  0.000000, -0.943853)
  24 Cr ( 0.000000,  0.000000, -0.890184)
  25 Ni ( 0.000000,  0.000000,  0.173519)
  26 Fe ( 0.000000,  0.000000,  2.279119)
  27 Ni ( 0.000000,  0.000000,  0.220894)
  28 Co ( 0.000000,  0.000000,  1.174487)
  29 Co ( 0.000000,  0.000000,  1.152204)
  30 Co ( 0.000000,  0.000000,  1.138277)
  31 Cr ( 0.000000,  0.000000,  1.028683)
  32 Al ( 0.000000,  0.000000, -0.010902)
  33 Cr ( 0.000000,  0.000000, -1.485602)
  34 Cr ( 0.000000,  0.000000,  0.821212)
  35 Cr ( 0.000000,  0.000000,  0.994012)
  36 Fe ( 0.000000,  0.000000,  2.256574)
  37 Co ( 0.000000,  0.000000,  0.966371)
  38 Cr ( 0.000000,  0.000000, -1.216538)
  39 Fe ( 0.000000,  0.000000,  2.022762)
  40 Co ( 0.000000,  0.000000,  1.088095)
  41 Ni ( 0.000000,  0.000000,  0.155120)
  42 Ni ( 0.000000,  0.000000,  0.264588)
  43 Al ( 0.000000,  0.000000, -0.022461)
  44 Fe ( 0.000000,  0.000000,  2.333126)
  45 Co ( 0.000000,  0.000000,  1.176697)
  46 Fe ( 0.000000,  0.000000,  1.959788)
  47 Ni ( 0.000000,  0.000000,  0.494895)
  48 Fe ( 0.000000,  0.000000,  2.373561)
  49 Fe ( 0.000000,  0.000000,  2.234559)
  50 Ni ( 0.000000,  0.000000,  0.386234)
  51 Ni ( 0.000000,  0.000000,  0.403595)
  52 Cr ( 0.000000,  0.000000, -0.931477)
  53 Co ( 0.000000,  0.000000,  1.376757)
  54 Fe ( 0.000000,  0.000000,  2.208509)
  55 Cr ( 0.000000,  0.000000, -1.141683)
  56 Co ( 0.000000,  0.000000,  1.342558)
  57 Fe ( 0.000000,  0.000000,  2.309956)
  58 Ni ( 0.000000,  0.000000,  0.358021)
  59 Fe ( 0.000000,  0.000000,  2.174039)
  60 Cr ( 0.000000,  0.000000, -1.804791)
  61 Ni ( 0.000000,  0.000000,  0.301585)
  62 Fe ( 0.000000,  0.000000,  2.309421)
  63 Ni ( 0.000000,  0.000000,  0.378918)
  64 Co ( 0.000000,  0.000000,  1.376241)
  65 Co ( 0.000000,  0.000000,  1.090015)
  66 Ni ( 0.000000,  0.000000,  0.346947)
  67 Fe ( 0.000000,  0.000000,  2.366336)
  68 Ni ( 0.000000,  0.000000,  0.186565)
  69 Al ( 0.000000,  0.000000, -0.032727)
  70 Ni ( 0.000000,  0.000000,  0.344985)
  71 Fe ( 0.000000,  0.000000,  2.103078)
  72 Cr ( 0.000000,  0.000000,  0.065765)
  73 Fe ( 0.000000,  0.000000,  1.865934)
  74 Fe ( 0.000000,  0.000000,  1.483339)
  75 Cr ( 0.000000,  0.000000, -0.384535)
  76 Cr ( 0.000000,  0.000000,  0.531430)
  77 Cr ( 0.000000,  0.000000, -1.403212)
  78 Al ( 0.000000,  0.000000, -0.022016)
  79 Co ( 0.000000,  0.000000,  1.164110)
  80 Cr ( 0.000000,  0.000000, -1.361243)
  81 Co ( 0.000000,  0.000000,  0.956295)
  82 Co ( 0.000000,  0.000000, -0.011378)
  83 Cr ( 0.000000,  0.000000, -1.209590)
  84 Ni ( 0.000000,  0.000000,  0.321270)
  85 Ni ( 0.000000,  0.000000,  0.259533)
  86 Co ( 0.000000,  0.000000,  1.195222)
  87 Co ( 0.000000,  0.000000,  1.605677)
  88 Co ( 0.000000,  0.000000,  1.332507)
  89 Co ( 0.000000,  0.000000,  1.428501)
  90 Ni ( 0.000000,  0.000000,  0.419608)
  91 Ni ( 0.000000,  0.000000,  0.465492)
  92 Ni ( 0.000000,  0.000000,  0.315958)
  93 Ni ( 0.000000,  0.000000,  0.103028)
  94 Co ( 0.000000,  0.000000,  1.171536)
  95 Cr ( 0.000000,  0.000000, -1.803029)
  96 Fe ( 0.000000,  0.000000,  2.222469)
  97 Ni ( 0.000000,  0.000000,  0.161287)
  98 Ni ( 0.000000,  0.000000,  0.385979)
  99 Fe ( 0.000000,  0.000000,  1.770898)
 100 Ni ( 0.000000,  0.000000,  0.385915)
 101 Cr ( 0.000000,  0.000000, -1.171771)
 102 Cr ( 0.000000,  0.000000, -1.031449)
 103 Cr ( 0.000000,  0.000000,  1.107322)
 104 Co ( 0.000000,  0.000000,  0.895197)
 105 Fe ( 0.000000,  0.000000,  1.576121)
 106 Cr ( 0.000000,  0.000000, -0.606363)
 107 Ni ( 0.000000,  0.000000,  0.147589)

Energy contributions relative to reference atoms: (reference = -3699400.456887)

Kinetic:       +156.370541
Potential:     -205.010830
External:        +0.000000
XC:            -857.586626
Entropy (-ST):   -4.587837
Local:          +38.020757
--------------------------
Free energy:   -872.793995
Extrapolated:  -870.500076

Spin contamination: 27.430298 electrons
Showing only first 2 kpts
                      Up                     Down
 Kpt  Band  Eigenvalues  Occupancy  Eigenvalues  Occupancy
  0   508      9.61547    0.99558     10.56443    0.01674
  0   509      9.62634    0.99507     10.58154    0.01415
  0   510      9.64088    0.99431     10.58905    0.01314
  0   511      9.65697    0.99332     10.59415    0.01249

  1   508      9.61302    0.99568     10.56016    0.01746
  1   509      9.63049    0.99487     10.57083    0.01572
  1   510      9.64171    0.99426     10.58674    0.01344
  1   511      9.65164    0.99366     10.59140    0.01284


Fermi level: 10.15715

No gap

Forces in eV/Ang:
  0 Cr    0.08166   -0.18189   -0.60787
  1 Al   -0.29362    0.23367    0.02058
  2 Cr    0.51455   -0.25999   -0.01639
  3 Co    0.33215   -0.06727    0.03712
  4 Fe   -0.16341    0.32720    0.09494
  5 Cr   -0.40046    0.10411   -0.36740
  6 Ni   -0.04947    0.43988   -0.00364
  7 Fe    0.00823   -0.35260    0.27501
  8 Cr    0.29930   -0.00069    0.00143
  9 Co    0.05664   -0.06983    0.02198
 10 Ni    0.06470    0.17652   -0.02052
 11 Fe   -0.17234   -0.34301    0.14202
 12 Co   -0.07570    0.19798   -0.13827
 13 Co   -0.04592   -0.08998   -0.03392
 14 Fe    0.29625   -0.07959    0.05748
 15 Fe   -0.33866    0.05306   -0.31843
 16 Fe    0.16928   -0.15678   -0.18753
 17 Fe    0.45320   -0.18738    0.53376
 18 Cr   -0.07086   -0.03260   -0.09834
 19 Co   -0.29194    0.01065    0.10691
 20 Fe   -0.08185    0.32190    0.05995
 21 Ni    0.01555    0.19655   -0.08854
 22 Co   -0.10265    0.00237    0.09600
 23 Cr    0.58374   -0.51128   -0.05093
 24 Cr   -0.13631    0.09658    0.15160
 25 Ni   -0.01497    0.27515   -0.11547
 26 Fe   -0.20423    0.09149    0.25487
 27 Ni   -0.13463    0.21768    0.10704
 28 Co    0.23294   -0.11631   -0.13691
 29 Co   -0.15138    0.28854   -0.02546
 30 Co    0.15948   -0.13571    0.09060
 31 Cr   -0.14083    0.13567    0.19142
 32 Al   -0.24082   -0.53724    0.43116
 33 Cr    0.00949    0.00734    0.55506
 34 Cr   -0.15511   -0.31976   -0.00680
 35 Cr    0.25022    0.28178    0.05016
 36 Fe    0.15202   -0.02316    0.10001
 37 Co    0.04305    0.03612    0.14456
 38 Cr    0.16069   -0.07488   -0.15018
 39 Fe    0.37253   -0.06103    0.12171
 40 Co   -0.17194    0.14444   -0.09991
 41 Ni    0.09288    0.12473   -0.14978
 42 Ni    0.14387   -0.00779    0.03146
 43 Al    0.19334   -0.39712    0.13888
 44 Fe    0.19452    0.14142   -0.28400
 45 Co   -0.03818    0.03321    0.01395
 46 Fe   -0.07423    0.15394    0.21037
 47 Ni   -0.05451    0.01036   -0.13813
 48 Fe    0.01772    0.01546    0.14900
 49 Fe   -0.03415   -0.13307    0.23315
 50 Ni    0.09828   -0.05558    0.08380
 51 Ni    0.37392   -0.08992   -0.09909
 52 Cr   -0.38587    0.08736   -0.19892
 53 Co   -0.03754   -0.20741   -0.26768
 54 Fe   -0.14720   -0.16336   -0.02814
 55 Cr   -0.15619   -0.08064   -0.15851
 56 Co   -0.07702    0.06890   -0.03815
 57 Fe   -0.03348    0.20043    0.15057
 58 Ni    0.02286   -0.17877    0.09743
 59 Fe   -0.07685   -0.00461   -0.31153
 60 Cr   -0.27167   -0.07318   -0.24698
 61 Ni   -0.07796    0.14454    0.03417
 62 Fe    0.20822    0.11424   -0.18831
 63 Ni   -0.00991    0.08873    0.03478
 64 Co    0.31045   -0.25931    0.01974
 65 Co   -0.03938    0.18574    0.18320
 66 Ni    0.10748    0.15346    0.14452
 67 Fe   -0.40781   -0.09400   -0.18700
 68 Ni    0.03767   -0.00247   -0.07529
 69 Al    0.32929   -0.72252   -0.23462
 70 Ni   -0.25400    0.05367   -0.13026
 71 Fe    0.23653    0.27009   -0.10256
 72 Cr    0.07844    0.04377    0.30249
 73 Fe    0.15676    0.12226   -0.12232
 74 Fe    0.00207   -0.08091    0.26471
 75 Cr   -0.28055   -0.01840   -0.16189
 76 Cr   -0.08957    0.26481   -0.25230
 77 Cr   -0.45923    0.39635    0.22759
 78 Al    0.13035    0.24096   -0.07590
 79 Co   -0.03637   -0.31634    0.16047
 80 Cr    0.08522    0.10708    0.11597
 81 Co    0.07289   -0.15696   -0.27401
 82 Co   -0.11724    0.08617   -0.15955
 83 Cr    0.28864    0.29770   -0.05200
 84 Ni   -0.20851   -0.28707    0.02992
 85 Ni   -0.25773   -0.12739    0.14443
 86 Co    0.08502   -0.32366   -0.04255
 87 Co    0.08391   -0.18446    0.00605
 88 Co   -0.10620   -0.16132    0.07573
 89 Co    0.09837    0.00933    0.05192
 90 Ni   -0.13503   -0.11919    0.02186
 91 Ni    0.06614    0.22582   -0.08613
 92 Ni    0.30125   -0.20805   -0.03600
 93 Ni    0.19857    0.39649    0.34109
 94 Co    0.08402   -0.06151   -0.16640
 95 Cr   -0.15860   -0.19489    0.12458
 96 Fe   -0.17204   -0.02602    0.11085
 97 Ni    0.18949    0.08021    0.03973
 98 Ni    0.12967   -0.10874   -0.00550
 99 Fe    0.33168    0.43868    0.12772
100 Ni    0.13211    0.10654    0.11254
101 Cr   -0.63812    0.00129   -0.01133
102 Cr   -0.04988    0.04576   -0.59238
103 Cr   -0.44631   -0.02395    0.19449
104 Co   -0.23555   -0.09631    0.26203
105 Fe    0.06250   -0.04882   -0.18692
106 Cr   -0.00479    0.03991   -0.29157
107 Ni   -0.19727    0.22176   -0.05606

Timing:                              incl.     excl.
-----------------------------------------------------------
Forces:                             11.130    11.130   0.2% |
Hamiltonian:                         0.665     0.089   0.0% |
 Atomic:                             0.143     0.076   0.0% |
  XC Correction:                     0.067     0.067   0.0% |
 Calculate atomic Hamiltonians:      0.266     0.266   0.0% |
 Communicate:                        0.028     0.028   0.0% |
 Initialize Hamiltonian:             0.000     0.000   0.0% |
 Poisson:                            0.001     0.001   0.0% |
 XC 3D grid:                         0.138     0.138   0.0% |
LCAO initialization:                59.371     0.848   0.0% |
 LCAO eigensolver:                   6.181     0.005   0.0% |
  Calculate projections:             0.118     0.118   0.0% |
  DenseAtomicCorrection:             0.143     0.143   0.0% |
  Distribute overlap matrix:         0.916     0.916   0.0% |
  Orbital Layouts:                   2.739     2.739   0.1% |
  Potential matrix:                  1.643     1.643   0.0% |
  Sum over cells:                    0.617     0.617   0.0% |
 LCAO to grid:                      50.643    50.643   1.0% |
 Set positions (LCAO WFS):           1.698     1.095   0.0% |
  Basic WFS set positions:           0.003     0.003   0.0% |
  Basis functions set positions:     0.001     0.001   0.0% |
  P tci:                             0.175     0.175   0.0% |
  ST tci:                            0.151     0.151   0.0% |
  mktci:                             0.274     0.274   0.0% |
PWDescriptor:                        0.090     0.090   0.0% |
SCF-cycle:                        4897.291     7.763   0.2% |
 Davidson:                        4765.333  1329.071  26.7% |----------|
  Apply H:                          45.238    43.767   0.9% |
   HMM T:                            1.471     1.471   0.0% |
  Subspace diag:                   450.753     0.035   0.0% |
   calc_h_matrix:                  162.740   102.125   2.1% ||
    Apply H:                        60.614    58.995   1.2% |
     HMM T:                          1.619     1.619   0.0% |
   diagonalize:                     78.366    78.366   1.6% ||
   rotate_psi:                     209.613   209.613   4.2% |-|
  calc. matrices:                  786.243   714.357  14.4% |-----|
   Apply H:                         71.886    69.339   1.4% ||
    HMM T:                           2.547     2.547   0.1% |
  diagonalize:                    1717.594  1717.594  34.5% |-------------|
  rotate_psi:                      436.434   436.434   8.8% |---|
 Density:                           58.238     0.002   0.0% |
  Atomic density matrices:           1.315     1.315   0.0% |
  Mix:                              27.408    27.408   0.6% |
  Multipole moments:                 0.041     0.041   0.0% |
  Pseudo density:                   29.472    29.467   0.6% |
   Symmetrize density:               0.005     0.005   0.0% |
 Hamiltonian:                       60.462     3.203   0.1% |
  Atomic:                           15.510     9.102   0.2% |
   XC Correction:                    6.408     6.408   0.1% |
  Calculate atomic Hamiltonians:    18.654    18.654   0.4% |
  Communicate:                       6.901     6.901   0.1% |
  Poisson:                           0.037     0.037   0.0% |
  XC 3D grid:                       16.157    16.157   0.3% |
 Orthonormalize:                     5.495     0.001   0.0% |
  calc_s_matrix:                     0.668     0.668   0.0% |
  inverse-cholesky:                  0.724     0.724   0.0% |
  projections:                       3.155     3.155   0.1% |
  rotate_psi_s:                      0.947     0.947   0.0% |
Set symmetry:                        0.001     0.001   0.0% |
Other:                               3.053     3.053   0.1% |
-----------------------------------------------------------
Total:                                      4971.601 100.0%

Date: Sat Apr  8 12:34:48 2023
